<event>
12    1  0.8358445E-002  0.3116924E+03  0.7818608E-02  0.1079565E+00
         21   -1    0    0  501  502  0.00000000000E+00  0.00000000000E+00  0.35008101010E+03  0.35008101010E+03  0.00000000000E+00 0.  1.
         21   -1    0    0  502  503 -0.00000000000E+00 -0.00000000000E+00 -0.82536434939E+03  0.82536434939E+03  0.00000000000E+00 0. -1.
         -6    2    1    2    0  503 -0.20708963395E+03  0.15515874206E+03 -0.71653051603E+03  0.78129770288E+03  0.17334869023E+03 0.  0.
        -24    2    3    3    0    0 -0.31767684623E+02  0.69399366881E+02 -0.19089823694E+03  0.22058044867E+03  0.79925837886E+02 0.  0.
          6    2    1    2  501    0  0.20708963395E+03 -0.15515874206E+03  0.24124717673E+03  0.39414765661E+03  0.17375794429E+03 0.  0.
         24    2    5    5    0    0  0.13942557349E+03 -0.32081666083E+02  0.17219048928E+03  0.23756762024E+03  0.79498966946E+02 0.  0.
          5    1    5    5  501    0  0.67664060454E+02 -0.12307707598E+03  0.69056687451E+02  0.15658003637E+03  0.47000000000E+01 0. -1.
        -13    1    6    6    0    0  0.46124549671E+02  0.17258233090E+02  0.21847142877E+02  0.53875953297E+02  0.00000000000E+00 0.  1.
         14    1    6    6    0    0  0.93301023822E+02 -0.49339899173E+02  0.15034334640E+03  0.18369166694E+03  0.00000000000E+00 0. -1.
         -5    1    3    3    0  503 -0.17532194932E+03  0.85759375177E+02 -0.52563227909E+03  0.56071725421E+03  0.47000000000E+01 0.  1.
         11    1    4    4    0    0 -0.23033945466E+02  0.67693706808E+02 -0.19714233250E+03  0.20970956070E+03  0.00000000000E+00 0. -1.
        -12    1    4    4    0    0 -0.87337391570E+01  0.17056600734E+01  0.62440955633E+01  0.10870887974E+02  0.00000000000E+00 0.  1.
</event>
<event>
12    1  0.8358445E-002  0.1777851E+03  0.7818608E-02  0.1169965E+00
         21   -1    0    0  501  502  0.00000000000E+00  0.00000000000E+00  0.32509831271E+03  0.32509831271E+03  0.00000000000E+00 0. -1.
         21   -1    0    0  502  503 -0.00000000000E+00 -0.00000000000E+00 -0.13224454686E+03  0.13224454686E+03  0.00000000000E+00 0. -1.
         -6    2    1    2    0  503  0.38283229023E+01  0.44144529718E+02 -0.21252850364E+02  0.17904595169E+03  0.17216960710E+03 0.  0.
        -24    2    3    3    0    0 -0.27303771669E+02  0.66706399571E+02  0.32589423717E+02  0.11271853834E+03  0.80300427495E+02 0.  0.
          6    2    1    2  501    0 -0.38283229023E+01 -0.44144529718E+02  0.21410661621E+03  0.27829690788E+03  0.17217470856E+03 0.  0.
         24    2    5    5    0    0 -0.43208298417E+02 -0.92752561145E+01  0.40290040798E+02  0.96635297729E+02  0.75908536750E+02 0.  0.
          5    1    5    5  501    0  0.39379975515E+02 -0.34869273604E+02  0.17381657541E+03  0.18166161015E+03  0.47000000000E+01 0. -1.
        -11    1    6    6    0    0 -0.39141368978E+02  0.14200429956E+02  0.54735629620E+02  0.68772728071E+02  0.00000000000E+00 0.  1.
         12    1    6    6    0    0 -0.40669294396E+01 -0.23475686070E+02 -0.14445588822E+02  0.27862569658E+02  0.00000000000E+00 0. -1.
         -5    1    3    3    0  503  0.31132094572E+02 -0.22561869852E+02 -0.53842274081E+02  0.66327413351E+02  0.47000000000E+01 0.  1.
         13    1    4    4    0    0 -0.16720670245E+02  0.17703366330E+02 -0.25990073139E+02  0.35615641152E+02  0.00000000000E+00 0. -1.
        -14    1    4    4    0    0 -0.10583101424E+02  0.49003033240E+02  0.58579496857E+02  0.77102897186E+02  0.00000000000E+00 0.  1.
</event>
<event>
12    1  0.8358445E-002  0.1995461E+03  0.7818608E-02  0.1150319E+00
         21   -1    0    0  501  502  0.00000000000E+00  0.00000000000E+00  0.36020397299E+03  0.36020397299E+03  0.00000000000E+00 0.  1.
         21   -1    0    0  502  503 -0.00000000000E+00 -0.00000000000E+00 -0.15286384843E+03  0.15286384843E+03  0.00000000000E+00 0. -1.
         -6    2    1    2    0  503 -0.22370669538E+02 -0.10032396865E+03 -0.32296537645E+02  0.20122754356E+03  0.16995326534E+03 0.  0.
        -24    2    3    3    0    0  0.14668504083E+02 -0.89924713081E+01  0.26888362217E+02  0.86169796484E+02  0.80038867128E+02 0.  0.
          6    2    1    2  501    0  0.22370669538E+02  0.10032396865E+03  0.23963666221E+03  0.31184027787E+03  0.17103591286E+03 0.  0.
         24    2    5    5    0    0 -0.38398254134E+02  0.92910741548E+02  0.20033796020E+03  0.23894105977E+03  0.82768955120E+02 0.  0.
          5    1    5    5  501    0  0.60768923672E+02  0.74132271061E+01  0.39298702005E+02  0.72899218100E+02  0.47000000000E+01 0. -1.
        -13    1    6    6    0    0 -0.32205710981E+02  0.72529706623E+02  0.20253458069E+03  0.21752706162E+03  0.00000000000E+00 0.  1.
         14    1    6    6    0    0 -0.61925431529E+01  0.20381034925E+02 -0.21966204861E+01  0.21413998152E+02  0.00000000000E+00 0. -1.
         -5    1    3    3    0  503 -0.37039173621E+02 -0.91331497346E+02 -0.59184899862E+02  0.11505774707E+03  0.47000000000E+01 0.  1.
         11    1    4    4    0    0 -0.16602561472E+02  0.18707132720E+02 -0.13191305860E+02  0.28277418770E+02  0.00000000000E+00 0. -1.
        -12    1    4    4    0    0  0.31271065554E+02 -0.27699604028E+02  0.40079668077E+02  0.57892377714E+02  0.00000000000E+00 0.  1.
</event>
<event>
12    1  0.8358445E-002  0.1886009E+03  0.7818608E-02  0.1161130E+00
         21   -1    0    0  501  502  0.00000000000E+00  0.00000000000E+00  0.11205070039E+04  0.11205070039E+04  0.00000000000E+00 0.  1.
         21   -1    0    0  502  503 -0.00000000000E+00 -0.00000000000E+00 -0.35341326980E+02  0.35341326980E+02  0.00000000000E+00 0.  1.
         -6    2    1    2    0  503 -0.70986485596E+02 -0.22087163626E+02  0.32628052955E+03  0.37387840206E+03  0.16673077589E+03 0.  0.
        -24    2    3    3    0    0 -0.87260036321E+02  0.33869080451E+02  0.23470291169E+03  0.26522997916E+03  0.80622928154E+02 0.  0.
          6    2    1    2  501    0  0.70986485596E+02  0.22087163626E+02  0.75888514736E+03  0.78196992881E+03  0.17333025917E+03 0.  0.
         24    2    5    5    0    0  0.10589188914E+03  0.22134204824E+02  0.40246217553E+03  0.42381100563E+03  0.77051609637E+02 0.  0.
          5    1    5    5  501    0 -0.34905403540E+02 -0.47041198190E-01  0.35642297182E+03  0.35815892318E+03  0.47000000000E+01 0. -1.
        -13    1    6    6    0    0  0.37052408625E+02 -0.22055596195E+02  0.21494957493E+03  0.21923195495E+03  0.00000000000E+00 0.  1.
         14    1    6    6    0    0  0.68839480510E+02  0.44189801020E+02  0.18751260061E+03  0.20457905068E+03  0.00000000000E+00 0. -1.
         -5    1    3    3    0  503  0.16273550725E+02 -0.55956244077E+02  0.91577617866E+02  0.10864842290E+03  0.47000000000E+01 0.  1.
         11    1    4    4    0    0 -0.68181482442E+02  0.47349120360E+02  0.22519807275E+03  0.24001005337E+03  0.00000000000E+00 0. -1.
        -12    1    4    4    0    0 -0.19078553879E+02 -0.13480039909E+02  0.95048389378E+01  0.25219925799E+02  0.00000000000E+00 0.  1.
</event>
<event>
12    1  0.8358445E-002  0.1834906E+03  0.7818608E-02  0.1165368E+00
         21   -1    0    0  501  502  0.00000000000E+00  0.00000000000E+00  0.22738780492E+03  0.22738780492E+03  0.00000000000E+00 0. -1.
         21   -1    0    0  502  503 -0.00000000000E+00 -0.00000000000E+00 -0.16750755578E+03  0.16750755578E+03  0.00000000000E+00 0. -1.
         -6    2    1    2    0  503 -0.67536351987E+02  0.23527324175E+02 -0.42104748527E+02  0.18825942594E+03  0.16897960760E+03 0.  0.
        -24    2    3    3    0    0 -0.33323295488E+02 -0.50278906885E+02 -0.33553832863E+02  0.10632590937E+03  0.80876008833E+02 0.  0.
          6    2    1    2  501    0  0.67536351987E+02 -0.23527324175E+02  0.10198499767E+03  0.20663593477E+03  0.16487199873E+03 0.  0.
         24    2    5    5    0    0  0.60456947733E+02  0.59596390678E+01 -0.75127086028E+00  0.99414529083E+02  0.78690052471E+02 0.  0.
          5    1    5    5  501    0  0.70794042537E+01 -0.29486963243E+02  0.10273626853E+03  0.10722140568E+03  0.47000000000E+01 0. -1.
        -13    1    6    6    0    0  0.30714320206E+02 -0.35761998106E+02  0.67796087669E+01  0.47626180503E+02  0.00000000000E+00 0.  1.
         14    1    6    6    0    0  0.29742627527E+02  0.41721637174E+02 -0.75308796272E+01  0.51788348580E+02  0.00000000000E+00 0. -1.
         -5    1    3    3    0  503 -0.34213056499E+02  0.73806231060E+02 -0.85509156640E+01  0.81933516567E+02  0.47000000000E+01 0.  1.
         11    1    4    4    0    0 -0.55745388119E+02 -0.45792913237E+02 -0.88822670610E+01  0.72687233180E+02  0.00000000000E+00 0. -1.
        -12    1    4    4    0    0  0.22422092631E+02 -0.44859936477E+01 -0.24671565802E+02  0.33638676194E+02  0.00000000000E+00 0.  1.
</event>
<event>
12    1  0.8358445E-002  0.1997178E+03  0.7818608E-02  0.1150940E+00
         21   -1    0    0  503  502  0.00000000000E+00  0.00000000000E+00  0.10443615161E+03  0.10443615161E+03  0.00000000000E+00 0. -1.
         21   -1    0    0  501  503 -0.00000000000E+00 -0.00000000000E+00 -0.48513007221E+03  0.48513007221E+03  0.00000000000E+00 0. -1.
          6    2    1    2  501    0  0.98643794051E+02  0.37797009747E+02 -0.33015538511E+03  0.38355325781E+03  0.16416854512E+03 0.  0.
         24    2    3    3    0    0  0.74979226181E+02  0.86969177631E+02 -0.25761555557E+03  0.29265754429E+03  0.78084195193E+02 0.  0.
         -6    2    1    2    0  502 -0.98643794051E+02 -0.37797009747E+02 -0.50538535490E+02  0.20601296601E+03  0.16949332301E+03 0.  0.
        -24    2    5    5    0    0 -0.59279289418E+02 -0.54488107694E+02 -0.92511261336E+02  0.14591340952E+03  0.79053156607E+02 0.  0.
          5    1    3    3  501    0  0.23664567869E+02 -0.49172167884E+02 -0.72539829540E+02  0.90895713521E+02  0.47000000000E+01 0. -1.
        -11    1    4    4    0    0  0.28576524890E+02  0.85637143692E+02 -0.14445802785E+03  0.17034805536E+03  0.00000000000E+00 0.  1.
         12    1    4    4    0    0  0.46402701291E+02  0.13320339391E+01 -0.11315752772E+03  0.12230948893E+03  0.00000000000E+00 0. -1.
         -5    1    5    5    0  502 -0.39364504632E+02  0.16691097946E+02  0.41972725846E+02  0.60099556492E+02  0.47000000000E+01 0.  1.
         11    1    6    6    0    0 -0.30950974238E+02 -0.21075922807E+02  0.61664354854E+01  0.37949733267E+02  0.00000000000E+00 0. -1.
        -12    1    6    6    0    0 -0.28328315180E+02 -0.33412184886E+02 -0.98677696821E+02  0.10796367625E+03  0.00000000000E+00 0.  1.
</event>
<event>
12    1  0.8358445E-002  0.1787233E+03  0.7818608E-02  0.1169244E+00
         21   -1    0    0  503  502  0.00000000000E+00  0.00000000000E+00  0.66826163294E+03  0.66826163294E+03  0.00000000000E+00 0.  1.
         21   -1    0    0  501  503 -0.00000000000E+00 -0.00000000000E+00 -0.11912710075E+03  0.11912710075E+03  0.00000000000E+00 0.  1.
          6    2    1    2  501    0  0.43141837852E+02 -0.32275513600E+01 -0.30285244946E+02  0.18127115354E+03  0.17340818834E+03 0.  0.
         24    2    3    3    0    0  0.24471247322E+02 -0.68420694468E+02 -0.32774032306E+02  0.11324894451E+03  0.80442233069E+02 0.  0.
         -6    2    1    2    0  502 -0.43141837852E+02  0.32275513600E+01  0.57941977714E+03  0.60611758016E+03  0.17256768985E+03 0.  0.
        -24    2    5    5    0    0  0.35193344418E+02 -0.12189769125E+02  0.20001831857E+03  0.21837842646E+03  0.79338814055E+02 0.  0.
          5    1    3    3  501    0  0.18670590530E+02  0.65193143108E+02  0.24887873599E+01  0.68022209032E+02  0.47000000000E+01 0. -1.
        -13    1    4    4    0    0  0.53366652428E+02 -0.33220725417E+02 -0.19030922211E+02  0.65679465503E+02  0.00000000000E+00 0.  1.
         14    1    4    4    0    0 -0.28895405106E+02 -0.35199969052E+02 -0.13743110095E+02  0.47569479003E+02  0.00000000000E+00 0. -1.
         -5    1    5    5    0  502 -0.78335182270E+02  0.15417320485E+02  0.37940145857E+03  0.38773915370E+03  0.47000000000E+01 0.  1.
         13    1    6    6    0    0  0.31210764178E+02 -0.43523818037E+02  0.99288304673E+02  0.11281224216E+03  0.00000000000E+00 0. -1.
        -14    1    6    6    0    0  0.39825802399E+01  0.31334048913E+02  0.10073001390E+03  0.10556618429E+03  0.00000000000E+00 0.  1.
</event>
<event>
12    1  0.8358445E-002  0.1781695E+03  0.7818608E-02  0.1169633E+00
         21   -1    0    0  501  502  0.00000000000E+00  0.00000000000E+00  0.50213560367E+02  0.50213560367E+02  0.00000000000E+00 0.  1.
         21   -1    0    0  502  503 -0.00000000000E+00 -0.00000000000E+00 -0.13004749544E+04  0.13004749544E+04  0.00000000000E+00 0.  1.
         -6    2    1    2    0  503 -0.39750475211E+02 -0.14473359084E+02 -0.11093362251E+04  0.11235227982E+04  0.17287868358E+03 0.  0.
        -24    2    3    3    0    0 -0.86103924383E+02  0.27500592652E+02 -0.71510433633E+03  0.72433446290E+03  0.71526456065E+02 0.  0.
          6    2    1    2  501    0  0.39750475211E+02  0.14473359084E+02 -0.14092516893E+03  0.22716571661E+03  0.17307449600E+03 0.  0.
         24    2    5    5    0    0  0.41272201941E+02  0.74753192815E+02 -0.82126962540E+02  0.14281351995E+03  0.79746028218E+02 0.  0.
          5    1    5    5  501    0 -0.15217267306E+01 -0.60279833731E+02 -0.58798206388E+02  0.84352196660E+02  0.47000000000E+01 0. -1.
        -11    1    6    6    0    0 -0.16555021546E+02  0.26749392381E+02  0.41875104939E-01  0.31457916089E+02  0.00000000000E+00 0.  1.
         12    1    6    6    0    0  0.57827223487E+02  0.48003800434E+02 -0.82168837645E+02  0.11135560387E+03  0.00000000000E+00 0. -1.
         -5    1    3    3    0  503  0.46353449173E+02 -0.41973951736E+02 -0.39423188882E+03  0.39918833529E+03  0.47000000000E+01 0.  1.
         11    1    4    4    0    0 -0.30195296224E+02  0.26422065006E+02 -0.11836055188E+03  0.12497640447E+03  0.00000000000E+00 0. -1.
        -12    1    4    4    0    0 -0.55908628159E+02  0.10785276468E+01 -0.59674378445E+03  0.59935805843E+03  0.00000000000E+00 0.  1.
</event>
<event>
12    1  0.8358445E-002  0.1988840E+03  0.7818608E-02  0.1151714E+00
         21   -1    0    0  501  502  0.00000000000E+00  0.00000000000E+00  0.65283419697E+03  0.65283419697E+03  0.00000000000E+00 0. -1.
         21   -1    0    0  502  503 -0.00000000000E+00 -0.00000000000E+00 -0.14797530855E+03  0.14797530855E+03  0.00000000000E+00 0. -1.
         -6    2    1    2    0  503 -0.58510851030E+01 -0.90770111626E+02 -0.59028755720E+02  0.20287629185E+03  0.17146704475E+03 0.  0.
        -24    2    3    3    0    0  0.45893881145E+02 -0.36542283096E+02  0.13595205428E+02  0.98403670313E+02  0.77825869350E+02 0.  0.
          6    2    1    2  501    0  0.58510851030E+01  0.90770111626E+02  0.56388764415E+03  0.59793321367E+03  0.17686549811E+03 0.  0.
         24    2    5    5    0    0  0.17587096939E+02  0.64151295564E+01  0.11839633689E+03  0.14434960306E+03  0.80427951903E+02 0.  0.
          5    1    5    5  501    0 -0.11736011836E+02  0.84354982069E+02  0.44549130725E+03  0.45358361061E+03  0.47000000000E+01 0. -1.
        -13    1    6    6    0    0 -0.30489544048E+02  0.13971932204E+02  0.41669420240E+02  0.53489884734E+02  0.00000000000E+00 0.  1.
         14    1    6    6    0    0  0.48076640986E+02 -0.75568026475E+01  0.76726916654E+02  0.90859718324E+02  0.00000000000E+00 0. -1.
         -5    1    3    3    0  503 -0.51744966248E+02 -0.54227828530E+02 -0.72623961148E+02  0.10447262154E+03  0.47000000000E+01 0.  1.
         13    1    4    4    0    0  0.16110746659E+02 -0.12568817323E+02 -0.32578032423E+02  0.38455942627E+02  0.00000000000E+00 0. -1.
        -14    1    4    4    0    0  0.29783134486E+02 -0.23973465773E+02  0.46173237852E+02  0.59947727686E+02  0.00000000000E+00 0.  1.
</event>
<event>
12    1  0.8358445E-002  0.1812541E+03  0.7818608E-02  0.1167479E+00
         21   -1    0    0  503  502  0.00000000000E+00  0.00000000000E+00  0.97629366500E+03  0.97629366500E+03  0.00000000000E+00 0. -1.
         21   -1    0    0  501  503 -0.00000000000E+00 -0.00000000000E+00 -0.33511152731E+02  0.33511152731E+02  0.00000000000E+00 0. -1.
          6    2    1    2  501    0 -0.51293900526E+02  0.27830996229E+02  0.53986368135E+03  0.56947858639E+03  0.17160255632E+03 0.  0.
         24    2    3    3    0    0 -0.23873149719E+02 -0.43717905611E+02  0.38791402837E+03  0.39923778644E+03  0.80201833908E+02 0.  0.
         -6    2    1    2    0  502  0.51293900526E+02 -0.27830996229E+02  0.40291883093E+03  0.44032623135E+03  0.16774378413E+03 0.  0.
        -24    2    5    5    0    0  0.38064254266E+02 -0.89375546972E+01  0.93638277554E+02  0.13015122209E+03  0.81501203987E+02 0.  0.
          5    1    3    3  501    0 -0.27420750807E+02  0.71548901840E+02  0.15194965297E+03  0.17024079995E+03  0.47000000000E+01 0. -1.
        -13    1    4    4    0    0 -0.30198150121E+02 -0.41593869577E+02  0.11187138223E+03  0.12311451750E+03  0.00000000000E+00 0.  1.
         14    1    4    4    0    0  0.63250004014E+01 -0.21240360338E+01  0.27604264614E+03  0.27612326894E+03  0.00000000000E+00 0. -1.
         -5    1    5    5    0  502  0.13229646260E+02 -0.18893441532E+02  0.30928055337E+03  0.31017500926E+03  0.47000000000E+01 0.  1.
         13    1    6    6    0    0  0.59845395841E+02 -0.19788171618E+02  0.51095440926E+02  0.81140539946E+02  0.00000000000E+00 0. -1.
        -14    1    6    6    0    0 -0.21781141574E+02  0.10850616921E+02  0.42542836627E+02  0.49010682143E+02  0.00000000000E+00 0.  1.
</event>
<event>
12    1  0.8358445E-002  0.1814751E+03  0.7818608E-02  0.1166699E+00
         21   -1    0    0  503  502  0.00000000000E+00  0.00000000000E+00  0.48930517977E+03  0.48930517977E+03  0.00000000000E+00 0.  1.
         21   -1    0    0  501  503 -0.00000000000E+00 -0.00000000000E+00 -0.89008656206E+02  0.89008656206E+02  0.00000000000E+00 0.  1.
          6    2    1    2  501    0 -0.48426758203E+02 -0.29401810146E+02  0.34397707874E+03  0.38830043220E+03  0.17101864694E+03 0.  0.
         24    2    3    3    0    0 -0.81919244153E+02  0.25032083128E+02  0.21485167123E+03  0.24414684669E+03  0.78160567862E+02 0.  0.
         -6    2    1    2    0  502  0.48426758203E+02  0.29401810146E+02  0.56319444823E+02  0.19001340377E+03  0.17240532590E+03 0.  0.
        -24    2    5    5    0    0  0.21360556309E+01 -0.27576479972E+02  0.75757176614E+02  0.11392615053E+03  0.80467341105E+02 0.  0.
          5    1    3    3  501    0  0.33492485950E+02 -0.54433893274E+02  0.12912540751E+03  0.14415358552E+03  0.47000000000E+01 0. -1.
        -11    1    4    4    0    0 -0.53609223619E+02  0.10287040258E+02  0.20281562899E+03  0.21003321503E+03  0.00000000000E+00 0.  1.
         12    1    4    4    0    0 -0.28310020535E+02  0.14745042871E+02  0.12036042241E+02  0.34113631656E+02  0.00000000000E+00 0. -1.
         -5    1    5    5    0  502  0.46290702572E+02  0.56978290118E+02 -0.19437731791E+02  0.76087253246E+02  0.47000000000E+01 0.  1.
         11    1    6    6    0    0  0.29609225848E+02  0.14486842256E+02  0.42031945521E+02  0.53415908661E+02  0.00000000000E+00 0. -1.
        -12    1    6    6    0    0 -0.27473170217E+02 -0.42063322228E+02  0.33725231093E+02  0.60510241867E+02  0.00000000000E+00 0.  1.
</event>
<event>
12    1  0.8358445E-002  0.1725612E+03  0.7818608E-02  0.1175441E+00
         21   -1    0    0  503  502  0.00000000000E+00  0.00000000000E+00  0.11485003356E+03  0.11485003356E+03  0.00000000000E+00 0. -1.
         21   -1    0    0  501  503 -0.00000000000E+00 -0.00000000000E+00 -0.82003723717E+03  0.82003723717E+03  0.00000000000E+00 0. -1.
          6    2    1    2  501    0 -0.23852245147E+01  0.10826275731E+02 -0.73932130449E+03  0.75898243535E+03  0.17127594214E+03 0.  0.
         24    2    3    3    0    0  0.34568204190E-01 -0.60224952226E+02 -0.46541491669E+03  0.47596135545E+03  0.79379601519E+02 0.  0.
         -6    2    1    2    0  502  0.23852245147E+01 -0.10826275731E+02  0.34134100880E+02  0.17590483538E+03  0.17220475233E+03 0.  0.
        -24    2    5    5    0    0  0.49893701843E+01  0.43159036528E+02  0.66456650426E+02  0.11275396268E+03  0.80058562718E+02 0.  0.
          5    1    3    3  501    0 -0.24197927189E+01  0.71051227957E+02 -0.27390638779E+03  0.28302107989E+03  0.47000000000E+01 0. -1.
        -13    1    4    4    0    0 -0.15345751361E+02 -0.62491675548E+02 -0.20011588462E+03  0.21020720462E+03  0.00000000000E+00 0.  1.
         14    1    4    4    0    0  0.15380319565E+02  0.22667233218E+01 -0.26529903207E+03  0.26575415083E+03  0.00000000000E+00 0. -1.
         -5    1    5    5    0  502 -0.26041456695E+01 -0.53985312259E+02 -0.32322549546E+02  0.63150872707E+02  0.47000000000E+01 0.  1.
         13    1    6    6    0    0  0.31743431585E+02  0.28218000006E+02  0.70029975331E+02  0.81902981741E+02  0.00000000000E+00 0. -1.
        -14    1    6    6    0    0 -0.26754061401E+02  0.14941036522E+02 -0.35733249052E+01  0.30850980935E+02  0.00000000000E+00 0.  1.
</event>
<event>
12    1  0.8358445E-002  0.2795599E+03  0.7818608E-02  0.1096658E+00
         21   -1    0    0  503  502  0.00000000000E+00  0.00000000000E+00  0.17484021096E+03  0.17484021096E+03  0.00000000000E+00 0. -1.
         21   -1    0    0  501  503 -0.00000000000E+00 -0.00000000000E+00 -0.48491066608E+03  0.48491066608E+03  0.00000000000E+00 0. -1.
          6    2    1    2  501    0 -0.14191163742E+03 -0.15917955521E+03 -0.25562037799E+03  0.37493772139E+03  0.17250934365E+03 0.  0.
         24    2    3    3    0    0 -0.90150420905E+02 -0.53961222938E+02 -0.21198816895E+03  0.24973396487E+03  0.79932205436E+02 0.  0.
         -6    2    1    2    0  502  0.14191163742E+03  0.15917955521E+03 -0.54450077126E+02  0.28481315564E+03  0.18076691925E+03 0.  0.
        -24    2    5    5    0    0  0.74132337952E+02  0.17749437737E+03 -0.41015482268E+02  0.21317486640E+03  0.82227710353E+02 0.  0.
          5    1    3    3  501    0 -0.51761216512E+02 -0.10521833227E+03 -0.43632209046E+02  0.12520375652E+03  0.47000000000E+01 0. -1.
        -13    1    4    4    0    0 -0.40304610188E+02 -0.60948250738E+02 -0.16675806946E+03  0.18206428700E+03  0.00000000000E+00 0.  1.
         14    1    4    4    0    0 -0.49845810717E+02  0.69870278006E+01 -0.45230099486E+02  0.67669677871E+02  0.00000000000E+00 0. -1.
         -5    1    5    5    0  502  0.67779299465E+02 -0.18314822157E+02 -0.13434594859E+02  0.71638289243E+02  0.47000000000E+01 0.  1.
         11    1    6    6    0    0  0.49894715964E+02  0.45881184035E+02  0.12714305369E+02  0.68965348477E+02  0.00000000000E+00 0. -1.
        -12    1    6    6    0    0  0.24237621988E+02  0.13161319333E+03 -0.53729787636E+02  0.14420951792E+03  0.00000000000E+00 0.  1.
</event>
<event>
12    1  0.8358445E-002  0.1878767E+03  0.7818608E-02  0.1162031E+00
         21   -1    0    0  501  502  0.00000000000E+00  0.00000000000E+00  0.22902748863E+03  0.22902748863E+03  0.00000000000E+00 0. -1.
         21   -1    0    0  502  503 -0.00000000000E+00 -0.00000000000E+00 -0.12118015434E+04  0.12118015434E+04  0.00000000000E+00 0. -1.
         -6    2    1    2    0  503  0.46278366628E+02 -0.30212494301E+02 -0.11673780180E+04  0.11823997132E+04  0.17956381249E+03 0.  0.
        -24    2    3    3    0    0  0.54500776745E+01 -0.79332746833E+02 -0.92183355443E+03  0.92864013803E+03  0.79196059275E+02 0.  0.
          6    2    1    2  501    0 -0.46278366628E+02  0.30212494301E+02  0.18460396320E+03  0.25842931889E+03  0.17219932521E+03 0.  0.
         24    2    5    5    0    0 -0.28063785132E+02 -0.48697357544E+02  0.99870118648E+02  0.14112437394E+03  0.82359211097E+02 0.  0.
          5    1    5    5  501    0 -0.18214581497E+02  0.78909851845E+02  0.84733844551E+02  0.11730494495E+03  0.47000000000E+01 0. -1.
        -11    1    6    6    0    0 -0.52117873661E+02 -0.88117320818E+01  0.58296149196E+02  0.78691552204E+02  0.00000000000E+00 0.  1.
         12    1    6    6    0    0  0.24054088529E+02 -0.39885625462E+02  0.41573969453E+02  0.62432821733E+02  0.00000000000E+00 0. -1.
         -5    1    3    3    0  503  0.40828288954E+02  0.49120252532E+02 -0.24554446358E+03  0.25375957515E+03  0.47000000000E+01 0.  1.
         11    1    4    4    0    0 -0.18801724700E+02 -0.14164067362E+02 -0.54091385014E+03  0.54142582034E+03  0.00000000000E+00 0. -1.
        -12    1    4    4    0    0  0.24251802374E+02 -0.65168679471E+02 -0.38091970430E+03  0.38721431769E+03  0.00000000000E+00 0.  1.
</event>
<event>
12    1  0.8358445E-002  0.1880629E+03  0.7818608E-02  0.1160850E+00
         21   -1    0    0  503  502  0.00000000000E+00  0.00000000000E+00  0.65861827074E+03  0.65861827074E+03  0.00000000000E+00 0. -1.
         21   -1    0    0  501  503 -0.00000000000E+00 -0.00000000000E+00 -0.44224344224E+03  0.44224344224E+03  0.00000000000E+00 0. -1.
          6    2    1    2  501    0 -0.75985061641E+02  0.11225791202E+02 -0.40816355706E+03  0.44940531401E+03  0.17166216522E+03 0.  0.
         24    2    3    3    0    0 -0.51280310567E+02  0.14006382391E+02 -0.94923367321E+02  0.13514497149E+03  0.80173989895E+02 0.  0.
         -6    2    1    2    0  502  0.75985061641E+02 -0.11225791202E+02  0.62453838556E+03  0.65145639897E+03  0.16866385727E+03 0.  0.
        -24    2    5    5    0    0  0.28812192151E+02  0.27385439850E+02  0.18495936120E+03  0.20764572376E+03  0.85596007898E+02 0.  0.
          5    1    3    3  501    0 -0.24704751074E+02 -0.27805911890E+01 -0.31324018973E+03  0.31426034252E+03  0.47000000000E+01 0. -1.
        -13    1    4    4    0    0 -0.43992357342E+02  0.33521661382E+02 -0.99479430039E+02  0.11382085172E+03  0.00000000000E+00 0.  1.
         14    1    4    4    0    0 -0.72879532251E+01 -0.19515278990E+02  0.45560627176E+01  0.21324119765E+02  0.00000000000E+00 0. -1.
         -5    1    5    5    0  502  0.47172869490E+02 -0.38611231053E+02  0.43957902436E+03  0.44381067521E+03  0.47000000000E+01 0.  1.
         11    1    6    6    0    0 -0.26288629689E+01  0.14453498712E+02  0.16977964539E+03  0.17041403268E+03  0.00000000000E+00 0. -1.
        -12    1    6    6    0    0  0.31441055120E+02  0.12931941138E+02  0.15179715811E+02  0.37231691081E+02  0.00000000000E+00 0.  1.
</event>
<event>
12    1  0.8358445E-002  0.1739147E+03  0.7818608E-02  0.1174415E+00
         21   -1    0    0  501  502  0.00000000000E+00  0.00000000000E+00  0.83434201093E+03  0.83434201093E+03  0.00000000000E+00 0.  1.
         21   -1    0    0  502  503 -0.00000000000E+00 -0.00000000000E+00 -0.62309147753E+02  0.62309147753E+02  0.00000000000E+00 0.  1.
         -6    2    1    2    0  503  0.15694077632E+02  0.14397362440E+02  0.94919050269E+02  0.19813114436E+03  0.17260572453E+03 0.  0.
        -24    2    3    3    0    0 -0.51054574878E+02 -0.18446983694E+02  0.49135696445E+02  0.11065349480E+03  0.82963958577E+02 0.  0.
          6    2    1    2  501    0 -0.15694077632E+02 -0.14397362440E+02  0.67711381291E+03  0.69852001433E+03  0.17027479751E+03 0.  0.
         24    2    5    5    0    0 -0.59543980019E+02  0.27913455262E+02  0.51159324997E+03  0.52207691871E+03  0.80697020382E+02 0.  0.
          5    1    5    5  501    0  0.43849902387E+02 -0.42310817702E+02  0.16552056294E+03  0.17644309562E+03  0.47000000000E+01 0. -1.
        -13    1    6    6    0    0 -0.29443539855E+02  0.55533025963E+02  0.28755023247E+03  0.29433989740E+03  0.00000000000E+00 0.  1.
         14    1    6    6    0    0 -0.30100440164E+02 -0.27619570700E+02  0.22404301750E+03  0.22773702131E+03  0.00000000000E+00 0. -1.
         -5    1    3    3    0  503  0.66748652509E+02  0.32844346134E+02  0.45783353824E+02  0.87477649558E+02  0.47000000000E+01 0.  1.
         13    1    4    4    0    0 -0.44887167319E+02  0.26022596204E+02  0.38242649062E+02  0.64455670894E+02  0.00000000000E+00 0. -1.
        -14    1    4    4    0    0 -0.61674075586E+01 -0.44469579898E+02  0.10893047383E+02  0.46197823905E+02  0.00000000000E+00 0.  1.
</event>
<event>
12    1  0.8358445E-002  0.2288509E+03  0.7818608E-02  0.1127558E+00
         21   -1    0    0  503  502  0.00000000000E+00  0.00000000000E+00  0.21807827444E+04  0.21807827444E+04  0.00000000000E+00 0.  1.
         21   -1    0    0  501  503 -0.00000000000E+00 -0.00000000000E+00 -0.38586195538E+02  0.38586195538E+02  0.00000000000E+00 0.  1.
          6    2    1    2  501    0 -0.10871933003E+02 -0.15094844627E+03  0.17536041299E+04  0.17683957738E+04  0.17085823432E+03 0.  0.
         24    2    3    3    0    0 -0.37329468069E+01 -0.17713908659E+03  0.13714619354E+04  0.13852617743E+04  0.81548466121E+02 0.  0.
         -6    2    1    2    0  502  0.10871933003E+02  0.15094844627E+03  0.38859241898E+03  0.45097316610E+03  0.17166565205E+03 0.  0.
        -24    2    5    5    0    0 -0.51521524822E+02  0.69028537253E+02  0.15857292241E+03  0.19891191586E+03  0.83673006827E+02 0.  0.
          5    1    3    3  501    0 -0.71389861962E+01  0.26190640313E+02  0.38214219451E+03  0.38313399952E+03  0.47000000000E+01 0. -1.
        -11    1    4    4    0    0 -0.20513996748E+02 -0.11754918775E+03  0.62865182032E+03  0.63987635274E+03  0.00000000000E+00 0.  1.
         12    1    4    4    0    0  0.16781049941E+02 -0.59589898838E+02  0.74281011504E+03  0.74538542157E+03  0.00000000000E+00 0. -1.
         -5    1    5    5    0  502  0.62393457825E+02  0.81919909020E+02  0.23001949657E+03  0.25206125024E+03  0.47000000000E+01 0.  1.
         13    1    6    6    0    0 -0.40073666579E+01  0.31001032052E+02  0.12613146985E+03  0.12994718413E+03  0.00000000000E+00 0. -1.
        -14    1    6    6    0    0 -0.47514158165E+02  0.38027505201E+02  0.32441452560E+02  0.68964731726E+02  0.00000000000E+00 0.  1.
</event>
<event>
12    1  0.8358445E-002  0.1724128E+03  0.7818608E-02  0.1175414E+00
         21   -1    0    0  501  502  0.00000000000E+00  0.00000000000E+00  0.58805478437E+03  0.58805478437E+03  0.00000000000E+00 0.  1.
         21   -1    0    0  502  503 -0.00000000000E+00 -0.00000000000E+00 -0.62191513926E+02  0.62191513926E+02  0.00000000000E+00 0.  1.
         -6    2    1    2    0  503 -0.11515731352E+02 -0.13114079440E+02  0.12200135356E+03  0.21121199687E+03  0.17152721709E+03 0.  0.
        -24    2    3    3    0    0  0.52147260663E+01 -0.67745102547E+02  0.10960688592E+03  0.15255903685E+03  0.81510723201E+02 0.  0.
          6    2    1    2  501    0  0.11515731352E+02  0.13114079440E+02  0.40386191688E+03  0.43903430142E+03  0.17129529699E+03 0.  0.
         24    2    5    5    0    0 -0.34034265037E+02 -0.51965554954E+02  0.23984373830E+03  0.25673176746E+03  0.67286191176E+02 0.  0.
          5    1    5    5  501    0  0.45549996389E+02  0.65079634394E+02  0.16401817858E+03  0.18230253397E+03  0.47000000000E+01 0. -1.
        -11    1    6    6    0    0  0.14238292387E+02 -0.10359298370E+02  0.15322949168E+02  0.23341739524E+02  0.00000000000E+00 0.  1.
         12    1    6    6    0    0 -0.48272557424E+02 -0.41606256584E+02  0.22452078913E+03  0.23339002793E+03  0.00000000000E+00 0. -1.
         -5    1    3    3    0  503 -0.16730457419E+02  0.54631023106E+02  0.12394467638E+02  0.58652960020E+02  0.47000000000E+01 0.  1.
         11    1    4    4    0    0 -0.27319267052E+02 -0.66080043979E+02  0.88351812282E+02  0.11366159113E+03  0.00000000000E+00 0. -1.
        -12    1    4    4    0    0  0.32533993119E+02 -0.16650585676E+01  0.21255073638E+02  0.38897445721E+02  0.00000000000E+00 0.  1.
</event>
<event>
12    1  0.8358445E-002  0.1942441E+03  0.7818608E-02  0.1154823E+00
         21   -1    0    0  503  502  0.00000000000E+00  0.00000000000E+00  0.55486725123E+03  0.55486725123E+03  0.00000000000E+00 0. -1.
         21   -1    0    0  501  503 -0.00000000000E+00 -0.00000000000E+00 -0.26487041881E+03  0.26487041881E+03  0.00000000000E+00 0.  1.
          6    2    1    2  501    0  0.35137963950E+02 -0.83524863354E+02 -0.20849656420E+03  0.28495889554E+03  0.17181290858E+03 0.  0.
         24    2    3    3    0    0  0.18290567948E+02 -0.91534724855E+02 -0.60940910567E+02  0.13615448178E+03  0.78173509574E+02 0.  0.
         -6    2    1    2    0  502 -0.35137963950E+02  0.83524863354E+02  0.49849339663E+03  0.53477877450E+03  0.17111864851E+03 0.  0.
        -24    2    5    5    0    0 -0.55053609605E+02  0.59056335351E+02  0.48837051853E+03  0.50131380079E+03  0.79317165986E+02 0.  0.
          5    1    3    3  501    0  0.16847396002E+02  0.80098615013E+01 -0.14755565364E+03  0.14880441376E+03  0.47000000000E+01 0. -1.
        -11    1    4    4    0    0  0.37594689945E+02 -0.28775392501E+02 -0.51269367515E+02  0.69784897872E+02  0.00000000000E+00 0.  1.
         12    1    4    4    0    0 -0.19304121997E+02 -0.62759332354E+02 -0.96715430520E+01  0.66369583912E+02  0.00000000000E+00 0. -1.
         -5    1    5    5    0  502  0.19915645655E+02  0.24468528002E+02  0.10122878097E+02  0.33464973710E+02  0.47000000000E+01 0.  1.
         13    1    6    6    0    0 -0.63806437973E+02  0.13617409703E+02  0.32671000666E+03  0.33316080776E+03  0.00000000000E+00 0. -1.
        -14    1    6    6    0    0  0.87528283687E+01  0.45438925648E+02  0.16166051187E+03  0.16815299303E+03  0.00000000000E+00 0.  1.
</event>
<event>
12    1  0.8358445E-002  0.2116321E+03  0.7818608E-02  0.1142106E+00
         21   -1    0    0  503  502  0.00000000000E+00  0.00000000000E+00  0.10386958559E+04  0.10386958559E+04  0.00000000000E+00 0. -1.
         21   -1    0    0  501  503 -0.00000000000E+00 -0.00000000000E+00 -0.54396359482E+02  0.54396359482E+02  0.00000000000E+00 0. -1.
          6    2    1    2  501    0  0.10851942561E+03 -0.16127464781E+00  0.23208430739E+03  0.31408799006E+03  0.18169107854E+03 0.  0.
         24    2    3    3    0    0 -0.17049238127E+02  0.14935147425E+02  0.11408018635E+03  0.14104911045E+03  0.79792402480E+02 0.  0.
         -6    2    1    2    0  502 -0.10851942561E+03  0.16127464781E+00  0.75221518903E+03  0.77900422532E+03  0.17100701950E+03 0.  0.
        -24    2    5    5    0    0 -0.17391784098E+02 -0.29957145507E+01  0.56151199751E+03  0.56757099500E+03  0.80806327459E+02 0.  0.
          5    1    3    3  501    0  0.12556866374E+03 -0.15096422073E+02  0.11800412105E+03  0.17303887961E+03  0.47000000000E+01 0. -1.
        -13    1    4    4    0    0  0.47596171703E+01  0.44459351890E+02  0.49024664031E+02  0.66352886972E+02  0.00000000000E+00 0.  1.
         14    1    4    4    0    0 -0.21808855298E+02 -0.29524204465E+02  0.65055522317E+02  0.74696223483E+02  0.00000000000E+00 0. -1.
         -5    1    5    5    0  502 -0.91127641516E+02  0.31569891986E+01  0.19070319152E+03  0.21143323033E+03  0.47000000000E+01 0.  1.
         11    1    6    6    0    0 -0.48745726597E+02 -0.11708542488E+02  0.33216643692E+03  0.33592823288E+03  0.00000000000E+00 0. -1.
        -12    1    6    6    0    0  0.31353942499E+02  0.87128279373E+01  0.22934556059E+03  0.23164276212E+03  0.00000000000E+00 0.  1.
</event>
<event>
12    1  0.8358445E-002  0.2228213E+03  0.7818608E-02  0.1131835E+00
         21   -1    0    0  503  502  0.00000000000E+00  0.00000000000E+00  0.26793007488E+03  0.26793007488E+03  0.00000000000E+00 0. -1.
         21   -1    0    0  501  503 -0.00000000000E+00 -0.00000000000E+00 -0.18619890403E+03  0.18619890403E+03  0.00000000000E+00 0.  1.
          6    2    1    2  501    0 -0.13514697185E+03 -0.39352433694E+02  0.58048733013E+02  0.23025849297E+03  0.17273100515E+03 0.  0.
         24    2    3    3    0    0  0.21411136551E+01 -0.45340604392E+01  0.18964089575E+02  0.83254966168E+02  0.80911127952E+02 0.  0.
         -6    2    1    2    0  502  0.13514697185E+03  0.39352433694E+02  0.23682437839E+02  0.22387048595E+03  0.17246396313E+03 0.  0.
        -24    2    5    5    0    0  0.32234562127E+01  0.18772571569E+01  0.32933522193E+02  0.86335488958E+02  0.79720041427E+02 0.  0.
          5    1    3    3  501    0 -0.13728808551E+03 -0.34818373255E+02  0.39084643437E+02  0.14700352680E+03  0.47000000000E+01 0. -1.
        -11    1    4    4    0    0  0.40251661019E+01 -0.38672406300E+01 -0.31883342393E+02  0.32368272032E+02  0.00000000000E+00 0.  1.
         12    1    4    4    0    0 -0.18840524468E+01 -0.66681980925E+00  0.50847431968E+02  0.50886694135E+02  0.00000000000E+00 0. -1.
         -5    1    5    5    0  502  0.13192351564E+03  0.37475176537E+02 -0.92510843542E+01  0.13753499699E+03  0.47000000000E+01 0.  1.
         11    1    6    6    0    0 -0.42968956359E+01  0.14074612010E+02  0.56702669455E+02  0.58581146615E+02  0.00000000000E+00 0. -1.
        -12    1    6    6    0    0  0.75203518487E+01 -0.12197354853E+02 -0.23769147262E+02  0.27754342343E+02  0.00000000000E+00 0.  1.
</event>
<event>
12    1  0.8358445E-002  0.1981406E+03  0.7818608E-02  0.1152163E+00
         21   -1    0    0  503  502  0.00000000000E+00  0.00000000000E+00  0.27908558676E+02  0.27908558676E+02  0.00000000000E+00 0.  1.
         21   -1    0    0  501  503 -0.00000000000E+00 -0.00000000000E+00 -0.19730438551E+04  0.19730438551E+04  0.00000000000E+00 0.  1.
          6    2    1    2  501    0 -0.68522938716E+02 -0.66477971314E+02 -0.15282944444E+04  0.15410852030E+04  0.17362309873E+03 0.  0.
         24    2    3    3    0    0 -0.54555616809E+02 -0.11276798890E+03 -0.11937289964E+04  0.12030112750E+04  0.80958485136E+02 0.  0.
         -6    2    1    2    0  502  0.68522938716E+02  0.66477971314E+02 -0.41684085207E+03  0.45986721079E+03  0.16913557227E+03 0.  0.
        -24    2    5    5    0    0  0.89559185143E+02  0.69688107242E+02 -0.41516958741E+03  0.43801059252E+03  0.81303215932E+02 0.  0.
          5    1    3    3  501    0 -0.13967321907E+02  0.46290017584E+02 -0.33456544801E+03  0.33807392803E+03  0.47000000000E+01 0. -1.
        -13    1    4    4    0    0 -0.57085805777E+01 -0.91883712016E+02 -0.61545527547E+03  0.62230249922E+03  0.00000000000E+00 0.  1.
         14    1    4    4    0    0 -0.48847036232E+02 -0.20884276882E+02 -0.57827372089E+03  0.58070877576E+03  0.00000000000E+00 0. -1.
         -5    1    5    5    0  502 -0.21036246427E+02 -0.32101359281E+01 -0.16712646594E+01  0.21856618265E+02  0.47000000000E+01 0.  1.
         11    1    6    6    0    0 -0.67723229171E+01 -0.94601317515E+01 -0.15726182228E+02  0.19561985020E+02  0.00000000000E+00 0. -1.
        -12    1    6    6    0    0  0.96331508060E+02  0.79148238994E+02 -0.39944340518E+03  0.41844860750E+03  0.00000000000E+00 0.  1.
</event>
<event>
12    1  0.8358445E-002  0.2343224E+03  0.7818608E-02  0.1123685E+00
         21   -1    0    0  501  502  0.00000000000E+00  0.00000000000E+00  0.18071489966E+03  0.18071489966E+03  0.00000000000E+00 0.  1.
         21   -1    0    0  502  503 -0.00000000000E+00 -0.00000000000E+00 -0.33530063146E+03  0.33530063146E+03  0.00000000000E+00 0.  1.
         -6    2    1    2    0  503 -0.94969807944E+02  0.12707489605E+03 -0.15685690034E+03  0.28197709263E+03  0.17245202219E+03 0.  0.
        -24    2    3    3    0    0 -0.23702097499E+01  0.41592915759E+01 -0.64064398365E+02  0.10221205201E+03  0.79499300857E+02 0.  0.
          6    2    1    2  501    0  0.94969807944E+02 -0.12707489605E+03  0.22711685448E+01  0.23403843849E+03  0.17205097749E+03 0.  0.
         24    2    5    5    0    0  0.15330778450E+02 -0.10426719357E+03  0.46295433799E+02  0.14010871879E+03  0.79878066247E+02 0.  0.
          5    1    5    5  501    0  0.79639029494E+02 -0.22807702483E+02 -0.44024265254E+02  0.93929719698E+02  0.47000000000E+01 0. -1.
        -11    1    6    6    0    0  0.48310970097E+02 -0.62051960989E+02  0.26132395918E+02  0.82869160794E+02  0.00000000000E+00 0.  1.
         12    1    6    6    0    0 -0.32980191647E+02 -0.42215232578E+02  0.20163037881E+02  0.57239557993E+02  0.00000000000E+00 0. -1.
         -5    1    3    3    0  503 -0.92599598194E+02  0.12291560447E+03 -0.92792501977E+02  0.17976504063E+03  0.47000000000E+01 0.  1.
         13    1    4    4    0    0  0.10253209777E+02 -0.13542974556E+02  0.13474937836E+02  0.21682122134E+02  0.00000000000E+00 0. -1.
        -14    1    4    4    0    0 -0.12623419527E+02  0.17702266132E+02 -0.77539336201E+02  0.80529929872E+02  0.00000000000E+00 0.  1.
</event>
<event>
12    1  0.8358445E-002  0.1749757E+03  0.7818608E-02  0.1173140E+00
         21   -1    0    0  503  502  0.00000000000E+00  0.00000000000E+00  0.31908406189E+03  0.31908406189E+03  0.00000000000E+00 0.  1.
         21   -1    0    0  501  503 -0.00000000000E+00 -0.00000000000E+00 -0.62550449210E+03  0.62550449210E+03  0.00000000000E+00 0.  1.
          6    2    1    2  501    0  0.23763872187E+02  0.21368437019E+02 -0.58821496282E+03  0.61368830717E+03  0.17203245089E+03 0.  0.
         24    2    3    3    0    0  0.22980535516E+02  0.32259075992E+02 -0.59280393070E+03  0.60094592671E+03  0.90281524023E+02 0.  0.
         -6    2    1    2    0  502 -0.23763872187E+02 -0.21368437019E+02  0.28179453261E+03  0.33090024682E+03  0.17048601999E+03 0.  0.
        -24    2    5    5    0    0  0.31102812336E+02  0.11932763824E+02  0.76366786851E+02  0.11562839130E+03  0.80176448873E+02 0.  0.
          5    1    3    3  501    0  0.78333667127E+00 -0.10890638973E+02  0.45889678848E+01  0.12742380462E+02  0.47000000000E+01 0. -1.
        -11    1    4    4    0    0  0.15638798467E+02  0.17993637477E+01 -0.13335851451E+02  0.20631399888E+02  0.00000000000E+00 0.  1.
         12    1    4    4    0    0  0.73417370488E+01  0.30459712244E+02 -0.57946807925E+03  0.58031452682E+03  0.00000000000E+00 0. -1.
         -5    1    5    5    0  502 -0.54866684523E+02 -0.33301200842E+02  0.20542774576E+03  0.21527185551E+03  0.47000000000E+01 0.  1.
         13    1    6    6    0    0 -0.20258477115E+02  0.25069085862E+01 -0.29911318622E+01  0.20630980479E+02  0.00000000000E+00 0. -1.
        -14    1    6    6    0    0  0.51361289451E+02  0.94258552375E+01  0.79357918714E+02  0.94997410826E+02  0.00000000000E+00 0.  1.
</event>
<event>
12    1  0.8358445E-002  0.1800651E+03  0.7818608E-02  0.1168114E+00
         21   -1    0    0  503  502  0.00000000000E+00  0.00000000000E+00  0.32645934689E+02  0.32645934689E+02  0.00000000000E+00 0. -1.
         21   -1    0    0  501  503 -0.00000000000E+00 -0.00000000000E+00 -0.10544750945E+04  0.10544750945E+04  0.00000000000E+00 0. -1.
          6    2    1    2  501    0 -0.43757186364E+02 -0.28759371621E+02 -0.37315016143E+03  0.41432414939E+03  0.17228367588E+03 0.  0.
         24    2    3    3    0    0  0.29629369928E+02 -0.45664044767E+02 -0.13559921445E+03  0.16507749037E+03  0.76813581621E+02 0.  0.
         -6    2    1    2    0  502  0.43757186364E+02  0.28759371621E+02 -0.64867899835E+03  0.67279687978E+03  0.17067338901E+03 0.  0.
        -24    2    5    5    0    0  0.28342752604E+02  0.70969038394E+02 -0.59101787374E+03  0.59954282850E+03  0.65647239720E+02 0.  0.
          5    1    3    3  501    0 -0.73386556292E+02  0.16904673147E+02 -0.23755094699E+03  0.24924665902E+03  0.47000000000E+01 0. -1.
        -13    1    4    4    0    0  0.23287636223E+02 -0.67499704430E+02 -0.10220112840E+03  0.12467395376E+03  0.00000000000E+00 0.  1.
         14    1    4    4    0    0  0.63417337054E+01  0.21835659663E+02 -0.33398086046E+02  0.40403536613E+02  0.00000000000E+00 0. -1.
         -5    1    5    5    0  502  0.15414433760E+02 -0.42209666773E+02 -0.57661124610E+02  0.73254051277E+02  0.47000000000E+01 0.  1.
         13    1    6    6    0    0  0.25440376249E+02  0.52839992894E+02 -0.56299416342E+03  0.56604037456E+03  0.00000000000E+00 0. -1.
        -14    1    6    6    0    0  0.29023763550E+01  0.18129045499E+02 -0.28023710325E+02  0.33502453934E+02  0.00000000000E+00 0.  1.
</event>
<event>
12    1  0.8358445E-002  0.1780277E+03  0.7818608E-02  0.1170340E+00
         21   -1    0    0  501  502  0.00000000000E+00  0.00000000000E+00  0.10296297323E+03  0.10296297323E+03  0.00000000000E+00 0.  1.
         21   -1    0    0  502  503 -0.00000000000E+00 -0.00000000000E+00 -0.33485108686E+03  0.33485108686E+03  0.00000000000E+00 0.  1.
         -6    2    1    2    0  503 -0.34603379485E+02 -0.12824492282E+02 -0.18362207263E+03  0.25575558443E+03  0.17416082205E+03 0.  0.
        -24    2    3    3    0    0 -0.45751596198E+02  0.55943491246E+02 -0.11707647371E+03  0.15929976538E+03  0.80290919688E+02 0.  0.
          6    2    1    2  501    0  0.34603379485E+02  0.12824492282E+02 -0.48266041000E+02  0.18205847565E+03  0.17162114196E+03 0.  0.
         24    2    5    5    0    0 -0.39388648795E+02  0.32018298923E+02 -0.49534049543E+01  0.94073835497E+02  0.79048802550E+02 0.  0.
          5    1    5    5  501    0  0.73992028280E+02 -0.19193806641E+02 -0.43312636045E+02  0.87984640157E+02  0.47000000000E+01 0. -1.
        -13    1    6    6    0    0  0.90053345046E+01  0.34855580005E+02 -0.22575607770E+02  0.42493123835E+02  0.00000000000E+00 0.  1.
         14    1    6    6    0    0 -0.48393983299E+02 -0.28372810824E+01  0.17622202815E+02  0.51580711662E+02  0.00000000000E+00 0. -1.
         -5    1    3    3    0  503  0.11148216713E+02 -0.68767983528E+02 -0.66545598915E+02  0.96455819054E+02  0.47000000000E+01 0.  1.
         11    1    4    4    0    0 -0.27499863670E+02  0.42012165072E+02 -0.11842276738E+02  0.51589766759E+02  0.00000000000E+00 0. -1.
        -12    1    4    4    0    0 -0.18251732528E+02  0.13931326174E+02 -0.10523419697E+03  0.10770999862E+03  0.00000000000E+00 0.  1.
</event>
<event>
12    1  0.8358445E-002  0.1971378E+03  0.7818608E-02  0.1152192E+00
         21   -1    0    0  501  502  0.00000000000E+00  0.00000000000E+00  0.34214994367E+03  0.34214994367E+03  0.00000000000E+00 0. -1.
         21   -1    0    0  502  503 -0.00000000000E+00 -0.00000000000E+00 -0.14578277798E+03  0.14578277798E+03  0.00000000000E+00 0.  1.
         -6    2    1    2    0  503  0.81817710000E+02 -0.50836561149E+02 -0.16530016510E+02  0.19782958041E+03  0.17200234829E+03 0.  0.
        -24    2    3    3    0    0  0.32020697085E+02 -0.80416371968E+01 -0.71219015940E+02  0.11224848045E+03  0.80234532221E+02 0.  0.
          6    2    1    2  501    0 -0.81817710000E+02  0.50836561149E+02  0.21289718220E+03  0.29010314125E+03  0.17191895985E+03 0.  0.
         24    2    5    5    0    0  0.12579880008E+02 -0.15257569990E+02  0.71416143061E+02  0.10757009327E+03  0.77974435890E+02 0.  0.
          5    1    5    5  501    0 -0.94397590008E+02  0.66094131139E+02  0.14148103914E+03  0.18253304798E+03  0.47000000000E+01 0. -1.
        -13    1    6    6    0    0  0.18828622444E+02 -0.24194050328E+02  0.84878552516E+02  0.90245430752E+02  0.00000000000E+00 0.  1.
         14    1    6    6    0    0 -0.62487424356E+01  0.89364803374E+01 -0.13462409455E+02  0.17324662513E+02  0.00000000000E+00 0. -1.
         -5    1    3    3    0  503  0.49797012915E+02 -0.42794923952E+02  0.54688999430E+02  0.85581099958E+02  0.47000000000E+01 0.  1.
         13    1    4    4    0    0  0.31202573364E+02  0.32362439776E+02 -0.27435527044E+02  0.52665322908E+02  0.00000000000E+00 0. -1.
        -14    1    4    4    0    0  0.81812372064E+00 -0.40404076973E+02 -0.43783488896E+02  0.59583157540E+02  0.00000000000E+00 0.  1.
</event>
<event>
12    1  0.8358445E-002  0.2150648E+03  0.7818608E-02  0.1138230E+00
         21   -1    0    0  503  502  0.00000000000E+00  0.00000000000E+00  0.16923463189E+04  0.16923463189E+04  0.00000000000E+00 0. -1.
         21   -1    0    0  501  503 -0.00000000000E+00 -0.00000000000E+00 -0.45342371145E+02  0.45342371145E+02  0.00000000000E+00 0.  1.
          6    2    1    2  501    0  0.92581618013E+02  0.89878827576E+02  0.26620720261E+03  0.34024369825E+03  0.16807718416E+03 0.  0.
         24    2    3    3    0    0  0.54010132600E+02  0.11639533330E+03  0.24664150093E+03  0.28929479006E+03  0.79965477189E+02 0.  0.
         -6    2    1    2    0  502 -0.92581618013E+02 -0.89878827576E+02  0.13807967451E+04  0.13974449918E+04  0.17205607823E+03 0.  0.
        -24    2    5    5    0    0 -0.14493060829E+02 -0.37059190739E+02  0.33089375529E+03  0.34330737512E+03  0.82376234969E+02 0.  0.
          5    1    3    3  501    0  0.38571485412E+02 -0.26516505724E+02  0.19565701686E+02  0.50948908185E+02  0.47000000000E+01 0. -1.
        -11    1    4    4    0    0 -0.83752221662E+00  0.88206294417E+02  0.12603742882E+03  0.15383915393E+03  0.00000000000E+00 0.  1.
         12    1    4    4    0    0  0.54847654817E+02  0.28189038883E+02  0.12060407211E+03  0.13545563614E+03  0.00000000000E+00 0. -1.
         -5    1    5    5    0  502 -0.78088557184E+02 -0.52819636837E+02  0.10499029898E+04  0.10541376167E+04  0.47000000000E+01 0.  1.
         13    1    6    6    0    0 -0.33704910945E+02 -0.33474390095E+02  0.31370269536E+03  0.31727895753E+03  0.00000000000E+00 0. -1.
        -14    1    6    6    0    0  0.19211850116E+02 -0.35848006442E+01  0.17191059932E+02  0.26028417588E+02  0.00000000000E+00 0.  1.
</event>
<event>
12    1  0.8358445E-002  0.1764090E+03  0.7818608E-02  0.1171374E+00
         21   -1    0    0  501  502  0.00000000000E+00  0.00000000000E+00  0.20072479010E+03  0.20072479010E+03  0.00000000000E+00 0. -1.
         21   -1    0    0  502  503 -0.00000000000E+00 -0.00000000000E+00 -0.17275401498E+03  0.17275401498E+03  0.00000000000E+00 0. -1.
         -6    2    1    2    0  503 -0.31550443019E+02  0.21076163095E+02 -0.46117559375E+02  0.18214349600E+03  0.17207495096E+03 0.  0.
        -24    2    3    3    0    0 -0.62753689626E+02  0.37366670895E+02 -0.76358899213E+02  0.13549961239E+03  0.84824346819E+02 0.  0.
          6    2    1    2  501    0  0.31550443019E+02 -0.21076163095E+02  0.74088334498E+02  0.19133530908E+03  0.17228024868E+03 0.  0.
         24    2    5    5    0    0  0.69355238030E+01  0.10475686216E+02 -0.24324018608E+02  0.84993902810E+02  0.80464054966E+02 0.  0.
          5    1    5    5  501    0  0.24614919216E+02 -0.31551849311E+02  0.98412353106E+02  0.10634140627E+03  0.47000000000E+01 0. -1.
        -13    1    6    6    0    0  0.22809101313E+02 -0.14707714032E+02 -0.42271148092E+02  0.50233673126E+02  0.00000000000E+00 0.  1.
         14    1    6    6    0    0 -0.15873577510E+02  0.25183400247E+02  0.17947129484E+02  0.34760229684E+02  0.00000000000E+00 0. -1.
         -5    1    3    3    0  503  0.31203246607E+02 -0.16290507800E+02  0.30241339838E+02  0.46643883612E+02  0.47000000000E+01 0.  1.
         13    1    4    4    0    0 -0.61377569002E+02 -0.11769464455E+02 -0.47505766808E+02  0.78501746160E+02  0.00000000000E+00 0. -1.
        -14    1    4    4    0    0 -0.13761206238E+01  0.49136135350E+02 -0.28853132405E+02  0.56997866229E+02  0.00000000000E+00 0.  1.
</event>
<event>
12    1  0.8358445E-002  0.2279493E+03  0.7818608E-02  0.1128148E+00
         21   -1    0    0  503  502  0.00000000000E+00  0.00000000000E+00  0.87438340778E+03  0.87438340778E+03  0.00000000000E+00 0. -1.
         21   -1    0    0  501  503 -0.00000000000E+00 -0.00000000000E+00 -0.61432347550E+02  0.61432347550E+02  0.00000000000E+00 0.  1.
          6    2    1    2  501    0 -0.56548965024E+02 -0.13851553757E+03  0.49304197152E+03  0.54318623389E+03  0.17197836904E+03 0.  0.
         24    2    3    3    0    0 -0.56232220252E+02 -0.98250447873E+02  0.19083410192E+03  0.23827138640E+03  0.86835396116E+02 0.  0.
         -6    2    1    2    0  502  0.56548965024E+02  0.13851553757E+03  0.31990908871E+03  0.39262952144E+03  0.17155691905E+03 0.  0.
        -24    2    5    5    0    0  0.55397524090E+02  0.15441884144E+02  0.20404003025E+03  0.22352547450E+03  0.70879943169E+02 0.  0.
          5    1    3    3  501    0 -0.31674477213E+00 -0.40265089694E+02  0.30220786960E+03  0.30491484749E+03  0.47000000000E+01 0. -1.
        -11    1    4    4    0    0 -0.31174289478E+02 -0.90670191742E+02  0.18911985189E+03  0.21203593651E+03  0.00000000000E+00 0.  1.
         12    1    4    4    0    0 -0.25057930774E+02 -0.75802561312E+01  0.17142500376E+01  0.26235449889E+02  0.00000000000E+00 0. -1.
         -5    1    5    5    0  502  0.11514409336E+01  0.12307365342E+03  0.11586905846E+03  0.16910404694E+03  0.47000000000E+01 0.  1.
         13    1    6    6    0    0 -0.15837462466E+02  0.26884566010E+01  0.19261245903E+02  0.25080841493E+02  0.00000000000E+00 0. -1.
        -14    1    6    6    0    0  0.71234986556E+02  0.12753427543E+02  0.18477878435E+03  0.19844463301E+03  0.00000000000E+00 0.  1.
</event>
<event>
12    1  0.8358445E-002  0.1934735E+03  0.7818608E-02  0.1158680E+00
         21   -1    0    0  503  502  0.00000000000E+00  0.00000000000E+00  0.19900422128E+03  0.19900422128E+03  0.00000000000E+00 0.  1.
         21   -1    0    0  501  503 -0.00000000000E+00 -0.00000000000E+00 -0.19891978464E+03  0.19891978464E+03  0.00000000000E+00 0.  1.
          6    2    1    2  501    0 -0.80246089033E+02 -0.85449297562E+01 -0.69876760688E+02  0.20570554493E+03  0.17583958286E+03 0.  0.
         24    2    3    3    0    0 -0.92678822364E+02  0.45865774274E+02 -0.72560869113E+02  0.14963066633E+03  0.80194907671E+02 0.  0.
         -6    2    1    2    0  502  0.80246089033E+02  0.85449297562E+01  0.69961197334E+02  0.19221846099E+03  0.15981525892E+03 0.  0.
        -24    2    5    5    0    0  0.28635462807E+02 -0.27407535961E+02 -0.11025298110E+02  0.89567893657E+02  0.79559333947E+02 0.  0.
          5    1    3    3  501    0  0.12432733332E+02 -0.54410704030E+02  0.26841084248E+01  0.56074878593E+02  0.47000000000E+01 0. -1.
        -11    1    4    4    0    0 -0.43619148053E+02 -0.35367950418E+00  0.82564381969E+01  0.44395089118E+02  0.00000000000E+00 0.  1.
         12    1    4    4    0    0 -0.49059674311E+02  0.46219453778E+02 -0.80817307310E+02  0.10523557722E+03  0.00000000000E+00 0. -1.
         -5    1    5    5    0  502  0.51610626225E+02  0.35952465717E+02  0.80986495444E+02  0.10265056734E+03  0.47000000000E+01 0.  1.
         11    1    6    6    0    0 -0.19743308348E+02 -0.25479716189E+02  0.13909963428E+02  0.35106997083E+02  0.00000000000E+00 0. -1.
        -12    1    6    6    0    0  0.48378771156E+02 -0.19278197712E+01 -0.24935261538E+02  0.54460896573E+02  0.00000000000E+00 0.  1.
</event>
<event>
12    1  0.8358445E-002  0.2584407E+03  0.7818608E-02  0.1108631E+00
         21   -1    0    0  501  502  0.00000000000E+00  0.00000000000E+00  0.29040049285E+03  0.29040049285E+03  0.00000000000E+00 0.  1.
         21   -1    0    0  502  503 -0.00000000000E+00 -0.00000000000E+00 -0.28505319601E+03  0.28505319601E+03  0.00000000000E+00 0.  1.
         -6    2    1    2    0  503 -0.15461713613E+03 -0.11495749590E+03  0.13273689805E+03  0.29053520007E+03  0.17224962620E+03 0.  0.
        -24    2    3    3    0    0 -0.38407301673E+02 -0.97702505047E+02  0.32077459671E+02  0.13575512102E+03  0.79872330320E+02 0.  0.
          6    2    1    2  501    0  0.15461713613E+03  0.11495749590E+03 -0.12738960120E+03  0.28491848880E+03  0.16681951359E+03 0.  0.
         24    2    5    5    0    0  0.16528375244E+03  0.10159224041E+03 -0.14834287777E+03  0.25746786847E+03  0.81513138678E+02 0.  0.
          5    1    5    5  501    0 -0.10666616305E+02  0.13365255492E+02  0.20953276563E+02  0.27450620330E+02  0.47000000000E+01 0. -1.
        -13    1    6    6    0    0  0.12402190952E+03  0.11235100819E+03 -0.11123784178E+03  0.20094287877E+03  0.00000000000E+00 0.  1.
         14    1    6    6    0    0  0.41261842920E+02 -0.10758767782E+02 -0.37105035984E+02  0.56524989701E+02  0.00000000000E+00 0. -1.
         -5    1    3    3    0  503 -0.11620983446E+03 -0.17254990851E+02  0.10065943838E+03  0.15478007904E+03  0.47000000000E+01 0.  1.
         11    1    4    4    0    0 -0.45457586010E+02 -0.10895269753E+03  0.24864270244E+02  0.12064540753E+03  0.00000000000E+00 0. -1.
        -12    1    4    4    0    0  0.70502843373E+01  0.11250192479E+02  0.72131894272E+01  0.15109713490E+02  0.00000000000E+00 0.  1.
</event>
<event>
12    1  0.8358445E-002  0.2128157E+03  0.7818608E-02  0.1139842E+00
         21   -1    0    0  501  502  0.00000000000E+00  0.00000000000E+00  0.63400817979E+03  0.63400817979E+03  0.00000000000E+00 0. -1.
         21   -1    0    0  502  503 -0.00000000000E+00 -0.00000000000E+00 -0.23181923299E+03  0.23181923299E+03  0.00000000000E+00 0.  1.
         -6    2    1    2    0  503 -0.67291728563E+02 -0.10214424513E+03 -0.15956331008E+03  0.26599054638E+03  0.17415193739E+03 0.  0.
        -24    2    3    3    0    0 -0.95292259753E+02 -0.69173996350E+02 -0.16960477087E+03  0.22133645378E+03  0.79739519250E+02 0.  0.
          6    2    1    2  501    0  0.67291728563E+02  0.10214424513E+03  0.56175225689E+03  0.59983686640E+03  0.17110536120E+03 0.  0.
         24    2    5    5    0    0  0.94757334526E+02  0.12262065144E+03  0.49920360406E+03  0.52836612626E+03  0.77147575890E+02 0.  0.
          5    1    5    5  501    0 -0.27465605963E+02 -0.20476406307E+02  0.62548652823E+02  0.71470740140E+02  0.47000000000E+01 0. -1.
        -13    1    6    6    0    0  0.79233232139E+02  0.39744051438E+02  0.24491746884E+03  0.26046508642E+03  0.00000000000E+00 0.  1.
         14    1    6    6    0    0  0.15524102387E+02  0.82876600000E+02  0.25428613522E+03  0.26790103985E+03  0.00000000000E+00 0. -1.
         -5    1    3    3    0  503  0.28000531191E+02 -0.32970248781E+02  0.10041460787E+02  0.44654092605E+02  0.47000000000E+01 0.  1.
         13    1    4    4    0    0 -0.36590895242E+02 -0.74500349048E+02 -0.92433970066E+02  0.12423056969E+03  0.00000000000E+00 0. -1.
        -14    1    4    4    0    0 -0.58701364512E+02  0.53263526982E+01 -0.77170800800E+02  0.97105884089E+02  0.00000000000E+00 0.  1.
</event>
<event>
12    1  0.8358445E-002  0.1881467E+03  0.7818608E-02  0.1160217E+00
         21   -1    0    0  501  502  0.00000000000E+00  0.00000000000E+00  0.52806294470E+03  0.52806294470E+03  0.00000000000E+00 0.  1.
         21   -1    0    0  502  503 -0.00000000000E+00 -0.00000000000E+00 -0.58503253831E+03  0.58503253831E+03  0.00000000000E+00 0. -1.
         -6    2    1    2    0  503  0.55354418131E+02  0.47202336322E+02 -0.55223178434E+03  0.58329946266E+03  0.17316508696E+03 0.  0.
        -24    2    3    3    0    0 -0.84404377456E+01 -0.29392603040E+02 -0.30379980948E+03  0.31557366169E+03  0.79732337287E+02 0.  0.
          6    2    1    2  501    0 -0.55354418131E+02 -0.47202336322E+02  0.49526219073E+03  0.52979602035E+03  0.17351372698E+03 0.  0.
         24    2    5    5    0    0 -0.19044307365E+02 -0.41610982593E+02  0.10655196682E+03  0.13932525890E+03  0.77227240124E+02 0.  0.
          5    1    5    5  501    0 -0.36310110765E+02 -0.55913537283E+01  0.38871022391E+03  0.39047076146E+03  0.47000000000E+01 0. -1.
        -13    1    6    6    0    0 -0.19303742639E+02  0.77966841038E+01  0.81133426133E+02  0.83761898253E+02  0.00000000000E+00 0.  1.
         14    1    6    6    0    0  0.25943527376E+00 -0.49407666697E+02  0.25418540690E+02  0.55563360643E+02  0.00000000000E+00 0. -1.
         -5    1    3    3    0  503  0.63794855876E+02  0.76594939362E+02 -0.24843197487E+03  0.26772580098E+03  0.47000000000E+01 0.  1.
         13    1    4    4    0    0  0.14290862761E+02 -0.22811921269E+02 -0.28236294721E+03  0.28364316750E+03  0.00000000000E+00 0. -1.
        -14    1    4    4    0    0 -0.22731300507E+02 -0.65806817715E+01 -0.21436862264E+02  0.31930494187E+02  0.00000000000E+00 0.  1.
</event>
<event>
12    1  0.8358445E-002  0.1924622E+03  0.7818608E-02  0.1156301E+00
         21   -1    0    0  503  502  0.00000000000E+00  0.00000000000E+00  0.71209740415E+03  0.71209740415E+03  0.00000000000E+00 0. -1.
         21   -1    0    0  501  503 -0.00000000000E+00 -0.00000000000E+00 -0.60960873775E+03  0.60960873775E+03  0.00000000000E+00 0. -1.
          6    2    1    2  501    0  0.56169389518E+02  0.64260485065E+02 -0.58081150346E+03  0.61186901736E+03  0.17250299012E+03 0.  0.
         24    2    3    3    0    0 -0.24459359688E+02  0.70433886939E+02 -0.29928994270E+03  0.31892604466E+03  0.81118181994E+02 0.  0.
         -6    2    1    2    0  502 -0.56169389518E+02 -0.64260485065E+02  0.68330016985E+03  0.70983712453E+03  0.17229396678E+03 0.  0.
        -24    2    5    5    0    0 -0.45289994423E+02 -0.11193635880E+03  0.54375145783E+03  0.56189361098E+03  0.74012500012E+02 0.  0.
          5    1    3    3  501    0  0.80628749206E+02 -0.61734018735E+01 -0.28152156075E+03  0.29294297271E+03  0.47000000000E+01 0. -1.
        -11    1    4    4    0    0 -0.47714908914E+02  0.15078515338E+02 -0.12944401925E+03  0.13877978339E+03  0.00000000000E+00 0.  1.
         12    1    4    4    0    0  0.23255549226E+02  0.55355371601E+02 -0.16984592345E+03  0.18014626127E+03  0.00000000000E+00 0. -1.
         -5    1    5    5    0  502 -0.10879395095E+02  0.47675873737E+02  0.13954871203E+03  0.14794351355E+03  0.47000000000E+01 0.  1.
         11    1    6    6    0    0 -0.45137927922E+02 -0.30000127039E+02  0.29668844862E+03  0.30159820242E+03  0.00000000000E+00 0. -1.
        -12    1    6    6    0    0 -0.15206650101E+00 -0.81936231764E+02  0.24706300921E+03  0.26029540856E+03  0.00000000000E+00 0.  1.
</event>
<event>
12    1  0.8358445E-002  0.1834115E+03  0.7818608E-02  0.1166977E+00
         21   -1    0    0  503  502  0.00000000000E+00  0.00000000000E+00  0.11377068337E+03  0.11377068337E+03  0.00000000000E+00 0. -1.
         21   -1    0    0  501  503 -0.00000000000E+00 -0.00000000000E+00 -0.55642421777E+03  0.55642421777E+03  0.00000000000E+00 0. -1.
          6    2    1    2  501    0 -0.60274145512E+02  0.17142690839E+02 -0.45444578203E+03  0.48640468438E+03  0.16168396245E+03 0.  0.
         24    2    3    3    0    0  0.14586465809E+02  0.46590538741E+02 -0.21694684403E+03  0.23560770986E+03  0.77856383994E+02 0.  0.
         -6    2    1    2    0  502  0.60274145512E+02 -0.17142690839E+02  0.11792247634E+02  0.18379021676E+03  0.17237442446E+03 0.  0.
        -24    2    5    5    0    0 -0.20127862200E+02  0.11238514224E+02 -0.34681587413E+02  0.86569421721E+02  0.75894777375E+02 0.  0.
          5    1    3    3  501    0 -0.74860611321E+02 -0.29447847902E+02 -0.23749893800E+03  0.25079697451E+03  0.47000000000E+01 0. -1.
        -13    1    4    4    0    0  0.57984511032E+01  0.41033779919E+02 -0.37590745726E+02  0.55950489666E+02  0.00000000000E+00 0.  1.
         14    1    4    4    0    0  0.87880147057E+01  0.55567588217E+01 -0.17935609830E+03  0.17965722020E+03  0.00000000000E+00 0. -1.
         -5    1    5    5    0  502  0.80402007712E+02 -0.28381205063E+02  0.46473835047E+02  0.97220795044E+02  0.47000000000E+01 0.  1.
         13    1    6    6    0    0  0.64355549684E+01  0.33068481504E+02  0.50070516805E+01  0.34058940137E+02  0.00000000000E+00 0. -1.
        -14    1    6    6    0    0 -0.26563417168E+02 -0.21829967279E+02 -0.39688639094E+02  0.52510481584E+02  0.00000000000E+00 0.  1.
</event>
<event>
12    1  0.8358445E-002  0.1774554E+03  0.7818608E-02  0.1170870E+00
         21   -1    0    0  503  502  0.00000000000E+00  0.00000000000E+00  0.69705990283E+02  0.69705990283E+02  0.00000000000E+00 0.  1.
         21   -1    0    0  501  503 -0.00000000000E+00 -0.00000000000E+00 -0.46011608088E+03  0.46011608088E+03  0.00000000000E+00 0.  1.
          6    2    1    2  501    0 -0.35787278493E+02  0.24003824946E+02 -0.24316471061E+03  0.30103074217E+03  0.17214388845E+03 0.  0.
         24    2    3    3    0    0  0.17928525214E+01  0.16814424785E+02 -0.25038340627E+03  0.26181144477E+03  0.74615301896E+02 0.  0.
         -6    2    1    2    0  502  0.35787278493E+02 -0.24003824946E+02 -0.14724537998E+03  0.22879132899E+03  0.16972730299E+03 0.  0.
        -24    2    5    5    0    0 -0.16641976873E+00 -0.71367019197E+02 -0.12777836217E+03  0.16604584811E+03  0.78425982373E+02 0.  0.
          5    1    3    3  501    0 -0.37580131014E+02  0.71894001605E+01  0.72186956559E+01  0.39219297402E+02  0.47000000000E+01 0. -1.
        -13    1    4    4    0    0  0.70815296030E+01  0.46127099473E+02 -0.14800300581E+03  0.15518616915E+03  0.00000000000E+00 0.  1.
         14    1    4    4    0    0 -0.52886770816E+01 -0.29312674687E+02 -0.10238040046E+03  0.10662527562E+03  0.00000000000E+00 0. -1.
         -5    1    5    5    0  502  0.35953698261E+02  0.47363194252E+02 -0.19467017817E+02  0.62745480882E+02  0.47000000000E+01 0.  1.
         11    1    6    6    0    0  0.37274952731E+02 -0.19797774773E+02 -0.54518943845E+02  0.68947003017E+02  0.00000000000E+00 0. -1.
        -12    1    6    6    0    0 -0.37441372500E+02 -0.51569244424E+02 -0.73259418321E+02  0.97098845091E+02  0.00000000000E+00 0.  1.
</event>
<event>
12    1  0.8358445E-002  0.2041930E+03  0.7818608E-02  0.1148435E+00
         21   -1    0    0  503  502  0.00000000000E+00  0.00000000000E+00  0.33316218478E+03  0.33316218478E+03  0.00000000000E+00 0. -1.
         21   -1    0    0  501  503 -0.00000000000E+00 -0.00000000000E+00 -0.15108474465E+03  0.15108474465E+03  0.00000000000E+00 0.  1.
          6    2    1    2  501    0 -0.10699860679E+03  0.19029182798E+02 -0.18848393275E+02  0.20506106415E+03  0.17286979623E+03 0.  0.
         24    2    3    3    0    0 -0.10697250401E+03 -0.41681243609E+02  0.36421112567E+01  0.14014828151E+03  0.80298400690E+02 0.  0.
         -6    2    1    2    0  502  0.10699860679E+03 -0.19029182798E+02  0.20092583340E+03  0.27918586528E+03  0.16050777300E+03 0.  0.
        -24    2    5    5    0    0  0.34449723334E+02  0.46036562847E+02  0.82184760273E+02  0.12550299638E+03  0.75435526922E+02 0.  0.
          5    1    3    3  501    0 -0.26102776363E-01  0.60710426407E+02 -0.22490504532E+02  0.64912782639E+02  0.47000000000E+01 0. -1.
        -13    1    4    4    0    0 -0.22347784509E+02 -0.28729652779E+02 -0.30984953909E+02  0.47800458052E+02  0.00000000000E+00 0.  1.
         14    1    4    4    0    0 -0.84624719502E+02 -0.12951590831E+02  0.34627065166E+02  0.92347823460E+02  0.00000000000E+00 0. -1.
         -5    1    5    5    0  502  0.72548883454E+02 -0.65065745645E+02  0.11874107313E+03  0.15368286890E+03  0.47000000000E+01 0.  1.
         11    1    6    6    0    0 -0.13282272603E+02 -0.10821470514E+02  0.38114387376E+01  0.17551354786E+02  0.00000000000E+00 0. -1.
        -12    1    6    6    0    0  0.47731995936E+02  0.56858033360E+02  0.78373321535E+02  0.10795164159E+03  0.00000000000E+00 0.  1.
</event>
<event>
12    1  0.8358445E-002  0.2296450E+03  0.7818608E-02  0.1126967E+00
         21   -1    0    0  501  502  0.00000000000E+00  0.00000000000E+00  0.65930482552E+02  0.65930482552E+02  0.00000000000E+00 0. -1.
         21   -1    0    0  502  503 -0.00000000000E+00 -0.00000000000E+00 -0.81124215961E+03  0.81124215961E+03  0.00000000000E+00 0.  1.
         -6    2    1    2    0  503  0.14247594587E+03  0.53017387733E+02 -0.42828570645E+03  0.48596859500E+03  0.17212376482E+03 0.  0.
        -24    2    3    3    0    0  0.12096102067E+03  0.22358655279E+02 -0.16290189953E+03  0.21791355427E+03  0.76274571623E+02 0.  0.
          6    2    1    2  501    0 -0.14247594587E+03 -0.53017387733E+02 -0.31702597061E+03  0.39120404717E+03  0.17153688212E+03 0.  0.
         24    2    5    5    0    0 -0.95683251847E+02 -0.85125682185E+02 -0.29341138661E+03  0.32955798189E+03  0.78208408663E+02 0.  0.
          5    1    5    5  501    0 -0.46792694025E+02  0.32108294453E+02 -0.23614584002E+02  0.61646065279E+02  0.47000000000E+01 0. -1.
        -11    1    6    6    0    0 -0.84020024074E+02 -0.48494163832E+02 -0.26367895138E+03  0.28095842712E+03  0.00000000000E+00 0.  1.
         12    1    6    6    0    0 -0.11663227774E+02 -0.36631518354E+02 -0.29732435226E+02  0.48599554766E+02  0.00000000000E+00 0. -1.
         -5    1    3    3    0  503  0.21514925200E+02  0.30658732454E+02 -0.26538380692E+03  0.26805504072E+03  0.47000000000E+01 0.  1.
         13    1    4    4    0    0 -0.11067375727E+01 -0.65516315073E+01  0.50066735958E+01  0.83195867660E+01  0.00000000000E+00 0. -1.
        -14    1    4    4    0    0  0.12206775825E+03  0.28910286786E+02 -0.16790857313E+03  0.20959396751E+03  0.00000000000E+00 0.  1.
</event>
<event>
12    1  0.8358445E-002  0.1937938E+03  0.7818608E-02  0.1155871E+00
         21   -1    0    0  503  502  0.00000000000E+00  0.00000000000E+00  0.15533572486E+03  0.15533572486E+03  0.00000000000E+00 0. -1.
         21   -1    0    0  501  503 -0.00000000000E+00 -0.00000000000E+00 -0.26347702885E+03  0.26347702885E+03  0.00000000000E+00 0.  1.
          6    2    1    2  501    0 -0.56031340514E+02  0.60279051713E+02  0.11398918533E+02  0.19412872203E+03  0.17545070583E+03 0.  0.
         24    2    3    3    0    0  0.21698984661E+02  0.67509381594E+02 -0.21848637402E+02  0.10914771769E+03  0.80046853671E+02 0.  0.
         -6    2    1    2    0  502  0.56031340514E+02 -0.60279051713E+02 -0.11954022252E+03  0.22468403169E+03  0.17152251776E+03 0.  0.
        -24    2    5    5    0    0  0.40406748264E+02  0.67247302588E+01 -0.12636366033E+03  0.15538551810E+03  0.80616110551E+02 0.  0.
          5    1    3    3  501    0 -0.77730325175E+02 -0.72303298808E+01  0.33247555935E+02  0.84981004334E+02  0.47000000000E+01 0. -1.
        -11    1    4    4    0    0  0.82020053304E+01 -0.17126838269E+02 -0.12942347763E+02  0.22980553652E+02  0.00000000000E+00 0.  1.
         12    1    4    4    0    0  0.13496979331E+02  0.84636219862E+02 -0.89062896393E+01  0.86167164041E+02  0.00000000000E+00 0. -1.
         -5    1    5    5    0  502  0.15624592250E+02 -0.67003781972E+02  0.68234378155E+01  0.69298513585E+02  0.47000000000E+01 0.  1.
         11    1    6    6    0    0  0.63776367976E+02 -0.34417792197E+01 -0.78884916119E+02  0.10149926575E+03  0.00000000000E+00 0. -1.
        -12    1    6    6    0    0 -0.23369619712E+02  0.10166509478E+02 -0.47478744216E+02  0.53886252354E+02  0.00000000000E+00 0.  1.
</event>
<event>
12    1  0.8358445E-002  0.2956910E+03  0.7818608E-02  0.1087470E+00
         21   -1    0    0  501  502  0.00000000000E+00  0.00000000000E+00  0.16640879029E+03  0.16640879029E+03  0.00000000000E+00 0.  1.
         21   -1    0    0  502  503 -0.00000000000E+00 -0.00000000000E+00 -0.15927818576E+04  0.15927818576E+04  0.00000000000E+00 0.  1.
         -6    2    1    2    0  503  0.65724660666E+02  0.23151218743E+03 -0.14336710963E+04  0.14638462981E+04  0.17180089704E+03 0.  0.
        -24    2    3    3    0    0  0.10305347330E+03  0.19586261603E+03 -0.10424535525E+04  0.10692102775E+04  0.86712315662E+02 0.  0.
          6    2    1    2  501    0 -0.65724660666E+02 -0.23151218743E+03  0.72980289796E+01  0.29534434977E+03  0.17104794582E+03 0.  0.
         24    2    5    5    0    0 -0.53657152443E+02 -0.19058425105E+03  0.64293518409E+02  0.22399102787E+03  0.82685411667E+02 0.  0.
          5    1    5    5  501    0 -0.12067508224E+02 -0.40927936378E+02 -0.56995489430E+02  0.71353321901E+02  0.47000000000E+01 0. -1.
        -11    1    6    6    0    0 -0.25482796576E+02 -0.86624565343E+01  0.22819201363E+02  0.35286357497E+02  0.00000000000E+00 0.  1.
         12    1    6    6    0    0 -0.28174355867E+02 -0.18192179451E+03  0.41474317046E+02  0.18870467038E+03  0.00000000000E+00 0. -1.
         -5    1    3    3    0  503 -0.37328812637E+02  0.35649571397E+02 -0.39121754377E+03  0.39463602059E+03  0.47000000000E+01 0.  1.
         13    1    4    4    0    0 -0.14330635500E+02  0.39591515479E+02 -0.17081648152E+03  0.17592931981E+03  0.00000000000E+00 0. -1.
        -14    1    4    4    0    0  0.11738410880E+03  0.15627110055E+03 -0.87163707101E+03  0.89328095772E+03  0.00000000000E+00 0.  1.
</event>
<event>
12    1  0.8358445E-002  0.1827449E+03  0.7818608E-02  0.1166866E+00
         21   -1    0    0  501  502  0.00000000000E+00  0.00000000000E+00  0.63587663363E+03  0.63587663363E+03  0.00000000000E+00 0. -1.
         21   -1    0    0  502  503 -0.00000000000E+00 -0.00000000000E+00 -0.14473019932E+03  0.14473019932E+03  0.00000000000E+00 0. -1.
         -6    2    1    2    0  503  0.33278961987E+02  0.21360914711E+02 -0.67617543607E+02  0.19485335862E+03  0.17841502508E+03 0.  0.
        -24    2    3    3    0    0  0.82835520738E+02  0.19502055915E+02 -0.82310590241E+02  0.14291798060E+03  0.80052871476E+02 0.  0.
          6    2    1    2  501    0 -0.33278961987E+02 -0.21360914711E+02  0.55876397792E+03  0.58575347434E+03  0.17124885895E+03 0.  0.
         24    2    5    5    0    0  0.47255143095E+02 -0.20648565602E+02  0.26928721576E+03  0.28524534574E+03  0.78675859606E+02 0.  0.
          5    1    5    5  501    0 -0.80534105082E+02 -0.71234910911E+00  0.28947676215E+03  0.30050812859E+03  0.47000000000E+01 0. -1.
        -11    1    6    6    0    0  0.45470170462E+02 -0.39054313823E+02  0.11341385011E+03  0.12827890406E+03  0.00000000000E+00 0.  1.
         12    1    6    6    0    0  0.17849726335E+01  0.18405748221E+02  0.15587336566E+03  0.15696644169E+03  0.00000000000E+00 0. -1.
         -5    1    3    3    0  503 -0.49556558751E+02  0.18588587969E+01  0.14693046634E+02  0.51935378025E+02  0.47000000000E+01 0.  1.
         11    1    4    4    0    0 -0.97939142383E+01  0.13219448439E+02 -0.35093941825E+02  0.38758990259E+02  0.00000000000E+00 0. -1.
        -12    1    4    4    0    0  0.92629434976E+02  0.62826074755E+01 -0.47216648417E+02  0.10415899034E+03  0.00000000000E+00 0.  1.
</event>
<event>
12    1  0.8358445E-002  0.2009111E+03  0.7818608E-02  0.1150644E+00
         21   -1    0    0  503  502  0.00000000000E+00  0.00000000000E+00  0.20826838897E+03  0.20826838897E+03  0.00000000000E+00 0.  1.
         21   -1    0    0  501  503 -0.00000000000E+00 -0.00000000000E+00 -0.38495193487E+03  0.38495193487E+03  0.00000000000E+00 0.  1.
          6    2    1    2  501    0  0.80397890166E+02 -0.38443765257E+02 -0.30051723219E+03  0.35721174290E+03  0.17131222544E+03 0.  0.
         24    2    3    3    0    0  0.11377775787E+03 -0.57030449390E+02 -0.20340552585E+03  0.25274905145E+03  0.79438181749E+02 0.  0.
         -6    2    1    2    0  502 -0.80397890166E+02  0.38443765257E+02  0.12383368630E+03  0.23600858094E+03  0.18006533421E+03 0.  0.
        -24    2    5    5    0    0  0.28699703820E+02  0.25875327210E+02  0.41362230483E+02  0.98589944384E+02  0.80721356935E+02 0.  0.
          5    1    3    3  501    0 -0.33379867703E+02  0.18586684133E+02 -0.97111706340E+02  0.10446269144E+03  0.47000000000E+01 0. -1.
        -11    1    4    4    0    0  0.10028641491E+03 -0.58761545922E+02 -0.20809910914E+03  0.23836007115E+03  0.00000000000E+00 0.  1.
         12    1    4    4    0    0  0.13491342958E+02  0.17310965315E+01  0.46935832873E+01  0.14388980301E+02  0.00000000000E+00 0. -1.
         -5    1    5    5    0  502 -0.10909759399E+03  0.12568438047E+02  0.82471455819E+02  0.13741863656E+03  0.47000000000E+01 0.  1.
         11    1    6    6    0    0 -0.56980381760E+01 -0.18608868468E+02  0.37470711235E+02  0.42223356394E+02  0.00000000000E+00 0. -1.
        -12    1    6    6    0    0  0.34397741996E+02  0.44484195678E+02  0.38915192477E+01  0.56366587990E+02  0.00000000000E+00 0.  1.
</event>
<event>
12    1  0.8358445E-002  0.1723955E+03  0.7818608E-02  0.1175570E+00
         21   -1    0    0  501  502  0.00000000000E+00  0.00000000000E+00  0.48106833571E+03  0.48106833571E+03  0.00000000000E+00 0.  1.
         21   -1    0    0  502  503 -0.00000000000E+00 -0.00000000000E+00 -0.63155563949E+02  0.63155563949E+02  0.00000000000E+00 0.  1.
         -6    2    1    2    0  503  0.97943188163E+01 -0.20165937873E+01  0.25250266550E+03  0.30530817607E+03  0.17133444183E+03 0.  0.
        -24    2    3    3    0    0 -0.39573606135E+02  0.41984079290E+02  0.15097039267E+03  0.18404753253E+03  0.88049426750E+02 0.  0.
          6    2    1    2  501    0 -0.97943188163E+01  0.20165937873E+01  0.16541010626E+03  0.23891572359E+03  0.17210527126E+03 0.  0.
         24    2    5    5    0    0  0.52842755465E+02  0.20135539938E+02  0.13512074176E+03  0.16686549884E+03  0.79929237937E+02 0.  0.
          5    1    5    5  501    0 -0.62637074281E+02 -0.18118946151E+02  0.30289364502E+02  0.72050224747E+02  0.47000000000E+01 0. -1.
        -13    1    6    6    0    0  0.10459027034E+02  0.20811537012E+02 -0.19659931113E+01  0.23374696751E+02  0.00000000000E+00 0.  1.
         14    1    6    6    0    0  0.42383728431E+02 -0.67599707378E+00  0.13708673487E+03  0.14349080209E+03  0.00000000000E+00 0. -1.
         -5    1    3    3    0  503  0.49367924952E+02 -0.44000673077E+02  0.10153227283E+03  0.12126064353E+03  0.47000000000E+01 0.  1.
         11    1    4    4    0    0 -0.11084560559E+02  0.50691520080E+01 -0.10432593929E+02  0.16043777640E+02  0.00000000000E+00 0. -1.
        -12    1    4    4    0    0 -0.28489045576E+02  0.36914927282E+02  0.16140298660E+03  0.16800375489E+03  0.00000000000E+00 0.  1.
</event>
<event>
12    1  0.8358445E-002  0.1843860E+03  0.7818608E-02  0.1163656E+00
         21   -1    0    0  501  502  0.00000000000E+00  0.00000000000E+00  0.91624924463E+02  0.91624924463E+02  0.00000000000E+00 0.  1.
         21   -1    0    0  502  503 -0.00000000000E+00 -0.00000000000E+00 -0.16602493628E+04  0.16602493628E+04  0.00000000000E+00 0.  1.
         -6    2    1    2    0  503  0.54112041221E+02  0.40353882714E+02 -0.15562007697E+04  0.15670701823E+04  0.17143970218E+03 0.  0.
        -24    2    3    3    0    0  0.95322735512E+02  0.57826940652E+01 -0.82511828002E+03  0.83399638979E+03  0.74899524047E+02 0.  0.
          6    2    1    2  501    0 -0.54112041221E+02 -0.40353882714E+02 -0.12423668547E+02  0.18480410497E+03  0.17158572440E+03 0.  0.
         24    2    5    5    0    0 -0.90367722508E+02 -0.47910779015E+02  0.25712371053E+02  0.13143718053E+03  0.78440030497E+02 0.  0.
          5    1    5    5  501    0  0.36255681287E+02  0.75568963007E+01 -0.38136039600E+02  0.53366924436E+02  0.47000000000E+01 0. -1.
        -13    1    6    6    0    0 -0.10064382426E+03 -0.49914673633E+02  0.10310585282E+02  0.11281383857E+03  0.00000000000E+00 0.  1.
         14    1    6    6    0    0  0.10276101749E+02  0.20038946183E+01  0.15401785771E+02  0.18623341959E+02  0.00000000000E+00 0. -1.
         -5    1    3    3    0  503 -0.41210694292E+02  0.34571188649E+02 -0.73108248973E+03  0.73307379246E+03  0.47000000000E+01 0.  1.
         11    1    4    4    0    0  0.71849114855E+02 -0.29395395536E+02 -0.46986173861E+03  0.47623149622E+03  0.00000000000E+00 0. -1.
        -12    1    4    4    0    0  0.23473620657E+02  0.35178089601E+02 -0.35525654141E+03  0.35776489357E+03  0.00000000000E+00 0.  1.
</event>
<event>
12    1  0.8358445E-002  0.1793330E+03  0.7818608E-02  0.1169269E+00
         21   -1    0    0  503  502  0.00000000000E+00  0.00000000000E+00  0.44130099327E+03  0.44130099327E+03  0.00000000000E+00 0.  1.
         21   -1    0    0  501  503 -0.00000000000E+00 -0.00000000000E+00 -0.11334510963E+03  0.11334510963E+03  0.00000000000E+00 0.  1.
          6    2    1    2  501    0  0.32959460640E+02  0.32647297505E+02 -0.54334570643E+01  0.17608465794E+03  0.16977665395E+03 0.  0.
         24    2    3    3    0    0 -0.60171949939E+01  0.12994760272E+02 -0.66187261902E+02  0.10112789236E+03  0.75106767635E+02 0.  0.
         -6    2    1    2    0  502 -0.32959460640E+02 -0.32647297505E+02  0.33338934070E+03  0.37856144496E+03  0.17322858609E+03 0.  0.
        -24    2    5    5    0    0 -0.69940733486E+02 -0.60649584296E+02  0.29067495711E+03  0.31532892823E+03  0.79814309576E+02 0.  0.
          5    1    3    3  501    0  0.38976655634E+02  0.19652537233E+02  0.60753804838E+02  0.74956765581E+02  0.47000000000E+01 0. -1.
        -11    1    4    4    0    0  0.21975400173E+02  0.33832245011E+02 -0.44387718165E+02  0.59981735046E+02  0.00000000000E+00 0.  1.
         12    1    4    4    0    0 -0.27992595166E+02 -0.20837484739E+02 -0.21799543737E+02  0.41146157312E+02  0.00000000000E+00 0. -1.
         -5    1    5    5    0  502  0.36981272846E+02  0.28002286790E+02  0.42714383592E+02  0.63232516734E+02  0.47000000000E+01 0.  1.
         11    1    6    6    0    0 -0.19859827909E+02  0.62884319781E+01  0.11268688924E+02  0.23684182303E+02  0.00000000000E+00 0. -1.
        -12    1    6    6    0    0 -0.50080905577E+02 -0.66938016274E+02  0.27940626818E+03  0.29164474593E+03  0.00000000000E+00 0.  1.
</event>
<event>
12    1  0.8358445E-002  0.1883435E+03  0.7818608E-02  0.1159985E+00
         21   -1    0    0  503  502  0.00000000000E+00  0.00000000000E+00  0.67186471502E+02  0.67186471502E+02  0.00000000000E+00 0.  1.
         21   -1    0    0  501  503 -0.00000000000E+00 -0.00000000000E+00 -0.53987807253E+03  0.53987807253E+03  0.00000000000E+00 0. -1.
          6    2    1    2  501    0  0.76400670271E+02 -0.37800339518E+01 -0.28193604249E+03  0.33905929836E+03  0.17211021084E+03 0.  0.
         24    2    3    3    0    0 -0.20323245181E+02  0.23526803440E+02 -0.14104648718E+03  0.16593178471E+03  0.81686601440E+02 0.  0.
         -6    2    1    2    0  502 -0.76400670271E+02  0.37800339518E+01 -0.19075555854E+03  0.26800524567E+03  0.17201098081E+03 0.  0.
        -24    2    5    5    0    0 -0.75746295183E+02  0.61423486309E+02 -0.16587307500E+03  0.20504157525E+03  0.70836605413E+02 0.  0.
          5    1    3    3  501    0  0.96723915452E+02 -0.27306837392E+02 -0.14088955531E+03  0.17312751365E+03  0.47000000000E+01 0. -1.
        -11    1    4    4    0    0 -0.45272037465E+02  0.58906391311E+01 -0.41130849561E+02  0.61449196831E+02  0.00000000000E+00 0.  1.
         12    1    4    4    0    0  0.24948792284E+02  0.17636164309E+02 -0.99915637623E+02  0.10448258788E+03  0.00000000000E+00 0. -1.
         -5    1    5    5    0  502 -0.65437508772E+00 -0.57643452357E+02 -0.24882483540E+02  0.62963670426E+02  0.47000000000E+01 0.  1.
         13    1    6    6    0    0 -0.19322298284E+02  0.69285461380E+01 -0.10153272919E+03  0.10358692514E+03  0.00000000000E+00 0. -1.
        -14    1    6    6    0    0 -0.56423996899E+02  0.54494940171E+02 -0.64340345806E+02  0.10145465011E+03  0.00000000000E+00 0.  1.
</event>
<event>
12    1  0.8358445E-002  0.1771821E+03  0.7818608E-02  0.1170645E+00
         21   -1    0    0  503  502  0.00000000000E+00  0.00000000000E+00  0.10088137703E+03  0.10088137703E+03  0.00000000000E+00 0. -1.
         21   -1    0    0  501  503 -0.00000000000E+00 -0.00000000000E+00 -0.14115432953E+04  0.14115432953E+04  0.00000000000E+00 0. -1.
          6    2    1    2  501    0  0.47152059924E+02 -0.14942220245E+02 -0.13230455915E+04  0.13348103708E+04  0.16977191134E+03 0.  0.
         24    2    3    3    0    0  0.82164859545E+02  0.13584169554E+02 -0.65124977350E+03  0.66148180149E+03  0.80599704787E+02 0.  0.
         -6    2    1    2    0  502 -0.47152059924E+02  0.14942220245E+02  0.12383673243E+02  0.17761430160E+03  0.17013787958E+03 0.  0.
        -24    2    5    5    0    0 -0.30634027247E+01  0.48044276495E+02 -0.40095983230E+02  0.10135317018E+03  0.79668941842E+02 0.  0.
          5    1    3    3  501    0 -0.35012799621E+02 -0.28526389800E+02 -0.67179581804E+03  0.67332856926E+03  0.47000000000E+01 0. -1.
        -13    1    4    4    0    0  0.41694000887E+02 -0.35950866141E+01 -0.98960814161E+02  0.10744560064E+03  0.00000000000E+00 0.  1.
         14    1    4    4    0    0  0.40470858658E+02  0.17179256168E+02 -0.55228895934E+03  0.55403620085E+03  0.00000000000E+00 0. -1.
         -5    1    5    5    0  502 -0.44088657199E+02 -0.33102056250E+02  0.52479656474E+02  0.76261131418E+02  0.47000000000E+01 0.  1.
         11    1    6    6    0    0  0.23965344166E+02  0.14686680281E+02  0.14717032725E+02  0.31727391177E+02  0.00000000000E+00 0. -1.
        -12    1    6    6    0    0 -0.27028746891E+02  0.33357596214E+02 -0.54813015956E+02  0.69625779003E+02  0.00000000000E+00 0.  1.
</event>
<event>
12    1  0.8358445E-002  0.2179904E+03  0.7818608E-02  0.1135544E+00
         21   -1    0    0  501  502  0.00000000000E+00  0.00000000000E+00  0.22245107607E+03  0.22245107607E+03  0.00000000000E+00 0. -1.
         21   -1    0    0  502  503 -0.00000000000E+00 -0.00000000000E+00 -0.23414529655E+03  0.23414529655E+03  0.00000000000E+00 0. -1.
         -6    2    1    2    0  503 -0.13100824052E+03  0.22595867217E+02  0.63057041099E+02  0.22614557343E+03  0.17173205190E+03 0.  0.
        -24    2    3    3    0    0 -0.14943580244E+03 -0.88725380487E+01  0.77501894999E+02  0.18664140438E+03  0.80116721840E+02 0.  0.
          6    2    1    2  501    0  0.13100824052E+03 -0.22595867217E+02 -0.74751261577E+02  0.23045079919E+03  0.17276020213E+03 0.  0.
         24    2    5    5    0    0  0.10777059238E+03 -0.37800484876E+02 -0.11523995901E+03  0.18112947207E+03  0.80524904595E+02 0.  0.
          5    1    5    5  501    0  0.23237648142E+02  0.15204617659E+02  0.40488697434E+02  0.49321327123E+02  0.47000000000E+01 0. -1.
        -13    1    6    6    0    0  0.32050578216E+02 -0.52657067824E+02 -0.61649039023E+02  0.87181479503E+02  0.00000000000E+00 0.  1.
         14    1    6    6    0    0  0.75720014163E+02  0.14856582949E+02 -0.53590919987E+02  0.93947992565E+02  0.00000000000E+00 0. -1.
         -5    1    3    3    0  503  0.18427561916E+02  0.31468405265E+02 -0.14444853900E+02  0.39504169050E+02  0.47000000000E+01 0.  1.
         13    1    4    4    0    0 -0.64771532450E+02 -0.88063321301E+01 -0.85483392312E+01  0.65924024492E+02  0.00000000000E+00 0. -1.
        -14    1    4    4    0    0 -0.84664269987E+02 -0.66205918623E-01  0.86050234231E+02  0.12071737989E+03  0.00000000000E+00 0.  1.
</event>
<event>
12    1  0.8358445E-002  0.1887449E+03  0.7818608E-02  0.1159944E+00
         21   -1    0    0  503  502  0.00000000000E+00  0.00000000000E+00  0.30825034888E+03  0.30825034888E+03  0.00000000000E+00 0. -1.
         21   -1    0    0  501  503 -0.00000000000E+00 -0.00000000000E+00 -0.23643148582E+03  0.23643148582E+03  0.00000000000E+00 0. -1.
          6    2    1    2  501    0  0.19200971020E+01  0.76919126884E+02 -0.15961975205E+03  0.24603744040E+03  0.17069188024E+03 0.  0.
         24    2    3    3    0    0  0.20410672591E+02  0.77977700704E+02 -0.34385329058E+02  0.11935368981E+03  0.81029840521E+02 0.  0.
         -6    2    1    2    0  502 -0.19200971020E+01 -0.76919126884E+02  0.23143861510E+03  0.29864439431E+03  0.17234965285E+03 0.  0.
        -24    2    5    5    0    0 -0.27594123424E+02 -0.11442156455E+03  0.18738839543E+03  0.23517707743E+03  0.79624851178E+02 0.  0.
          5    1    3    3  501    0 -0.18490575489E+02 -0.10585738205E+01 -0.12523442299E+03  0.12668375058E+03  0.47000000000E+01 0. -1.
        -13    1    4    4    0    0  0.19619472703E+02  0.93658526013E+02 -0.38462795336E+02  0.10313209893E+03  0.00000000000E+00 0.  1.
         14    1    4    4    0    0  0.79119988784E+00 -0.15680825309E+02  0.40774662782E+01  0.16221590886E+02  0.00000000000E+00 0. -1.
         -5    1    5    5    0  502  0.25674026322E+02  0.37502437665E+02  0.44050219674E+02  0.63467316878E+02  0.47000000000E+01 0.  1.
         13    1    6    6    0    0  0.18115683567E+02 -0.83336723274E+02  0.13016013018E+03  0.15561120437E+03  0.00000000000E+00 0. -1.
        -14    1    6    6    0    0 -0.45709806991E+02 -0.31084841274E+02  0.57228265253E+02  0.79565873061E+02  0.00000000000E+00 0.  1.
</event>
<event>
12    1  0.8358445E-002  0.2247382E+03  0.7818608E-02  0.1130446E+00
         21   -1    0    0  503  502  0.00000000000E+00  0.00000000000E+00  0.45809476186E+03  0.45809476186E+03  0.00000000000E+00 0. -1.
         21   -1    0    0  501  503 -0.00000000000E+00 -0.00000000000E+00 -0.11172275365E+03  0.11172275365E+03  0.00000000000E+00 0.  1.
          6    2    1    2  501    0  0.14222267410E+03  0.30806641635E+02  0.20733090263E+03  0.30576680958E+03  0.17126266510E+03 0.  0.
         24    2    3    3    0    0  0.11402042892E+03  0.60261244574E+02  0.21620729909E+03  0.26376894438E+03  0.78717113960E+02 0.  0.
         -6    2    1    2    0  502 -0.14222267410E+03 -0.30806641635E+02  0.13904110557E+03  0.26405070592E+03  0.17092105798E+03 0.  0.
        -24    2    5    5    0    0 -0.12067807689E+03 -0.49998000494E+02  0.36524520461E+02  0.15744761897E+03  0.79954448465E+02 0.  0.
          5    1    3    3  501    0  0.28202245180E+02 -0.29454602939E+02 -0.88763964553E+01  0.41997865202E+02  0.47000000000E+01 0. -1.
        -11    1    4    4    0    0  0.10140059262E+03  0.13081679603E+02  0.14477192963E+03  0.17723465274E+03  0.00000000000E+00 0.  1.
         12    1    4    4    0    0  0.12619836308E+02  0.47179564971E+02  0.71435369462E+02  0.86534291640E+02  0.00000000000E+00 0. -1.
         -5    1    5    5    0  502 -0.21544597210E+02  0.19191358859E+02  0.10251658511E+03  0.10660308695E+03  0.47000000000E+01 0.  1.
         11    1    6    6    0    0 -0.72372643319E+02  0.62036343486E+01  0.40623756334E+02  0.83226042552E+02  0.00000000000E+00 0. -1.
        -12    1    6    6    0    0 -0.48305433575E+02 -0.56201634843E+02 -0.40992358731E+01  0.74221576422E+02  0.00000000000E+00 0.  1.
</event>
<event>
12    1  0.8358445E-002  0.2271451E+03  0.7818608E-02  0.1128739E+00
         21   -1    0    0  501  502  0.00000000000E+00  0.00000000000E+00  0.12812644900E+04  0.12812644900E+04  0.00000000000E+00 0.  1.
         21   -1    0    0  502  503 -0.00000000000E+00 -0.00000000000E+00 -0.19133015148E+03  0.19133015148E+03  0.00000000000E+00 0. -1.
         -6    2    1    2    0  503  0.14721371723E+03 -0.10281159019E+02 -0.10953458610E+03  0.25180777362E+03  0.17213874791E+03 0.  0.
        -24    2    3    3    0    0  0.14808830645E+03  0.42573359887E+02 -0.89583467074E+02  0.19511119326E+03  0.79375957825E+02 0.  0.
          6    2    1    2  501    0 -0.14721371723E+03  0.10281159019E+02  0.11994689246E+04  0.12207868678E+04  0.17267685095E+03 0.  0.
         24    2    5    5    0    0 -0.12327283970E+03  0.70707144403E+02  0.90038934409E+03  0.91469023147E+03  0.75904909640E+02 0.  0.
          5    1    5    5  501    0 -0.23940877536E+02 -0.60425985384E+02  0.29907958047E+03  0.30609663635E+03  0.47000000000E+01 0. -1.
        -13    1    6    6    0    0 -0.20543136513E+02 -0.10445001495E+02  0.26223084993E+03  0.26324159468E+03  0.00000000000E+00 0.  1.
         14    1    6    6    0    0 -0.10272970318E+03  0.81152145898E+02  0.63815849416E+03  0.65144863678E+03  0.00000000000E+00 0. -1.
         -5    1    3    3    0  503 -0.87458921997E+00 -0.52854518906E+02 -0.19951119021E+02  0.56696580367E+02  0.47000000000E+01 0.  1.
         11    1    4    4    0    0  0.95747273518E+02  0.36072988280E+02 -0.14478471152E+02  0.10333647467E+03  0.00000000000E+00 0. -1.
        -12    1    4    4    0    0  0.52341032935E+02  0.65003716068E+01 -0.75104995923E+02  0.91774718590E+02  0.00000000000E+00 0.  1.
</event>
<event>
12    1  0.8358445E-002  0.2172919E+03  0.7818608E-02  0.1136049E+00
         21   -1    0    0  503  502  0.00000000000E+00  0.00000000000E+00  0.30694511837E+03  0.30694511837E+03  0.00000000000E+00 0. -1.
         21   -1    0    0  501  503 -0.00000000000E+00 -0.00000000000E+00 -0.15340893985E+03  0.15340893985E+03  0.00000000000E+00 0. -1.
          6    2    1    2  501    0 -0.10027285139E+03 -0.86415336328E+02  0.71948989357E+02  0.22889394376E+03  0.17231809349E+03 0.  0.
         24    2    3    3    0    0 -0.55259991463E+02 -0.63178232030E+02 -0.27481841675E+02  0.11720374395E+03  0.77047454954E+02 0.  0.
         -6    2    1    2    0  502  0.10027285139E+03  0.86415336328E+02  0.81587189169E+02  0.23146011446E+03  0.17144987626E+03 0.  0.
        -24    2    5    5    0    0  0.11006846950E+03  0.11611671106E+03  0.87576026388E+02  0.19927188732E+03  0.80259367758E+02 0.  0.
          5    1    3    3  501    0 -0.45012859927E+02 -0.23237104298E+02  0.99430831032E+02  0.11169019981E+03  0.47000000000E+01 0. -1.
        -13    1    4    4    0    0 -0.21092547850E+01  0.52826005149E+01 -0.29961974531E+02  0.30497126779E+02  0.00000000000E+00 0.  1.
         14    1    4    4    0    0 -0.53150736678E+02 -0.68460832545E+02  0.24801328562E+01  0.86706617170E+02  0.00000000000E+00 0. -1.
         -5    1    5    5    0  502 -0.97956181077E+01 -0.29701374731E+02 -0.59888372186E+01  0.32188227138E+02  0.47000000000E+01 0.  1.
         11    1    6    6    0    0  0.64290492577E+02  0.30756229179E+02  0.71743802980E+02  0.10112559684E+03  0.00000000000E+00 0. -1.
        -12    1    6    6    0    0  0.45777976921E+02  0.85360481880E+02  0.15832223408E+02  0.98146290483E+02  0.00000000000E+00 0.  1.
</event>
<event>
12    1  0.8358445E-002  0.2154701E+03  0.7818608E-02  0.1138483E+00
         21   -1    0    0  503  502  0.00000000000E+00  0.00000000000E+00  0.65616505420E+02  0.65616505420E+02  0.00000000000E+00 0. -1.
         21   -1    0    0  501  503 -0.00000000000E+00 -0.00000000000E+00 -0.78987544345E+03  0.78987544345E+03  0.00000000000E+00 0.  1.
          6    2    1    2  501    0  0.99736350572E+02 -0.66237084807E+02 -0.52036395674E+03  0.56321043169E+03  0.17914422082E+03 0.  0.
         24    2    3    3    0    0  0.58646499086E+02 -0.66595703854E+02 -0.50407680211E+03  0.51875971843E+03  0.84521141850E+02 0.  0.
         -6    2    1    2    0  502 -0.99736350572E+02  0.66237084807E+02 -0.20389498129E+03  0.29228151719E+03  0.17181568864E+03 0.  0.
        -24    2    5    5    0    0  0.95735170987E+01  0.33006442194E+02 -0.14089101471E+03  0.16172688271E+03  0.71583720979E+02 0.  0.
          5    1    3    3  501    0  0.41089851486E+02  0.35861904780E+00 -0.16287154639E+02  0.44450713256E+02  0.47000000000E+01 0. -1.
        -11    1    4    4    0    0  0.94716288521E+01  0.77253815306E+01 -0.23483167484E+03  0.23514954557E+03  0.00000000000E+00 0.  1.
         12    1    4    4    0    0  0.49174870234E+02 -0.74321085385E+02 -0.26924512726E+03  0.28361017286E+03  0.00000000000E+00 0. -1.
         -5    1    5    5    0  502 -0.10930986767E+03  0.33230642612E+02 -0.63003966582E+02  0.13055463448E+03  0.47000000000E+01 0.  1.
         13    1    6    6    0    0 -0.10404304468E+02 -0.18150527620E+02 -0.19986265131E+02  0.28933406267E+02  0.00000000000E+00 0. -1.
        -14    1    6    6    0    0  0.19977821567E+02  0.51156969814E+02 -0.12090474958E+03  0.13279347644E+03  0.00000000000E+00 0.  1.
</event>
<event>
12    1  0.8358445E-002  0.1771874E+03  0.7818608E-02  0.1171199E+00
         21   -1    0    0  503  502  0.00000000000E+00  0.00000000000E+00  0.87577453156E+02  0.87577453156E+02  0.00000000000E+00 0.  1.
         21   -1    0    0  501  503 -0.00000000000E+00 -0.00000000000E+00 -0.55117471288E+03  0.55117471288E+03  0.00000000000E+00 0.  1.
          6    2    1    2  501    0 -0.82746694570E+01  0.41462812508E+02 -0.42427078759E+03  0.45978371379E+03  0.17206896084E+03 0.  0.
         24    2    3    3    0    0 -0.56187515564E+01  0.93721701552E+02 -0.29554862757E+03  0.32075303421E+03  0.81964565410E+02 0.  0.
         -6    2    1    2    0  502  0.82746694570E+01 -0.41462812508E+02 -0.39326472127E+02  0.17896845224E+03  0.16939746312E+03 0.  0.
        -24    2    5    5    0    0  0.69886448689E+02 -0.19767574222E+02 -0.31238210672E+02  0.11298205457E+03  0.80710879987E+02 0.  0.
          5    1    3    3  501    0 -0.26559179006E+01 -0.52258889044E+02 -0.12872216002E+03  0.13903067958E+03  0.47000000000E+01 0. -1.
        -13    1    4    4    0    0 -0.89598670533E+01 -0.12611676628E+02 -0.19351150976E+02  0.24775000486E+02  0.00000000000E+00 0.  1.
         14    1    4    4    0    0  0.33411154968E+01  0.10633337818E+03 -0.27619747660E+03  0.29597803372E+03  0.00000000000E+00 0. -1.
         -5    1    5    5    0  502 -0.61611779232E+02 -0.21695238285E+02 -0.80882614549E+01  0.65986397673E+02  0.47000000000E+01 0.  1.
         13    1    6    6    0    0  0.15188393309E+02  0.18182029946E+02 -0.39334254593E+02  0.45917938637E+02  0.00000000000E+00 0. -1.
        -14    1    6    6    0    0  0.54698055380E+02 -0.37949604169E+02  0.80960439211E+01  0.67064115935E+02  0.00000000000E+00 0.  1.
</event>
<event>
12    1  0.8358445E-002  0.1799949E+03  0.7818608E-02  0.1173102E+00
         21   -1    0    0  503  502  0.00000000000E+00  0.00000000000E+00  0.10670336692E+03  0.10670336692E+03  0.00000000000E+00 0.  1.
         21   -1    0    0  501  503 -0.00000000000E+00 -0.00000000000E+00 -0.27249665395E+03  0.27249665395E+03  0.00000000000E+00 0. -1.
          6    2    1    2  501    0 -0.30179659939E+02 -0.45277686939E+02 -0.59858898154E+02  0.17034541729E+03  0.14991194980E+03 0.  0.
         24    2    3    3    0    0 -0.25333406430E+02 -0.28032500859E+02  0.15045679122E+02  0.93185399705E+02  0.83842373966E+02 0.  0.
         -6    2    1    2    0  502  0.30179659939E+02  0.45277686939E+02 -0.10593438888E+03  0.20885460358E+03  0.17157292876E+03 0.  0.
        -24    2    5    5    0    0 -0.12552716274E+02  0.68888548467E+02 -0.24586812309E+02  0.11386488323E+03  0.86356803428E+02 0.  0.
          5    1    3    3  501    0 -0.48462535090E+01 -0.17245186080E+02 -0.74904577276E+02  0.77160017580E+02  0.47000000000E+01 0. -1.
        -13    1    4    4    0    0 -0.52217428020E+02 -0.20691467218E+01 -0.15745407662E+01  0.52282122526E+02  0.00000000000E+00 0.  1.
         14    1    4    4    0    0  0.26884021590E+02 -0.25963354137E+02  0.16620219888E+02  0.40903277180E+02  0.00000000000E+00 0. -1.
         -5    1    5    5    0  502  0.42732376213E+02 -0.23610861528E+02 -0.81347576570E+02  0.94989720353E+02  0.47000000000E+01 0.  1.
         13    1    6    6    0    0 -0.13780876864E+02  0.53903597865E+02 -0.56061445404E+02  0.78983517842E+02  0.00000000000E+00 0. -1.
        -14    1    6    6    0    0  0.12281605901E+01  0.14984950602E+02  0.31474633095E+02  0.34881365390E+02  0.00000000000E+00 0.  1.
</event>
<event>
12    1  0.8358445E-002  0.1778184E+03  0.7818608E-02  0.1169974E+00
         21   -1    0    0  503  502  0.00000000000E+00  0.00000000000E+00  0.37438357825E+03  0.37438357825E+03  0.00000000000E+00 0. -1.
         21   -1    0    0  501  503 -0.00000000000E+00 -0.00000000000E+00 -0.22340446953E+03  0.22340446953E+03  0.00000000000E+00 0. -1.
          6    2    1    2  501    0 -0.39124770226E+02  0.15969460818E+02 -0.16028631528E+03  0.23939736628E+03  0.17272412916E+03 0.  0.
         24    2    3    3    0    0 -0.48328482996E+02  0.65696985342E+02 -0.62178840518E+02  0.12892247489E+03  0.78122085046E+02 0.  0.
         -6    2    1    2    0  502  0.39124770226E+02 -0.15969460818E+02  0.31126542400E+03  0.35839068150E+03  0.17254548699E+03 0.  0.
        -24    2    5    5    0    0  0.45185842027E+02 -0.74299609546E+02  0.18793563584E+03  0.22174709588E+03  0.79308127040E+02 0.  0.
          5    1    3    3  501    0  0.92037127702E+01 -0.49727524524E+02 -0.98107474765E+02  0.11047489140E+03  0.47000000000E+01 0. -1.
        -13    1    4    4    0    0 -0.66933131328E+02  0.57912983886E+02 -0.63155158616E+02  0.10873146661E+03  0.00000000000E+00 0.  1.
         14    1    4    4    0    0  0.18604648332E+02  0.77840014552E+01  0.97631809794E+00  0.20191008277E+02  0.00000000000E+00 0. -1.
         -5    1    5    5    0  502 -0.60610718019E+01  0.58330148728E+02  0.12332978817E+03  0.13664358562E+03  0.47000000000E+01 0.  1.
         13    1    6    6    0    0  0.19794298962E+02 -0.68431959347E+02  0.18138978868E+03  0.19487689132E+03  0.00000000000E+00 0. -1.
        -14    1    6    6    0    0  0.25391543066E+02 -0.58676501992E+01  0.65458471537E+01  0.26870204560E+02  0.00000000000E+00 0.  1.
</event>
<event>
12    1  0.8358445E-002  0.1954634E+03  0.7818608E-02  0.1153874E+00
         21   -1    0    0  501  502  0.00000000000E+00  0.00000000000E+00  0.45264298060E+03  0.45264298060E+03  0.00000000000E+00 0.  1.
         21   -1    0    0  502  503 -0.00000000000E+00 -0.00000000000E+00 -0.91896914671E+02  0.91896914671E+02  0.00000000000E+00 0.  1.
         -6    2    1    2    0  503 -0.48523998872E+00 -0.90960217703E+02  0.10060029369E+03  0.21983255592E+03  0.17300848791E+03 0.  0.
        -24    2    3    3    0    0  0.90036344268E+01 -0.12922808863E+03  0.95388851697E+02  0.17978611025E+03  0.80268599633E+02 0.  0.
          6    2    1    2  501    0  0.48523998872E+00  0.90960217703E+02  0.26014577224E+03  0.32470733935E+03  0.17171207515E+03 0.  0.
         24    2    5    5    0    0  0.53199165736E+02  0.17441340075E+02  0.97524183457E+02  0.13855779067E+03  0.80950252736E+02 0.  0.
          5    1    5    5  501    0 -0.52713925747E+02  0.73518877628E+02  0.16262158878E+03  0.18614954868E+03  0.47000000000E+01 0. -1.
        -11    1    6    6    0    0  0.45215445243E+02  0.48492741356E+02  0.67992848141E+02  0.94968467667E+02  0.00000000000E+00 0.  1.
         12    1    6    6    0    0  0.79837204927E+01 -0.31051401281E+02  0.29531335316E+02  0.43589323004E+02  0.00000000000E+00 0. -1.
         -5    1    3    3    0  503 -0.94888744155E+01  0.38267870929E+02  0.52114419927E+01  0.40046445669E+02  0.47000000000E+01 0.  1.
         13    1    4    4    0    0  0.27094060192E+02 -0.11656790618E+02  0.36870689791E+02  0.47216698644E+02  0.00000000000E+00 0. -1.
        -14    1    4    4    0    0 -0.18090425765E+02 -0.11757129801E+03  0.58518161906E+02  0.13256941161E+03  0.00000000000E+00 0.  1.
</event>
<event>
12    1  0.8358445E-002  0.2072901E+03  0.7818608E-02  0.1144339E+00
         21   -1    0    0  503  502  0.00000000000E+00  0.00000000000E+00  0.13149603678E+03  0.13149603678E+03  0.00000000000E+00 0. -1.
         21   -1    0    0  501  503 -0.00000000000E+00 -0.00000000000E+00 -0.35433201854E+03  0.35433201854E+03  0.00000000000E+00 0. -1.
          6    2    1    2  501    0  0.11058481017E+03 -0.32437678001E+02 -0.37374198702E+02  0.20768196767E+03  0.16868244061E+03 0.  0.
         24    2    3    3    0    0  0.12709858658E+03 -0.28627965435E+02 -0.71800178211E+02  0.16902376302E+03  0.80250581064E+02 0.  0.
         -6    2    1    2    0  502 -0.11058481017E+03  0.32437678001E+02 -0.18546178306E+03  0.27814608765E+03  0.17230197301E+03 0.  0.
        -24    2    5    5    0    0 -0.12237328162E+03 -0.33627976994E+01 -0.82018086234E+02  0.16794930670E+03  0.80582099049E+02 0.  0.
          5    1    3    3  501    0 -0.16513776403E+02 -0.38097125667E+01  0.34425979509E+02  0.38658204641E+02  0.47000000000E+01 0. -1.
        -11    1    4    4    0    0  0.33321360426E+02  0.22542780919E+02  0.13757612263E+00  0.40230696730E+02  0.00000000000E+00 0.  1.
         12    1    4    4    0    0  0.93777226150E+02 -0.51170746354E+02 -0.71937754334E+02  0.12879306629E+03  0.00000000000E+00 0. -1.
         -5    1    5    5    0  502  0.11788471450E+02  0.35800475701E+02 -0.10344369682E+03  0.11019678095E+03  0.47000000000E+01 0.  1.
         13    1    6    6    0    0 -0.41441089982E+02  0.32962227700E+02 -0.52216581859E+02  0.74366953783E+02  0.00000000000E+00 0. -1.
        -14    1    6    6    0    0 -0.80932191642E+02 -0.36325025399E+02 -0.29801504375E+02  0.93582352915E+02  0.00000000000E+00 0.  1.
</event>
<event>
12    1  0.8358445E-002  0.1767580E+03  0.7818608E-02  0.1171447E+00
         21   -1    0    0  503  502  0.00000000000E+00  0.00000000000E+00  0.25680190593E+04  0.25680190593E+04  0.00000000000E+00 0. -1.
         21   -1    0    0  501  503 -0.00000000000E+00 -0.00000000000E+00 -0.14500935802E+02  0.14500935802E+02  0.00000000000E+00 0. -1.
          6    2    1    2  501    0  0.22128464036E+02 -0.33606289125E+02  0.75018784909E+03  0.77073030338E+03  0.17211722759E+03 0.  0.
         24    2    3    3    0    0  0.57321036380E+02 -0.30725898415E+02  0.27233430204E+03  0.29155088372E+03  0.81278310037E+02 0.  0.
         -6    2    1    2    0  502 -0.22128464036E+02  0.33606289125E+02  0.18033302744E+04  0.18117896917E+04  0.17018447890E+03 0.  0.
        -24    2    5    5    0    0 -0.46596840145E+02  0.48842821980E+02  0.17220603958E+04  0.17254315043E+04  0.84053450623E+02 0.  0.
          5    1    3    3  501    0 -0.35192572344E+02 -0.28803907096E+01  0.47785354705E+03  0.47917941966E+03  0.47000000000E+01 0. -1.
        -11    1    4    4    0    0  0.38265383280E+02 -0.94425067187E+01  0.25522823040E+03  0.25825346093E+03  0.00000000000E+00 0.  1.
         12    1    4    4    0    0  0.19055653100E+02 -0.21283391697E+02  0.17106071646E+02  0.33297422788E+02  0.00000000000E+00 0. -1.
         -5    1    5    5    0  502  0.24468376109E+02 -0.15236532855E+02  0.81269878655E+02  0.86358187449E+02  0.47000000000E+01 0.  1.
         11    1    6    6    0    0  0.20514628124E+02  0.86810764685E+00  0.59587235449E+03  0.59622601958E+03  0.00000000000E+00 0. -1.
        -12    1    6    6    0    0 -0.67111468268E+02  0.47974714333E+02  0.11261880413E+04  0.11292054847E+04  0.00000000000E+00 0.  1.
</event>
<event>
12    1  0.8358445E-002  0.1737504E+03  0.7818608E-02  0.1174372E+00
         21   -1    0    0  501  502  0.00000000000E+00  0.00000000000E+00  0.52138648060E+03  0.52138648060E+03  0.00000000000E+00 0. -1.
         21   -1    0    0  502  503 -0.00000000000E+00 -0.00000000000E+00 -0.60075166121E+02  0.60075166121E+02  0.00000000000E+00 0. -1.
         -6    2    1    2    0  503  0.21926067681E+02 -0.10522365865E+02  0.17032432241E+03  0.24330964060E+03  0.17203991915E+03 0.  0.
        -24    2    3    3    0    0 -0.14912350937E+01 -0.31158300706E+02  0.18857589836E+03  0.20684840227E+03  0.79071667462E+02 0.  0.
          6    2    1    2  501    0 -0.21926067681E+02  0.10522365865E+02  0.29098699207E+03  0.33815200611E+03  0.17053409353E+03 0.  0.
         24    2    5    5    0    0 -0.72428936624E+02 -0.99174789324E+01  0.24163951619E+03  0.26449339900E+03  0.78884694829E+02 0.  0.
          5    1    5    5  501    0  0.50502868944E+02  0.20439844797E+02  0.49347475875E+02  0.73658607114E+02  0.47000000000E+01 0. -1.
        -11    1    6    6    0    0 -0.22311327965E+02  0.57943902231E+01  0.70637427662E+01  0.24109474807E+02  0.00000000000E+00 0.  1.
         12    1    6    6    0    0 -0.50117608659E+02 -0.15711869155E+02  0.23457577343E+03  0.24038392419E+03  0.00000000000E+00 0. -1.
         -5    1    3    3    0  503  0.23417302775E+02  0.20635934841E+02 -0.18251575953E+02  0.36461238333E+02  0.47000000000E+01 0.  1.
         13    1    4    4    0    0 -0.15773682644E+02  0.97409436502E+01  0.64312496593E+01  0.19622844329E+02  0.00000000000E+00 0. -1.
        -14    1    4    4    0    0  0.14282447551E+02 -0.40899244356E+02  0.18214464870E+03  0.18722555794E+03  0.00000000000E+00 0.  1.
</event>
<event>
12    1  0.8358445E-002  0.2686822E+03  0.7818608E-02  0.1102099E+00
         21   -1    0    0  501  502  0.00000000000E+00  0.00000000000E+00  0.35249853635E+03  0.35249853635E+03  0.00000000000E+00 0. -1.
         21   -1    0    0  502  503 -0.00000000000E+00 -0.00000000000E+00 -0.24019401486E+03  0.24019401486E+03  0.00000000000E+00 0. -1.
         -6    2    1    2    0  503  0.12895526116E+03 -0.16384952482E+03 -0.58106591800E+02  0.27489362511E+03  0.16945206681E+03 0.  0.
        -24    2    3    3    0    0  0.13168073153E+02 -0.18931189814E+02  0.38429587175E+01  0.79271965932E+02  0.75746208834E+02 0.  0.
          6    2    1    2  501    0 -0.12895526116E+03  0.16384952482E+03  0.17041111329E+03  0.31779892610E+03  0.16876043295E+03 0.  0.
         24    2    5    5    0    0 -0.41454769249E+02  0.34871663149E+02  0.15381638055E+02  0.97917473767E+02  0.80104345047E+02 0.  0.
          5    1    5    5  501    0 -0.87500491910E+02  0.12897786168E+03  0.15502947524E+03  0.21988145233E+03  0.47000000000E+01 0. -1.
        -11    1    6    6    0    0  0.16986719895E+02  0.34203890906E+02  0.43023092374E+01  0.38431298061E+02  0.00000000000E+00 0.  1.
         12    1    6    6    0    0 -0.58441489143E+02  0.66777224281E+00  0.11079328818E+02  0.59486175706E+02  0.00000000000E+00 0. -1.
         -5    1    3    3    0  503  0.11578718801E+03 -0.14491833501E+03 -0.61949550517E+02  0.19562165917E+03  0.47000000000E+01 0.  1.
         13    1    4    4    0    0 -0.17695018320E+02  0.14805036341E+02 -0.17357942924E+02  0.28872148464E+02  0.00000000000E+00 0. -1.
        -14    1    4    4    0    0  0.30863091472E+02 -0.33736226155E+02  0.21200901642E+02  0.50399817468E+02  0.00000000000E+00 0.  1.
</event>
<event>
12    1  0.8358445E-002  0.2348501E+03  0.7818608E-02  0.1125436E+00
         21   -1    0    0  503  502  0.00000000000E+00  0.00000000000E+00  0.35704710817E+03  0.35704710817E+03  0.00000000000E+00 0. -1.
         21   -1    0    0  501  503 -0.00000000000E+00 -0.00000000000E+00 -0.23468411198E+03  0.23468411198E+03  0.00000000000E+00 0. -1.
          6    2    1    2  501    0 -0.10004039496E+03 -0.10062155558E+03 -0.11911156597E+03  0.26332894799E+03  0.18714110086E+03 0.  0.
         24    2    3    3    0    0 -0.43345615538E+02 -0.96083441310E+02  0.36162978582E+00  0.13092491860E+03  0.77655221681E+02 0.  0.
         -6    2    1    2    0  502  0.10004039496E+03  0.10062155558E+03  0.24147456216E+03  0.32840227215E+03  0.17147976589E+03 0.  0.
        -24    2    5    5    0    0  0.12458059362E+03  0.68379998315E+02  0.23462101679E+03  0.28704044857E+03  0.84552049776E+02 0.  0.
          5    1    3    3  501    0 -0.56694779418E+02 -0.45381142699E+01 -0.11947319576E+03  0.13240402939E+03  0.47000000000E+01 0. -1.
        -13    1    4    4    0    0 -0.22710299884E+02  0.13157159381E+01  0.18993855385E+02  0.29635373654E+02  0.00000000000E+00 0.  1.
         14    1    4    4    0    0 -0.20635315654E+02 -0.97399157248E+02 -0.18632225599E+02  0.10128954495E+03  0.00000000000E+00 0. -1.
         -5    1    5    5    0  502 -0.24540198662E+02  0.32241557266E+02  0.68535453691E+01  0.41361823575E+02  0.47000000000E+01 0.  1.
         11    1    6    6    0    0  0.96972127436E+02  0.81029670592E+01  0.11859354014E+03  0.15340690773E+03  0.00000000000E+00 0. -1.
        -12    1    6    6    0    0  0.27608466182E+02  0.60277031255E+02  0.11602747665E+03  0.13363354085E+03  0.00000000000E+00 0.  1.
</event>
<event>
12    1  0.8358445E-002  0.2133441E+03  0.7818608E-02  0.1139005E+00
         21   -1    0    0  501  502  0.00000000000E+00  0.00000000000E+00  0.11198768410E+03  0.11198768410E+03  0.00000000000E+00 0. -1.
         21   -1    0    0  502  503 -0.00000000000E+00 -0.00000000000E+00 -0.58121945803E+03  0.58121945803E+03  0.00000000000E+00 0. -1.
         -6    2    1    2    0  503 -0.68281402191E+02  0.10605741882E+03 -0.42512286080E+03  0.47565235151E+03  0.17206157837E+03 0.  0.
        -24    2    3    3    0    0 -0.60048302063E+02  0.14152612915E+03 -0.36838364059E+03  0.40807097494E+03  0.84734704324E+02 0.  0.
          6    2    1    2  501    0  0.68281402191E+02 -0.10605741882E+03 -0.44108913128E+02  0.21755479061E+03  0.17167983203E+03 0.  0.
         24    2    5    5    0    0  0.65333236051E+02 -0.71141122876E+02 -0.93309262803E+02  0.15696928232E+03  0.81260359165E+02 0.  0.
          5    1    5    5  501    0  0.29481661406E+01 -0.34916295945E+02  0.49200349674E+02  0.60585508285E+02  0.47000000000E+01 0. -1.
        -11    1    6    6    0    0  0.75421289703E+02 -0.26023774333E+02 -0.63385726826E+02  0.10189876416E+03  0.00000000000E+00 0.  1.
         12    1    6    6    0    0 -0.10088053653E+02 -0.45117348543E+02 -0.29923535976E+02  0.55070518169E+02  0.00000000000E+00 0. -1.
         -5    1    3    3    0  503 -0.82331001284E+01 -0.35468710328E+02 -0.56739220210E+02  0.67581376577E+02  0.47000000000E+01 0.  1.
         11    1    4    4    0    0 -0.53878019016E+02  0.43395293770E+02 -0.21519847281E+03  0.22604507328E+03  0.00000000000E+00 0. -1.
        -12    1    4    4    0    0 -0.61702830464E+01  0.98130835379E+02 -0.15318516778E+03  0.18202590165E+03  0.00000000000E+00 0.  1.
</event>
<event>
12    1  0.8358445E-002  0.2019451E+03  0.7818608E-02  0.1148143E+00
         21   -1    0    0  501  502  0.00000000000E+00  0.00000000000E+00  0.91954998450E+02  0.91954998450E+02  0.00000000000E+00 0. -1.
         21   -1    0    0  502  503 -0.00000000000E+00 -0.00000000000E+00 -0.44319059725E+03  0.44319059725E+03  0.00000000000E+00 0. -1.
         -6    2    1    2    0  503  0.10393357315E+03  0.21119071118E+02 -0.17258322179E+03  0.26564412400E+03  0.17185351139E+03 0.  0.
        -24    2    3    3    0    0  0.78669515848E+02  0.68942451011E+02 -0.68300727912E+02  0.14807594469E+03  0.79495545076E+02 0.  0.
          6    2    1    2  501    0 -0.10393357315E+03 -0.21119071118E+02 -0.17865237701E+03  0.26950147170E+03  0.17165712524E+03 0.  0.
         24    2    5    5    0    0 -0.52253968193E+02  0.50503317045E+02 -0.62153205928E+02  0.12323221684E+03  0.77730920724E+02 0.  0.
          5    1    5    5  501    0 -0.51679604962E+02 -0.71622388163E+02 -0.11649917108E+03  0.14626925486E+03  0.47000000000E+01 0. -1.
        -11    1    6    6    0    0 -0.29856956671E+02 -0.10287932270E+02 -0.47122343485E+02  0.56725608570E+02  0.00000000000E+00 0.  1.
         12    1    6    6    0    0 -0.22397011521E+02  0.60791249315E+02 -0.15030862443E+02  0.66506608274E+02  0.00000000000E+00 0. -1.
         -5    1    3    3    0  503  0.25264057307E+02 -0.47823379893E+02 -0.10428249388E+03  0.11756817931E+03  0.47000000000E+01 0.  1.
         11    1    4    4    0    0  0.85244009082E+02  0.81021492576E+02 -0.60249940069E+02  0.13214037469E+03  0.00000000000E+00 0. -1.
        -12    1    4    4    0    0 -0.65744932343E+01 -0.12079041565E+02 -0.80507878432E+01  0.15935570003E+02  0.00000000000E+00 0.  1.
</event>
<event>
12    1  0.8358445E-002  0.2327513E+03  0.7818608E-02  0.1124787E+00
         21   -1    0    0  503  502  0.00000000000E+00  0.00000000000E+00  0.27596648750E+03  0.27596648750E+03  0.00000000000E+00 0. -1.
         21   -1    0    0  501  503 -0.00000000000E+00 -0.00000000000E+00 -0.29180917368E+03  0.29180917368E+03  0.00000000000E+00 0. -1.
          6    2    1    2  501    0  0.14299946503E+03  0.62739385123E+02 -0.17062072026E+03  0.28859069512E+03  0.17259224108E+03 0.  0.
         24    2    3    3    0    0  0.11670996246E+03  0.83263845637E+02 -0.18880232767E+03  0.25031469385E+03  0.80355732172E+02 0.  0.
         -6    2    1    2    0  502 -0.14299946503E+03 -0.62739385123E+02  0.15477803407E+03  0.27918496606E+03  0.17205501445E+03 0.  0.
        -24    2    5    5    0    0 -0.14995693753E+03 -0.33455772072E+01  0.12899953207E+03  0.21389597765E+03  0.81316259017E+02 0.  0.
          5    1    3    3  501    0  0.26289502568E+02 -0.20524460514E+02  0.18181607420E+02  0.38276001267E+02  0.47000000000E+01 0. -1.
        -11    1    4    4    0    0  0.13707202520E+01  0.30321258512E+02 -0.11907814830E+02  0.32604503458E+02  0.00000000000E+00 0.  1.
         12    1    4    4    0    0  0.11533924221E+03  0.52942587125E+02 -0.17689451284E+03  0.21771019039E+03  0.00000000000E+00 0. -1.
         -5    1    5    5    0  502  0.69574724975E+01 -0.59393807916E+02  0.25778501999E+02  0.65288988410E+02  0.47000000000E+01 0.  1.
         13    1    6    6    0    0 -0.16014059533E+02  0.27061727989E+02  0.37113632772E+02  0.48643693959E+02  0.00000000000E+00 0. -1.
        -14    1    6    6    0    0 -0.13394287800E+03 -0.30407305196E+02  0.91885899301E+02  0.16525228369E+03  0.00000000000E+00 0.  1.
</event>
<event>
12    1  0.8358445E-002  0.1853328E+03  0.7818608E-02  0.1164180E+00
         21   -1    0    0  503  502  0.00000000000E+00  0.00000000000E+00  0.10063287840E+04  0.10063287840E+04  0.00000000000E+00 0. -1.
         21   -1    0    0  501  503 -0.00000000000E+00 -0.00000000000E+00 -0.45685392203E+02  0.45685392203E+02  0.00000000000E+00 0. -1.
          6    2    1    2  501    0 -0.48800729400E+02  0.20069785316E+02  0.20920499247E+03  0.27949054205E+03  0.17766239542E+03 0.  0.
         24    2    3    3    0    0 -0.32948837099E+01 -0.57044246365E+02  0.10125592886E+03  0.13916076542E+03  0.76472565020E+02 0.  0.
         -6    2    1    2    0  502  0.48800729400E+02 -0.20069785316E+02  0.75143839931E+03  0.77252363414E+03  0.17131488515E+03 0.  0.
        -24    2    5    5    0    0  0.20025407935E+02  0.54910563270E+02  0.40671310156E+03  0.41853536780E+03  0.79624871707E+02 0.  0.
          5    1    3    3  501    0 -0.45505845690E+02  0.77114031681E+02  0.10794906361E+03  0.14032977663E+03  0.47000000000E+01 0. -1.
        -11    1    4    4    0    0 -0.26498592937E+02 -0.60727947737E+02  0.93142917975E+02  0.11430512776E+03  0.00000000000E+00 0.  1.
         12    1    4    4    0    0  0.23203709227E+02  0.36837013712E+01  0.81130108840E+01  0.24855637656E+02  0.00000000000E+00 0. -1.
         -5    1    5    5    0  502  0.28775321465E+02 -0.74980348585E+02  0.34472529775E+03  0.35398826634E+03  0.47000000000E+01 0.  1.
         13    1    6    6    0    0 -0.27471057097E+02  0.18846441203E+02  0.22058864379E+03  0.22309010980E+03  0.00000000000E+00 0. -1.
        -14    1    6    6    0    0  0.47496465032E+02  0.36064122067E+02  0.18612445778E+03  0.19544525800E+03  0.00000000000E+00 0.  1.
</event>
<event>
12    1  0.8358445E-002  0.2083015E+03  0.7818608E-02  0.1142930E+00
         21   -1    0    0  503  502  0.00000000000E+00  0.00000000000E+00  0.68966457617E+03  0.68966457617E+03  0.00000000000E+00 0.  1.
         21   -1    0    0  501  503 -0.00000000000E+00 -0.00000000000E+00 -0.84621575876E+02  0.84621575876E+02  0.00000000000E+00 0.  1.
          6    2    1    2  501    0  0.10817318826E+03 -0.46991486277E+02  0.10632237063E+03  0.23381249469E+03  0.17162225303E+03 0.  0.
         24    2    3    3    0    0  0.10055117101E+03  0.23299602990E+02  0.98298358911E+02  0.16250045404E+03  0.78041147528E+02 0.  0.
         -6    2    1    2    0  502 -0.10817318826E+03  0.46991486277E+02  0.49872062966E+03  0.54047365736E+03  0.17169702795E+03 0.  0.
        -24    2    5    5    0    0 -0.13441171175E+03  0.31105332852E+02  0.31059455788E+03  0.34980551930E+03  0.82830380664E+02 0.  0.
          5    1    3    3  501    0  0.76220172520E+01 -0.70291089267E+02  0.80240117205E+01  0.71312040648E+02  0.47000000000E+01 0. -1.
        -11    1    4    4    0    0  0.74118369583E+02  0.24102859556E+02  0.20876116542E+02  0.80686385409E+02  0.00000000000E+00 0.  1.
         12    1    4    4    0    0  0.26432801426E+02 -0.80325656633E+00  0.77422242369E+02  0.81814068630E+02  0.00000000000E+00 0. -1.
         -5    1    5    5    0  502  0.26238523491E+02  0.15886153425E+02  0.18812607178E+03  0.19066813806E+03  0.47000000000E+01 0.  1.
         13    1    6    6    0    0 -0.74686296392E+02 -0.67531940651E+01  0.84824118634E+02  0.11322004946E+03  0.00000000000E+00 0. -1.
        -14    1    6    6    0    0 -0.59725415361E+02  0.37858526918E+02  0.22577043925E+03  0.23658546984E+03  0.00000000000E+00 0.  1.
</event>
<event>
12    1  0.8358445E-002  0.1859817E+03  0.7818608E-02  0.1163396E+00
         21   -1    0    0  503  502  0.00000000000E+00  0.00000000000E+00  0.25383251237E+03  0.25383251237E+03  0.00000000000E+00 0. -1.
         21   -1    0    0  501  503 -0.00000000000E+00 -0.00000000000E+00 -0.15746429662E+03  0.15746429662E+03  0.00000000000E+00 0. -1.
          6    2    1    2  501    0  0.23433210642E+02  0.45165856094E+02 -0.34485484784E+02  0.18389431759E+03  0.17331705474E+03 0.  0.
         24    2    3    3    0    0  0.65993844105E+02 -0.28029545925E+01 -0.69892043603E+02  0.11049044353E+03  0.54407686388E+02 0.  0.
         -6    2    1    2    0  502 -0.23433210642E+02 -0.45165856094E+02  0.13085370054E+03  0.22740249141E+03  0.17888580781E+03 0.  0.
        -24    2    5    5    0    0 -0.21600388122E+02 -0.16850148362E+02  0.16368230400E+03  0.18375680722E+03  0.78893366567E+02 0.  0.
          5    1    3    3  501    0 -0.42560633463E+02  0.47968810686E+02  0.35406558819E+02  0.73403874058E+02  0.47000000000E+01 0. -1.
        -11    1    4    4    0    0  0.75052546214E+01 -0.20918862294E+02 -0.85312179118E+01  0.23805657430E+02  0.00000000000E+00 0.  1.
         12    1    4    4    0    0  0.58488589483E+02  0.18115907702E+02 -0.61360825691E+02  0.86684786099E+02  0.00000000000E+00 0. -1.
         -5    1    5    5    0  502 -0.18328225202E+01 -0.28315707732E+02 -0.32828603467E+02  0.43645684189E+02  0.47000000000E+01 0.  1.
         13    1    6    6    0    0 -0.11184342329E+02 -0.46807061366E+02  0.12363889181E+03  0.13267466252E+03  0.00000000000E+00 0. -1.
        -14    1    6    6    0    0 -0.10416045793E+02  0.29956913004E+02  0.40043412191E+02  0.51082144694E+02  0.00000000000E+00 0.  1.
</event>
<event>
12    1  0.8358445E-002  0.1969952E+03  0.7818608E-02  0.1152732E+00
         21   -1    0    0  501  502  0.00000000000E+00  0.00000000000E+00  0.10217953399E+03  0.10217953399E+03  0.00000000000E+00 0.  1.
         21   -1    0    0  502  503 -0.00000000000E+00 -0.00000000000E+00 -0.93283418103E+03  0.93283418103E+03  0.00000000000E+00 0.  1.
         -6    2    1    2    0  503  0.66223541546E+02  0.66635617608E+02 -0.81602829412E+03  0.83946964372E+03  0.17315092532E+03 0.  0.
        -24    2    3    3    0    0  0.51327567055E+02  0.10756059192E+03 -0.49654783027E+03  0.51700010972E+03  0.80780973185E+02 0.  0.
          6    2    1    2  501    0 -0.66223541546E+02 -0.66635617608E+02 -0.14626352924E+02  0.19554407130E+03  0.17087331750E+03 0.  0.
         24    2    5    5    0    0  0.20321499753E+02 -0.83658383325E+01  0.22783551307E+02  0.84607141989E+02  0.78462269036E+02 0.  0.
          5    1    5    5  501    0 -0.86545041299E+02 -0.58269779275E+02 -0.37409904231E+02  0.11093692931E+03  0.47000000000E+01 0. -1.
        -13    1    6    6    0    0 -0.23559747483E+02 -0.62343104608E+01  0.31490827361E+02  0.39819599901E+02  0.00000000000E+00 0.  1.
         14    1    6    6    0    0  0.43881247236E+02 -0.21315278717E+01 -0.87072760537E+01  0.44787542089E+02  0.00000000000E+00 0. -1.
         -5    1    3    3    0  503  0.14895974491E+02 -0.40924974317E+02 -0.31948046385E+03  0.32246953400E+03  0.47000000000E+01 0.  1.
         13    1    4    4    0    0  0.14704940723E+02  0.94171525700E+02 -0.25314763765E+03  0.27049628091E+03  0.00000000000E+00 0. -1.
        -14    1    4    4    0    0  0.36622626332E+02  0.13389066224E+02 -0.24340019261E+03  0.24650382881E+03  0.00000000000E+00 0.  1.
</event>
<event>
12    1  0.8358445E-002  0.2194290E+03  0.7818608E-02  0.1134366E+00
         21   -1    0    0  503  502  0.00000000000E+00  0.00000000000E+00  0.12792085402E+04  0.12792085402E+04  0.00000000000E+00 0.  1.
         21   -1    0    0  501  503 -0.00000000000E+00 -0.00000000000E+00 -0.15370264869E+03  0.15370264869E+03  0.00000000000E+00 0.  1.
          6    2    1    2  501    0  0.99355117021E+02 -0.90668371188E+02 -0.60061322405E+02  0.22720860636E+03  0.17298611373E+03 0.  0.
         24    2    3    3    0    0  0.79498951560E+02  0.71855613547E+01 -0.21701940703E+02  0.12014231108E+03  0.87129128828E+02 0.  0.
         -6    2    1    2    0  502 -0.99355117021E+02  0.90668371188E+02  0.11855672139E+04  0.12057025825E+04  0.17336927634E+03 0.  0.
        -24    2    5    5    0    0 -0.10517281675E+03  0.59036312958E+02  0.11431023998E+04  0.11522256419E+04  0.79963903282E+02 0.  0.
          5    1    3    3  501    0  0.19856165461E+02 -0.97853932542E+02 -0.38359381702E+02  0.10706629528E+03  0.47000000000E+01 0. -1.
        -11    1    4    4    0    0  0.14231714362E+02  0.19952321583E+02 -0.43692570118E+02  0.50096681665E+02  0.00000000000E+00 0.  1.
         12    1    4    4    0    0  0.65267237198E+02 -0.12766760229E+02  0.21990629415E+02  0.70045629416E+02  0.00000000000E+00 0. -1.
         -5    1    5    5    0  502  0.58176997293E+01  0.31632058229E+02  0.42464814075E+02  0.53476940566E+02  0.47000000000E+01 0.  1.
         11    1    6    6    0    0 -0.42219613606E+02 -0.52895789111E+00  0.16594268823E+03  0.17123011227E+03  0.00000000000E+00 0. -1.
        -12    1    6    6    0    0 -0.62953203145E+02  0.59565270849E+02  0.97715971159E+03  0.98099552966E+03  0.00000000000E+00 0.  1.
</event>
<event>
12    1  0.8358445E-002  0.1784763E+03  0.7818608E-02  0.1169289E+00
         21   -1    0    0  503  502  0.00000000000E+00  0.00000000000E+00  0.57633665110E+02  0.57633665110E+02  0.00000000000E+00 0. -1.
         21   -1    0    0  501  503 -0.00000000000E+00 -0.00000000000E+00 -0.27524992988E+04  0.27524992988E+04  0.00000000000E+00 0. -1.
          6    2    1    2  501    0 -0.83421639151E+01 -0.47929390537E+02 -0.26035377066E+04  0.26096470895E+04  0.17170475830E+03 0.  0.
         24    2    3    3    0    0 -0.70930867044E+02 -0.33789555253E+02 -0.18345845363E+04  0.18380070511E+04  0.79978605484E+02 0.  0.
         -6    2    1    2    0  502  0.83421639151E+01  0.47929390537E+02 -0.91327927055E+02  0.20048587435E+03  0.17171772586E+03 0.  0.
        -24    2    5    5    0    0  0.52704064177E+02 -0.16017941007E+02 -0.30278912053E+02  0.10145905152E+03  0.79641909854E+02 0.  0.
          5    1    3    3  501    0  0.62588703129E+02 -0.14139835284E+02 -0.76895317034E+03  0.77164003841E+03  0.47000000000E+01 0. -1.
        -13    1    4    4    0    0 -0.32681316804E+02 -0.48794390504E+02 -0.14590628979E+04  0.14602443292E+04  0.00000000000E+00 0.  1.
         14    1    4    4    0    0 -0.38249550240E+02  0.15004835251E+02 -0.37552163839E+03  0.37776272192E+03  0.00000000000E+00 0. -1.
         -5    1    5    5    0  502 -0.44361900262E+02  0.63947331544E+02 -0.61049015002E+02  0.99026822827E+02  0.47000000000E+01 0.  1.
         11    1    6    6    0    0  0.14385065530E+02  0.31955985926E+02 -0.66477457367E+01  0.35669422062E+02  0.00000000000E+00 0. -1.
        -12    1    6    6    0    0  0.38318998647E+02 -0.47973926933E+02 -0.23631166316E+02  0.65789629457E+02  0.00000000000E+00 0.  1.
</event>
<event>
12    1  0.8358445E-002  0.1830357E+03  0.7818608E-02  0.1165225E+00
         21   -1    0    0  501  502  0.00000000000E+00  0.00000000000E+00  0.55008805397E+03  0.55008805397E+03  0.00000000000E+00 0. -1.
         21   -1    0    0  502  503 -0.00000000000E+00 -0.00000000000E+00 -0.63910705890E+02  0.63910705890E+02  0.00000000000E+00 0.  1.
         -6    2    1    2    0  503  0.38225992665E+02 -0.38231269387E+02  0.17246191182E+03  0.25148591755E+03  0.17486909167E+03 0.  0.
        -24    2    3    3    0    0  0.37619325715E+02  0.45127535500E+02  0.88078603377E+02  0.13277748844E+03  0.80126855274E+02 0.  0.
          6    2    1    2  501    0 -0.38225992665E+02  0.38231269387E+02  0.31371543626E+03  0.36251284231E+03  0.17342240172E+03 0.  0.
         24    2    5    5    0    0 -0.21709123450E+01 -0.43957210531E+02  0.14039441608E+03  0.16727662364E+03  0.79585975710E+02 0.  0.
          5    1    5    5  501    0 -0.36055080320E+02  0.82188479918E+02  0.17332102018E+03  0.19523621868E+03  0.47000000000E+01 0. -1.
        -13    1    6    6    0    0  0.32069953417E+02 -0.20000355528E+02  0.27061641395E+02  0.46484713276E+02  0.00000000000E+00 0.  1.
         14    1    6    6    0    0 -0.34240865762E+02 -0.23956855003E+02  0.11333277469E+03  0.12079191036E+03  0.00000000000E+00 0. -1.
         -5    1    3    3    0  503  0.60666695019E+00 -0.83358804887E+02  0.84383308442E+02  0.11870842910E+03  0.47000000000E+01 0.  1.
         13    1    4    4    0    0  0.12565473374E+02  0.39326132194E+02  0.97109571191E+02  0.10552110979E+03  0.00000000000E+00 0. -1.
        -14    1    4    4    0    0  0.25053852341E+02  0.58014033064E+01 -0.90309678144E+01  0.27256378650E+02  0.00000000000E+00 0.  1.
</event>
<event>
12    1  0.8358445E-002  0.2220703E+03  0.7818608E-02  0.1132421E+00
         21   -1    0    0  503  502  0.00000000000E+00  0.00000000000E+00  0.62460227484E+02  0.62460227484E+02  0.00000000000E+00 0.  1.
         21   -1    0    0  501  503 -0.00000000000E+00 -0.00000000000E+00 -0.83911099808E+03  0.83911099808E+03  0.00000000000E+00 0.  1.
          6    2    1    2  501    0  0.13569004508E+03 -0.34209156646E+02 -0.49908845352E+03  0.54610524510E+03  0.17192905385E+03 0.  0.
         24    2    3    3    0    0  0.51796532933E+02  0.45861741335E+02 -0.23092314689E+03  0.25389950977E+03  0.79707472340E+02 0.  0.
         -6    2    1    2    0  502 -0.13569004508E+03  0.34209156646E+02 -0.27756231708E+03  0.35546598047E+03  0.17243308463E+03 0.  0.
        -24    2    5    5    0    0 -0.10190648091E+03 -0.43548860334E+02 -0.18115582229E+03  0.22699831664E+03  0.80183350627E+02 0.  0.
          5    1    3    3  501    0  0.83893512146E+02 -0.80070897981E+02 -0.26816530662E+03  0.29220573533E+03  0.47000000000E+01 0. -1.
        -11    1    4    4    0    0 -0.62849751469E+01  0.82095753441E+01 -0.13614294650E+03  0.13653497692E+03  0.00000000000E+00 0.  1.
         12    1    4    4    0    0  0.58081508080E+02  0.37652165991E+02 -0.94780200391E+02  0.11736453285E+03  0.00000000000E+00 0. -1.
         -5    1    5    5    0  502 -0.33783564167E+02  0.77758016979E+02 -0.96406494787E+02  0.12846766383E+03  0.47000000000E+01 0.  1.
         13    1    6    6    0    0 -0.49806216713E+02 -0.49434365883E+02 -0.15100902493E+03  0.16651769085E+03  0.00000000000E+00 0. -1.
        -14    1    6    6    0    0 -0.52100264198E+02  0.58855055498E+01 -0.30146797360E+02  0.60480625792E+02  0.00000000000E+00 0.  1.
</event>
<event>
12    1  0.8358445E-002  0.2127680E+03  0.7818608E-02  0.1140180E+00
         21   -1    0    0  501  502  0.00000000000E+00  0.00000000000E+00  0.62567882272E+03  0.62567882272E+03  0.00000000000E+00 0.  1.
         21   -1    0    0  502  503 -0.00000000000E+00 -0.00000000000E+00 -0.71569725241E+02  0.71569725241E+02  0.00000000000E+00 0.  1.
         -6    2    1    2    0  503  0.58631164712E+02 -0.10277171147E+03  0.24329883006E+03  0.32058790268E+03  0.17199605949E+03 0.  0.
        -24    2    3    3    0    0 -0.30915013265E+02 -0.61715171193E+02  0.74353228439E+02  0.12496361023E+03  0.72958898708E+02 0.  0.
          6    2    1    2  501    0 -0.58631164712E+02  0.10277171147E+03  0.31081026742E+03  0.37666064529E+03  0.17683489820E+03 0.  0.
         24    2    5    5    0    0  0.25093611623E+02  0.97706993781E+02  0.20042281846E+03  0.23794161839E+03  0.79186877832E+02 0.  0.
          5    1    5    5  501    0 -0.83724776335E+02  0.50647176853E+01  0.11038744895E+03  0.13871902690E+03  0.47000000000E+01 0. -1.
        -13    1    6    6    0    0  0.24385872843E+02  0.81406044733E+02  0.80966925848E+02  0.11737656493E+03  0.00000000000E+00 0.  1.
         14    1    6    6    0    0  0.70773877996E+00  0.16300949048E+02  0.11945589262E+03  0.12056505346E+03  0.00000000000E+00 0. -1.
         -5    1    3    3    0  503  0.89546177977E+02 -0.41056540274E+02  0.16894560162E+03  0.19562429245E+03  0.47000000000E+01 0.  1.
         13    1    4    4    0    0  0.11980779633E+02 -0.47105584266E+02  0.16188819804E+02  0.51230391725E+02  0.00000000000E+00 0. -1.
        -14    1    4    4    0    0 -0.42895792898E+02 -0.14609586927E+02  0.58164408635E+02  0.73733218500E+02  0.00000000000E+00 0.  1.
</event>
<event>
12    1  0.8358445E-002  0.2228387E+03  0.7818608E-02  0.1131950E+00
         21   -1    0    0  503  502  0.00000000000E+00  0.00000000000E+00  0.91220527813E+02  0.91220527813E+02  0.00000000000E+00 0. -1.
         21   -1    0    0  501  503 -0.00000000000E+00 -0.00000000000E+00 -0.54446087604E+03  0.54446087604E+03  0.00000000000E+00 0.  1.
          6    2    1    2  501    0 -0.84542852269E+02  0.11346653212E+03 -0.20550226940E+03  0.30246791531E+03  0.17097809591E+03 0.  0.
         24    2    3    3    0    0 -0.11808329334E+03  0.54074254166E+02 -0.13515004686E+03  0.20436628900E+03  0.81439276666E+02 0.  0.
         -6    2    1    2    0  502  0.84542852269E+02 -0.11346653212E+03 -0.24773807883E+03  0.33321348855E+03  0.17214797549E+03 0.  0.
        -24    2    5    5    0    0  0.92849174490E+02 -0.12826702678E+03 -0.25794495758E+03  0.31285863643E+03  0.79192966148E+02 0.  0.
          5    1    3    3  501    0  0.33540441070E+02  0.59392277956E+02 -0.70352222539E+02  0.98101626307E+02  0.47000000000E+01 0. -1.
        -11    1    4    4    0    0 -0.23995834260E+02 -0.12514093005E+02 -0.43258463017E+00  0.27066394571E+02  0.00000000000E+00 0.  1.
         12    1    4    4    0    0 -0.94087459079E+02  0.66588347171E+02 -0.13471746223E+03  0.17729989443E+03  0.00000000000E+00 0. -1.
         -5    1    5    5    0  502 -0.83063222208E+01  0.14800494654E+02  0.10206878752E+02  0.20354852116E+02  0.47000000000E+01 0.  1.
         11    1    6    6    0    0 -0.13596208793E+02 -0.67144920009E+01 -0.27696127587E+02  0.31575572516E+02  0.00000000000E+00 0. -1.
        -12    1    6    6    0    0  0.10644538328E+03 -0.12155253477E+03 -0.23024882999E+03  0.28128306391E+03  0.00000000000E+00 0.  1.
</event>
<event>
12    1  0.8358445E-002  0.1959132E+03  0.7818608E-02  0.1153346E+00
         21   -1    0    0  503  502  0.00000000000E+00  0.00000000000E+00  0.10143533456E+03  0.10143533456E+03  0.00000000000E+00 0. -1.
         21   -1    0    0  501  503 -0.00000000000E+00 -0.00000000000E+00 -0.41286136800E+03  0.41286136800E+03  0.00000000000E+00 0.  1.
          6    2    1    2  501    0 -0.93499830354E+02  0.27620884189E+01 -0.80143852609E+02  0.21119040282E+03  0.17154737457E+03 0.  0.
         24    2    3    3    0    0 -0.14854225682E+02 -0.28335616637E+02  0.10946190317E+02  0.86805177352E+02  0.79948511817E+02 0.  0.
         -6    2    1    2    0  502  0.93499830354E+02 -0.27620884189E+01 -0.23128218083E+03  0.30310629975E+03  0.17213986862E+03 0.  0.
        -24    2    5    5    0    0 -0.32355501845E+01  0.99303171275E+01 -0.34975268854E+02  0.83840879090E+02  0.75478100081E+02 0.  0.
          5    1    3    3  501    0 -0.78645604671E+02  0.31097705056E+02 -0.91090042926E+02  0.12438522547E+03  0.47000000000E+01 0. -1.
        -11    1    4    4    0    0  0.28680492024E+01  0.27438275120E+02  0.31895370747E+01  0.27771528487E+02  0.00000000000E+00 0.  1.
         12    1    4    4    0    0 -0.17722274885E+02 -0.55773891756E+02  0.77566532426E+01  0.59033648865E+02  0.00000000000E+00 0. -1.
         -5    1    5    5    0  502  0.96735380538E+02 -0.12692405546E+02 -0.19630691197E+03  0.21926542066E+03  0.47000000000E+01 0.  1.
         11    1    6    6    0    0  0.25431110842E+02  0.31379756865E+02 -0.18152235738E+02  0.44282436720E+02  0.00000000000E+00 0. -1.
        -12    1    6    6    0    0 -0.28666661027E+02 -0.21449439737E+02 -0.16823033117E+02  0.39558442370E+02  0.00000000000E+00 0.  1.
</event>
<event>
12    1  0.8358445E-002  0.1843325E+03  0.7818608E-02  0.1165112E+00
         21   -1    0    0  503  502  0.00000000000E+00  0.00000000000E+00  0.28464141542E+03  0.28464141542E+03  0.00000000000E+00 0.  1.
         21   -1    0    0  501  503 -0.00000000000E+00 -0.00000000000E+00 -0.11616046899E+03  0.11616046899E+03  0.00000000000E+00 0.  1.
          6    2    1    2  501    0 -0.51692173435E+02 -0.39582179395E+02  0.70608150671E+02  0.19739294905E+03  0.17245183580E+03 0.  0.
         24    2    3    3    0    0 -0.21843211346E+02  0.43990134442E+01 -0.21278580303E+02  0.91135868385E+02  0.85769990821E+02 0.  0.
         -6    2    1    2    0  502  0.51692173435E+02  0.39582179395E+02  0.97872795755E+02  0.20340893536E+03  0.16600385874E+03 0.  0.
        -24    2    5    5    0    0 -0.27966733647E+02  0.78740533205E+01  0.21825770886E+02  0.88708513708E+02  0.80924021297E+02 0.  0.
          5    1    3    3  501    0 -0.29848962089E+02 -0.43981192839E+02  0.91886730974E+02  0.10625708066E+03  0.47000000000E+01 0. -1.
        -11    1    4    4    0    0 -0.33924620224E+02  0.26333729403E+02 -0.40912905160E+02  0.59314508935E+02  0.00000000000E+00 0.  1.
         12    1    4    4    0    0  0.12081408878E+02 -0.21934715959E+02  0.19634324857E+02  0.31821359450E+02  0.00000000000E+00 0. -1.
         -5    1    5    5    0  502  0.79658907082E+02  0.31708126075E+02  0.76047024869E+02  0.11470042166E+03  0.47000000000E+01 0.  1.
         13    1    6    6    0    0 -0.24685043902E+01  0.13599399204E+02  0.49056600018E+02  0.50966529978E+02  0.00000000000E+00 0. -1.
        -14    1    6    6    0    0 -0.25498229257E+02 -0.57253458834E+01 -0.27230829132E+02  0.37741983730E+02  0.00000000000E+00 0.  1.
</event>
<event>
12    1  0.8358445E-002  0.2881399E+03  0.7818608E-02  0.1091503E+00
         21   -1    0    0  501  502  0.00000000000E+00  0.00000000000E+00  0.52890278700E+03  0.52890278700E+03  0.00000000000E+00 0.  1.
         21   -1    0    0  502  503 -0.00000000000E+00 -0.00000000000E+00 -0.37386838197E+03  0.37386838197E+03  0.00000000000E+00 0.  1.
         -6    2    1    2    0  503  0.13469869362E+02  0.23115082221E+03 -0.26694820867E+03  0.39179765083E+03  0.16920967200E+03 0.  0.
        -24    2    3    3    0    0  0.14675075994E+02  0.16459727347E+03 -0.93584193479E+02  0.20603436292E+03  0.79903298723E+02 0.  0.
          6    2    1    2  501    0 -0.13469869362E+02 -0.23115082221E+03  0.42198261369E+03  0.51097351814E+03  0.17150064137E+03 0.  0.
         24    2    5    5    0    0 -0.47203790949E+02 -0.57322094870E+02  0.16908137029E+03  0.20220899163E+03  0.82376854014E+02 0.  0.
          5    1    5    5  501    0  0.33733921587E+02 -0.17382872734E+03  0.25290124340E+03  0.30876452650E+03  0.47000000000E+01 0. -1.
        -11    1    6    6    0    0 -0.36527462088E+02 -0.78626597865E+02  0.12542762819E+03  0.15247454637E+03  0.00000000000E+00 0.  1.
         12    1    6    6    0    0 -0.10676328860E+02  0.21304502995E+02  0.43653742103E+02  0.49734445260E+02  0.00000000000E+00 0. -1.
         -5    1    3    3    0  503 -0.12052066321E+01  0.66553548739E+02 -0.17336401519E+03  0.18576328791E+03  0.47000000000E+01 0.  1.
         13    1    4    4    0    0  0.45377879437E+01 -0.58081032933E+01 -0.17792498030E+02  0.19258727098E+02  0.00000000000E+00 0. -1.
        -14    1    4    4    0    0  0.10137288050E+02  0.17040537676E+03 -0.75791695449E+02  0.18677563582E+03  0.00000000000E+00 0.  1.
</event>
<event>
12    1  0.8358445E-002  0.2967471E+03  0.7818608E-02  0.1087043E+00
         21   -1    0    0  501  502  0.00000000000E+00  0.00000000000E+00  0.17268452382E+03  0.17268452382E+03  0.00000000000E+00 0.  1.
         21   -1    0    0  502  503 -0.00000000000E+00 -0.00000000000E+00 -0.55143494799E+03  0.55143494799E+03  0.00000000000E+00 0.  1.
         -6    2    1    2    0  503  0.21250132835E+03  0.11410746409E+03 -0.29094170427E+03  0.41465344139E+03  0.17062553519E+03 0.  0.
        -24    2    3    3    0    0  0.24592885861E+02  0.37195183010E+02 -0.10611716028E+03  0.14004957433E+03  0.79779319946E+02 0.  0.
          6    2    1    2  501    0 -0.21250132835E+03 -0.11410746409E+03 -0.87808719895E+02  0.30946603043E+03  0.17286273395E+03 0.  0.
         24    2    5    5    0    0 -0.69222714704E+02 -0.10880043433E+03  0.38524970912E+01  0.13922856572E+03  0.52349145520E+02 0.  0.
          5    1    5    5  501    0 -0.14327861364E+03 -0.53070297602E+01 -0.91661216986E+02  0.17023746471E+03  0.47000000000E+01 0. -1.
        -13    1    6    6    0    0 -0.65588978354E+02 -0.78661578255E+02 -0.14974231467E+02  0.10350741801E+03  0.00000000000E+00 0.  1.
         14    1    6    6    0    0 -0.36337363506E+01 -0.30138856073E+02  0.18826728558E+02  0.35721147707E+02  0.00000000000E+00 0. -1.
         -5    1    3    3    0  503  0.18790844249E+03  0.76912281078E+02 -0.18482454400E+03  0.27460386706E+03  0.47000000000E+01 0.  1.
         11    1    4    4    0    0  0.43083196108E+02  0.44368618157E+02 -0.46950158963E+02  0.77646979920E+02  0.00000000000E+00 0. -1.
        -12    1    4    4    0    0 -0.18490310248E+02 -0.71734351468E+01 -0.59167001312E+02  0.62402594410E+02  0.00000000000E+00 0.  1.
</event>
<event>
12    1  0.8358445E-002  0.1963215E+03  0.7818608E-02  0.1153432E+00
         21   -1    0    0  503  502  0.00000000000E+00  0.00000000000E+00  0.24214404017E+02  0.24214404017E+02  0.00000000000E+00 0. -1.
         21   -1    0    0  501  503 -0.00000000000E+00 -0.00000000000E+00 -0.16860111818E+04  0.16860111818E+04  0.00000000000E+00 0. -1.
          6    2    1    2  501    0  0.46033864499E+02  0.78344443355E+02 -0.61280948701E+03  0.64348860914E+03  0.17402630330E+03 0.  0.
         24    2    3    3    0    0  0.20296901263E+02  0.23120819526E+02 -0.54725333646E+03  0.55386864049E+03  0.79609799379E+02 0.  0.
         -6    2    1    2    0  502 -0.46033864499E+02 -0.78344443355E+02 -0.10489872907E+04  0.10667369766E+04  0.17116212408E+03 0.  0.
        -24    2    5    5    0    0 -0.19546533599E+02 -0.41742271700E+02 -0.97857966586E+03  0.98294782873E+03  0.80273204322E+02 0.  0.
          5    1    3    3  501    0  0.25736963236E+02  0.55223623829E+02 -0.65556150544E+02  0.89619968643E+02  0.47000000000E+01 0. -1.
        -11    1    4    4    0    0  0.10874177005E+01  0.43865050982E+02 -0.17048675706E+03  0.17604277750E+03  0.00000000000E+00 0.  1.
         12    1    4    4    0    0  0.19209483562E+02 -0.20744231456E+02 -0.37676657940E+03  0.37782586300E+03  0.00000000000E+00 0. -1.
         -5    1    5    5    0  502 -0.26487330900E+02 -0.36602171655E+02 -0.70407624870E+02  0.83789147913E+02  0.47000000000E+01 0.  1.
         11    1    6    6    0    0 -0.30869609100E+02  0.14606747892E+02 -0.43480650735E+03  0.43614560491E+03  0.00000000000E+00 0. -1.
        -12    1    6    6    0    0  0.11323075501E+02 -0.56349019592E+02 -0.54377315851E+03  0.54680222381E+03  0.00000000000E+00 0.  1.
</event>
<event>
12    1  0.8358445E-002  0.2452348E+03  0.7818608E-02  0.1116427E+00
         21   -1    0    0  501  502  0.00000000000E+00  0.00000000000E+00  0.26931504228E+04  0.26931504228E+04  0.00000000000E+00 0.  1.
         21   -1    0    0  502  503 -0.00000000000E+00 -0.00000000000E+00 -0.79168999314E+02  0.79168999314E+02  0.00000000000E+00 0.  1.
         -6    2    1    2    0  503  0.10672498882E+03 -0.13763905575E+03  0.13172352891E+03  0.27797695149E+03  0.17200396678E+03 0.  0.
        -24    2    3    3    0    0  0.13822566852E+03 -0.11698191518E+03  0.13362311348E+03  0.23996762764E+03  0.83295989960E+02 0.  0.
          6    2    1    2  501    0 -0.10672498882E+03  0.13763905575E+03  0.24822578945E+04  0.24943424706E+04  0.17264232577E+03 0.  0.
         24    2    5    5    0    0 -0.32975603689E+02  0.13890167846E+03  0.13942186000E+04  0.14037957442E+04  0.80099438551E+02 0.  0.
          5    1    5    5  501    0 -0.73749385127E+02 -0.12626227069E+01  0.10880392945E+04  0.10905467264E+04  0.47000000000E+01 0. -1.
        -13    1    6    6    0    0 -0.12793322279E+01  0.38935182702E+02  0.75728763448E+03  0.75828895975E+03  0.00000000000E+00 0.  1.
         14    1    6    6    0    0 -0.31696271461E+02  0.99966495754E+02  0.63693096555E+03  0.64550678445E+03  0.00000000000E+00 0. -1.
         -5    1    3    3    0  503 -0.31500679700E+02 -0.20657140564E+02 -0.18995845746E+01  0.38009323848E+02  0.47000000000E+01 0.  1.
         11    1    4    4    0    0  0.10782386929E+02  0.47709652075E+01  0.37281056513E+02  0.39101140030E+02  0.00000000000E+00 0. -1.
        -12    1    4    4    0    0  0.12744328159E+03 -0.12175288039E+03  0.96342056969E+02  0.20086648761E+03  0.00000000000E+00 0.  1.
</event>
<event>
12    1  0.8358445E-002  0.1870894E+03  0.7818608E-02  0.1161546E+00
         21   -1    0    0  501  502  0.00000000000E+00  0.00000000000E+00  0.11790086942E+04  0.11790086942E+04  0.00000000000E+00 0. -1.
         21   -1    0    0  502  503 -0.00000000000E+00 -0.00000000000E+00 -0.81560951591E+02  0.81560951591E+02  0.00000000000E+00 0. -1.
         -6    2    1    2    0  503 -0.70672345921E+02  0.18969975724E+02  0.43646455081E+02  0.19028948922E+03  0.17014886485E+03 0.  0.
        -24    2    3    3    0    0 -0.32867379694E+02  0.29315363962E+02 -0.37334844680E+02  0.10019896008E+03  0.81891915124E+02 0.  0.
          6    2    1    2  501    0  0.70672345921E+02 -0.18969975724E+02  0.10538012875E+04  0.10702801565E+04  0.17218600260E+03 0.  0.
         24    2    5    5    0    0  0.51158807554E+01  0.42573451079E+02  0.37163691830E+03  0.38219908565E+03  0.78252610551E+02 0.  0.
          5    1    5    5  501    0  0.65556465165E+02 -0.61543426803E+02  0.68216436919E+03  0.68808107088E+03  0.47000000000E+01 0. -1.
        -13    1    6    6    0    0 -0.29254655223E+02 -0.58311298692E+01  0.12935445284E+03  0.13274943087E+03  0.00000000000E+00 0.  1.
         14    1    6    6    0    0  0.34370535979E+02  0.48404580948E+02  0.24228246546E+03  0.24944965478E+03  0.00000000000E+00 0. -1.
         -5    1    3    3    0  503 -0.37804966227E+02 -0.10345388238E+02  0.80981299761E+02  0.90090529137E+02  0.47000000000E+01 0.  1.
         11    1    4    4    0    0  0.24083097529E+01  0.51146606616E+02 -0.24582199633E+02  0.56798414265E+02  0.00000000000E+00 0. -1.
        -12    1    4    4    0    0 -0.35275689447E+02 -0.21831242654E+02 -0.12752645047E+02  0.43400545820E+02  0.00000000000E+00 0.  1.
</event>
<event>
12    1  0.8358445E-002  0.2712776E+03  0.7818608E-02  0.1100692E+00
         21   -1    0    0  503  502  0.00000000000E+00  0.00000000000E+00  0.24449925916E+03  0.24449925916E+03  0.00000000000E+00 0. -1.
         21   -1    0    0  501  503 -0.00000000000E+00 -0.00000000000E+00 -0.29991510688E+03  0.29991510688E+03  0.00000000000E+00 0.  1.
          6    2    1    2  501    0  0.17128090533E+03 -0.11993034264E+03 -0.30102548299E+02  0.27294263634E+03  0.17283253080E+03 0.  0.
         24    2    3    3    0    0  0.10927590710E+03 -0.14457184686E+03 -0.47754596327E+02  0.20376526768E+03  0.79984623932E+02 0.  0.
         -6    2    1    2    0  502 -0.17128090533E+03  0.11993034264E+03 -0.25313299415E+02  0.27147172970E+03  0.17127668050E+03 0.  0.
        -24    2    5    5    0    0 -0.10234038640E+03  0.14601526735E+03 -0.12215472431E+02  0.19645932060E+03  0.81566132047E+02 0.  0.
          5    1    3    3  501    0  0.62004998228E+02  0.24641504216E+02  0.17652048028E+02  0.69177368662E+02  0.47000000000E+01 0. -1.
        -11    1    4    4    0    0 -0.12572359323E+02 -0.74289698114E+01 -0.25456667964E+01  0.14823435190E+02  0.00000000000E+00 0.  1.
         12    1    4    4    0    0  0.12184826642E+03 -0.13714287705E+03 -0.45208929531E+02  0.18894183249E+03  0.00000000000E+00 0. -1.
         -5    1    5    5    0  502 -0.68940518925E+02 -0.26084924706E+02 -0.13097826984E+02  0.75012409095E+02  0.47000000000E+01 0.  1.
         13    1    6    6    0    0  0.13189016072E+02  0.97206394903E+01  0.45483316659E+01  0.17003773051E+02  0.00000000000E+00 0. -1.
        -14    1    6    6    0    0 -0.11552940248E+03  0.13629462786E+03 -0.16763804097E+02  0.17945554755E+03  0.00000000000E+00 0.  1.
</event>
<event>
12    1  0.8358445E-002  0.1999334E+03  0.7818608E-02  0.1150535E+00
         21   -1    0    0  501  502  0.00000000000E+00  0.00000000000E+00  0.29283599597E+02  0.29283599597E+02  0.00000000000E+00 0. -1.
         21   -1    0    0  502  503 -0.00000000000E+00 -0.00000000000E+00 -0.13481622827E+04  0.13481622827E+04  0.00000000000E+00 0. -1.
         -6    2    1    2    0  503 -0.76618370498E+01  0.10209121338E+03 -0.71389983851E+03  0.74136788530E+03  0.17173247314E+03 0.  0.
        -24    2    3    3    0    0 -0.61821555179E+02  0.10358224160E+03 -0.52558302696E+03  0.54535561592E+03  0.81388230913E+02 0.  0.
          6    2    1    2  501    0  0.76618370498E+01 -0.10209121338E+03 -0.60497884458E+03  0.63607799698E+03  0.16767377930E+03 0.  0.
         24    2    5    5    0    0 -0.82743487569E+00  0.12738945793E+02 -0.22345612015E+03  0.23753099543E+03  0.79532199571E+02 0.  0.
          5    1    5    5  501    0  0.84892719255E+01 -0.11483015917E+03 -0.38152272443E+03  0.39854700156E+03  0.47000000000E+01 0. -1.
        -13    1    6    6    0    0  0.32040471051E+02  0.29587220125E+02 -0.12213173600E+03  0.12968483458E+03  0.00000000000E+00 0.  1.
         14    1    6    6    0    0 -0.32867905927E+02 -0.16848274332E+02 -0.10132438415E+03  0.10784616085E+03  0.00000000000E+00 0. -1.
         -5    1    3    3    0  503  0.54159718130E+02 -0.14910282179E+01 -0.18831681155E+03  0.19601226938E+03  0.47000000000E+01 0.  1.
         13    1    4    4    0    0 -0.29320275271E+02  0.89168643128E+01 -0.25535059963E+03  0.25718304327E+03  0.00000000000E+00 0. -1.
        -14    1    4    4    0    0 -0.32501279909E+02  0.94665377284E+02 -0.27023242732E+03  0.28817257265E+03  0.00000000000E+00 0.  1.
</event>
<event>
12    1  0.8358445E-002  0.1830302E+03  0.7818608E-02  0.1165864E+00
         21   -1    0    0  501  502  0.00000000000E+00  0.00000000000E+00  0.60918822726E+02  0.60918822726E+02  0.00000000000E+00 0. -1.
         21   -1    0    0  502  503 -0.00000000000E+00 -0.00000000000E+00 -0.63272722788E+03  0.63272722788E+03  0.00000000000E+00 0.  1.
         -6    2    1    2    0  503  0.35687908669E+02 -0.51491414426E+02 -0.42285109160E+03  0.46076358797E+03  0.17197396823E+03 0.  0.
        -24    2    3    3    0    0  0.14883986309E+01 -0.94125235855E+02 -0.33584458168E+03  0.35790702773E+03  0.80275040320E+02 0.  0.
          6    2    1    2  501    0 -0.35687908669E+02  0.51491414426E+02 -0.14895731355E+03  0.23288246263E+03  0.16769307546E+03 0.  0.
         24    2    5    5    0    0 -0.17569446751E+02  0.32581077551E+02 -0.17571840589E+03  0.19514487439E+03  0.76382928442E+02 0.  0.
          5    1    5    5  501    0 -0.18118461918E+02  0.18910336875E+02  0.26761092342E+02  0.37737588242E+02  0.47000000000E+01 0. -1.
        -13    1    6    6    0    0 -0.34439167453E+02  0.45519729345E+02 -0.88030691880E+02  0.10491665610E+03  0.00000000000E+00 0.  1.
         14    1    6    6    0    0  0.16869720701E+02 -0.12938651794E+02 -0.87687714008E+02  0.90228218284E+02  0.00000000000E+00 0. -1.
         -5    1    3    3    0  503  0.34199510039E+02  0.42633821429E+02 -0.87006509925E+02  0.10285656025E+03  0.47000000000E+01 0.  1.
         13    1    4    4    0    0 -0.25487262397E+02 -0.56910786773E+00 -0.53940041253E+02  0.59661147145E+02  0.00000000000E+00 0. -1.
        -14    1    4    4    0    0  0.26975661027E+02 -0.93556127987E+02 -0.28190454043E+03  0.29824588058E+03  0.00000000000E+00 0.  1.
</event>
<event>
12    1  0.8358445E-002  0.2644112E+03  0.7818608E-02  0.1104541E+00
         21   -1    0    0  501  502  0.00000000000E+00  0.00000000000E+00  0.48482891371E+03  0.48482891371E+03  0.00000000000E+00 0. -1.
         21   -1    0    0  502  503 -0.00000000000E+00 -0.00000000000E+00 -0.14413003280E+03  0.14413003280E+03  0.00000000000E+00 0. -1.
         -6    2    1    2    0  503  0.17527112394E+03  0.96897078292E+02  0.17065078423E+03  0.31458712333E+03  0.17243653134E+03 0.  0.
        -24    2    3    3    0    0  0.25211805427E+02  0.32644107330E+02  0.10266260868E+03  0.13769527681E+03  0.81970147980E+02 0.  0.
          6    2    1    2  501    0 -0.17527112394E+03 -0.96897078292E+02  0.17004809668E+03  0.31437182318E+03  0.17263915361E+03 0.  0.
         24    2    5    5    0    0 -0.33533036277E+02 -0.64528220182E+02  0.94601142266E+02  0.15050675247E+03  0.91730860130E+02 0.  0.
          5    1    5    5  501    0 -0.14173808766E+03 -0.32368858110E+02  0.75446954414E+02  0.16386507071E+03  0.47000000000E+01 0. -1.
        -11    1    6    6    0    0 -0.62324044816E+02 -0.22803564456E+02  0.53894244742E+02  0.85491980504E+02  0.00000000000E+00 0.  1.
         12    1    6    6    0    0  0.28791008539E+02 -0.41724655726E+02  0.40706897524E+02  0.65014771969E+02  0.00000000000E+00 0. -1.
         -5    1    3    3    0  503  0.15005931851E+03  0.64252970962E+02  0.67988175547E+02  0.17689184651E+03  0.47000000000E+01 0.  1.
         11    1    4    4    0    0  0.39717120655E+02  0.68777980165E+01  0.10022431495E+03  0.10802623332E+03  0.00000000000E+00 0. -1.
        -12    1    4    4    0    0 -0.14505315229E+02  0.25766309314E+02  0.24382937320E+01  0.29669043494E+02  0.00000000000E+00 0.  1.
</event>
<event>
12    1  0.8358445E-002  0.2558501E+03  0.7818608E-02  0.1109968E+00
         21   -1    0    0  503  502  0.00000000000E+00  0.00000000000E+00  0.25804146213E+04  0.25804146213E+04  0.00000000000E+00 0.  1.
         21   -1    0    0  501  503 -0.00000000000E+00 -0.00000000000E+00 -0.31017416017E+02  0.31017416017E+02  0.00000000000E+00 0. -1.
          6    2    1    2  501    0 -0.11050086358E+02  0.18843741658E+03  0.71187405300E+03  0.75645484772E+03  0.17270930757E+03 0.  0.
         24    2    3    3    0    0  0.15839585827E+02  0.38105704205E+02  0.38821987450E+03  0.39854872109E+03  0.80146584153E+02 0.  0.
         -6    2    1    2    0  502  0.11050086358E+02 -0.18843741658E+03  0.18375231523E+04  0.18549771896E+04  0.16975946037E+03 0.  0.
        -24    2    5    5    0    0  0.22533126664E+02 -0.25303562985E+02  0.81336423068E+03  0.81783298502E+03  0.78367132992E+02 0.  0.
          5    1    3    3  501    0 -0.26889672185E+02  0.15033171238E+03  0.32365417850E+03  0.35790612663E+03  0.47000000000E+01 0. -1.
        -11    1    4    4    0    0 -0.10412903367E+02 -0.11858165017E+02  0.17531389735E+02  0.23588010941E+02  0.00000000000E+00 0.  1.
         12    1    4    4    0    0  0.26252489194E+02  0.49963869222E+02  0.37068848477E+03  0.37496071015E+03  0.00000000000E+00 0. -1.
         -5    1    5    5    0  502 -0.11483040306E+02 -0.16313385360E+03  0.10241589216E+04  0.10371442046E+04  0.47000000000E+01 0.  1.
         13    1    6    6    0    0  0.85455573486E+01 -0.15853761110E+02  0.35701492623E+02  0.39987058747E+02  0.00000000000E+00 0. -1.
        -14    1    6    6    0    0  0.13987569315E+02 -0.94498018752E+01  0.77766273806E+03  0.77784592627E+03  0.00000000000E+00 0.  1.
</event>
<event>
12    1  0.8358445E-002  0.2197249E+03  0.7818608E-02  0.1134209E+00
         21   -1    0    0  501  502  0.00000000000E+00  0.00000000000E+00  0.58441340084E+03  0.58441340084E+03  0.00000000000E+00 0.  1.
         21   -1    0    0  502  503 -0.00000000000E+00 -0.00000000000E+00 -0.82843814559E+02  0.82843814559E+02  0.00000000000E+00 0.  1.
         -6    2    1    2    0  503  0.11732138940E+03 -0.65568936895E+02  0.27568247406E+03  0.35213181988E+03  0.17300982103E+03 0.  0.
        -24    2    3    3    0    0  0.14616056168E+03 -0.78466125826E+02  0.24600066519E+03  0.30852981169E+03  0.84584128167E+02 0.  0.
          6    2    1    2  501    0 -0.11732138940E+03  0.65568936895E+02  0.22588711222E+03  0.31512539552E+03  0.17382587131E+03 0.  0.
         24    2    5    5    0    0 -0.10085020757E+03 -0.16283603509E+02  0.17011605375E+03  0.21460853542E+03  0.81740024586E+02 0.  0.
          5    1    5    5  501    0 -0.16471181826E+02  0.81852540404E+02  0.55771058471E+02  0.10051686010E+03  0.47000000000E+01 0. -1.
        -11    1    6    6    0    0 -0.81045778021E+02 -0.44217466703E+02  0.97228110801E+02  0.13407799233E+03  0.00000000000E+00 0.  1.
         12    1    6    6    0    0 -0.19804429553E+02  0.27933863195E+02  0.72887942950E+02  0.80530543090E+02  0.00000000000E+00 0. -1.
         -5    1    3    3    0  503 -0.28839172280E+02  0.12897188931E+02  0.29681808870E+02  0.43602008186E+02  0.47000000000E+01 0.  1.
         13    1    4    4    0    0  0.33803557321E+02 -0.46088423483E+02  0.34229594860E+02  0.66621981590E+02  0.00000000000E+00 0. -1.
        -14    1    4    4    0    0  0.11235700436E+03 -0.32377702343E+02  0.21177107033E+03  0.24190783010E+03  0.00000000000E+00 0.  1.
</event>
<event>
12    1  0.8358445E-002  0.2181872E+03  0.7818608E-02  0.1135367E+00
         21   -1    0    0  503  502  0.00000000000E+00  0.00000000000E+00  0.24215226330E+03  0.24215226330E+03  0.00000000000E+00 0. -1.
         21   -1    0    0  501  503 -0.00000000000E+00 -0.00000000000E+00 -0.42841686493E+03  0.42841686493E+03  0.00000000000E+00 0. -1.
          6    2    1    2  501    0 -0.88720465044E+02  0.10056093620E+03 -0.34002176692E+03  0.40364796792E+03  0.17126896165E+03 0.  0.
         24    2    3    3    0    0 -0.74851658848E+02  0.14149630882E+02 -0.26789872567E+03  0.29014430917E+03  0.81308117926E+02 0.  0.
         -6    2    1    2    0  502  0.88720465044E+02 -0.10056093620E+03  0.15375716529E+03  0.26692116031E+03  0.17210989843E+03 0.  0.
        -24    2    5    5    0    0  0.66297527025E+02 -0.82853297685E+02  0.18289498852E+03  0.22584256060E+03  0.79336336734E+02 0.  0.
          5    1    3    3  501    0 -0.13868806196E+02  0.86411305316E+02 -0.72123041247E+02  0.11350365875E+03  0.47000000000E+01 0. -1.
        -11    1    4    4    0    0 -0.51234626724E+02  0.37449571696E+02 -0.96046214059E+02  0.11511877619E+03  0.00000000000E+00 0.  1.
         12    1    4    4    0    0 -0.23617032124E+02 -0.23299940814E+02 -0.17185251161E+03  0.17502553298E+03  0.00000000000E+00 0. -1.
         -5    1    5    5    0  502  0.22422938019E+02 -0.17707638512E+02 -0.29137823234E+02  0.41078599707E+02  0.47000000000E+01 0.  1.
         13    1    6    6    0    0  0.55566826059E+01 -0.67119678635E+02  0.73194608251E+02  0.99465464653E+02  0.00000000000E+00 0. -1.
        -14    1    6    6    0    0  0.60740844419E+02 -0.15733619050E+02  0.10970038027E+03  0.12637709595E+03  0.00000000000E+00 0.  1.
</event>
<event>
12    1  0.8358445E-002  0.1949055E+03  0.7818608E-02  0.1154320E+00
         21   -1    0    0  501  502  0.00000000000E+00  0.00000000000E+00  0.74741697422E+02  0.74741697422E+02  0.00000000000E+00 0. -1.
         21   -1    0    0  502  503 -0.00000000000E+00 -0.00000000000E+00 -0.53328254483E+03  0.53328254483E+03  0.00000000000E+00 0. -1.
         -6    2    1    2    0  503  0.23613758548E+01 -0.91755260985E+02 -0.29888075646E+03  0.35681627358E+03  0.17194052023E+03 0.  0.
        -24    2    3    3    0    0  0.46154008137E+02  0.89868515125E+00 -0.11480243110E+03  0.14608073257E+03  0.77646520466E+02 0.  0.
          6    2    1    2  501    0 -0.23613758548E+01  0.91755260985E+02 -0.15966009095E+03  0.25120796867E+03  0.17084933382E+03 0.  0.
         24    2    5    5    0    0  0.62913236285E+02  0.58459574955E+02 -0.11884030828E+03  0.16719771718E+03  0.80352103616E+02 0.  0.
          5    1    5    5  501    0 -0.65274612140E+02  0.33295686030E+02 -0.40819782673E+02  0.84010251492E+02  0.47000000000E+01 0. -1.
        -13    1    6    6    0    0 -0.38408464040E+01  0.25286394956E+02  0.15224750479E+01  0.25621705666E+02  0.00000000000E+00 0.  1.
         14    1    6    6    0    0  0.66754082689E+02  0.33173179999E+02 -0.12036278333E+03  0.14157601152E+03  0.00000000000E+00 0. -1.
         -5    1    3    3    0  503 -0.43792632282E+02 -0.92653946136E+02 -0.18407832537E+03  0.21073554101E+03  0.47000000000E+01 0.  1.
         11    1    4    4    0    0  0.57597168928E+02 -0.23002399747E+02 -0.66133185438E+02  0.90665001400E+02  0.00000000000E+00 0. -1.
        -12    1    4    4    0    0 -0.11443160791E+02  0.23901084898E+02 -0.48669245659E+02  0.55415731171E+02  0.00000000000E+00 0.  1.
</event>
<event>
12    1  0.8358445E-002  0.3478902E+03  0.7818608E-02  0.1063572E+00
         21   -1    0    0  501  502  0.00000000000E+00  0.00000000000E+00  0.18637946686E+03  0.18637946686E+03  0.00000000000E+00 0. -1.
         21   -1    0    0  502  503 -0.00000000000E+00 -0.00000000000E+00 -0.13477529048E+04  0.13477529048E+04  0.00000000000E+00 0.  1.
         -6    2    1    2    0  503 -0.13185640062E+03 -0.27123258923E+03 -0.11338226192E+04  0.11859938143E+04  0.17341962979E+03 0.  0.
        -24    2    3    3    0    0 -0.15376642990E+03 -0.27528207929E+03 -0.10659946968E+04  0.11144454754E+04  0.78864984685E+02 0.  0.
          6    2    1    2  501    0  0.13185640062E+03  0.27123258923E+03 -0.27550818771E+02  0.34813855734E+03  0.17172122655E+03 0.  0.
         24    2    5    5    0    0 -0.25050173689E+01  0.13000996788E+03 -0.16196030356E+02  0.15282383530E+03  0.78638072061E+02 0.  0.
          5    1    5    5  501    0  0.13436141799E+03  0.14122262135E+03 -0.11354788415E+02  0.19531472204E+03  0.47000000000E+01 0. -1.
        -13    1    6    6    0    0  0.38046534764E+01  0.96331117584E+01  0.23689213972E+02  0.25854421070E+02  0.00000000000E+00 0.  1.
         14    1    6    6    0    0 -0.63096708453E+01  0.12037685612E+03 -0.39885244328E+02  0.12696941423E+03  0.00000000000E+00 0. -1.
         -5    1    3    3    0  503  0.21910029282E+02  0.40494900636E+01 -0.67827922377E+02  0.71548338953E+02  0.47000000000E+01 0.  1.
         13    1    4    4    0    0 -0.72841582345E+01 -0.73473189475E+02 -0.29645015838E+03  0.30550624369E+03  0.00000000000E+00 0. -1.
        -14    1    4    4    0    0 -0.14648227167E+03 -0.20180888982E+03 -0.76954453843E+03  0.80893923168E+03  0.00000000000E+00 0.  1.
</event>
<event>
12    1  0.8358445E-002  0.3506373E+03  0.7818608E-02  0.1062360E+00
         21   -1    0    0  501  502  0.00000000000E+00  0.00000000000E+00  0.31910416257E+03  0.31910416257E+03  0.00000000000E+00 0. -1.
         21   -1    0    0  502  503 -0.00000000000E+00 -0.00000000000E+00 -0.40628714198E+03  0.40628714198E+03  0.00000000000E+00 0. -1.
         -6    2    1    2    0  503 -0.29854678850E+03 -0.64772251410E+02  0.39001142809E+02  0.35279962585E+03  0.17210711021E+03 0.  0.
        -24    2    3    3    0    0 -0.14786517613E+03  0.31253314732E+02  0.31093934681E+02  0.17388492104E+03  0.80176386769E+02 0.  0.
          6    2    1    2  501    0  0.29854678850E+03  0.64772251410E+02 -0.12618412221E+03  0.37259167871E+03  0.17197818718E+03 0.  0.
         24    2    5    5    0    0  0.20711404386E+03  0.10101329945E+03 -0.51279553363E+02  0.24887367359E+03  0.78794663416E+02 0.  0.
          5    1    5    5  501    0  0.91432744640E+02 -0.36241048042E+02 -0.74904568851E+02  0.12371800512E+03  0.47000000000E+01 0. -1.
        -13    1    6    6    0    0  0.21256100853E+03  0.92067219401E+02 -0.43179816609E+02  0.23563329943E+03  0.00000000000E+00 0.  1.
         14    1    6    6    0    0 -0.54469646748E+01  0.89460800507E+01 -0.80997367535E+01  0.13240374161E+02  0.00000000000E+00 0. -1.
         -5    1    3    3    0  503 -0.15068161236E+03 -0.96025566142E+02  0.79072081280E+01  0.17891470481E+03  0.47000000000E+01 0.  1.
         11    1    4    4    0    0 -0.11301105277E+03  0.26660359730E+02 -0.13726784009E+02  0.11692175772E+03  0.00000000000E+00 0. -1.
        -12    1    4    4    0    0 -0.34854123361E+02  0.45929550019E+01  0.44820718690E+02  0.56963163315E+02  0.00000000000E+00 0.  1.
</event>
<event>
12    1  0.8358445E-002  0.2528192E+03  0.7818608E-02  0.1111656E+00
         21   -1    0    0  503  502  0.00000000000E+00  0.00000000000E+00  0.52285013248E+03  0.52285013248E+03  0.00000000000E+00 0.  1.
         21   -1    0    0  501  503 -0.00000000000E+00 -0.00000000000E+00 -0.15441678100E+03  0.15441678100E+03  0.00000000000E+00 0.  1.
          6    2    1    2  501    0 -0.11607203234E+03 -0.14435088650E+03  0.28548716029E+02  0.25366434433E+03  0.17094056063E+03 0.  0.
         24    2    3    3    0    0 -0.29180612484E+02 -0.10513817706E+03  0.65618133445E+02  0.15127300127E+03  0.81683762488E+02 0.  0.
         -6    2    1    2    0  502  0.11607203234E+03  0.14435088650E+03  0.33988463545E+03  0.42360256915E+03  0.17206881196E+03 0.  0.
        -24    2    5    5    0    0  0.77287125754E+02  0.81275084634E+01  0.17228407340E+03  0.20411882009E+03  0.77093025402E+02 0.  0.
          5    1    3    3  501    0 -0.86891419856E+02 -0.39212709440E+02 -0.37069417416E+02  0.10239134306E+03  0.47000000000E+01 0. -1.
        -11    1    4    4    0    0 -0.67744130695E+00  0.10452064371E+02 -0.62624582063E+01  0.12203399490E+02  0.00000000000E+00 0.  1.
         12    1    4    4    0    0 -0.28503171177E+02 -0.11559024143E+03  0.71880591651E+02  0.13906960177E+03  0.00000000000E+00 0. -1.
         -5    1    5    5    0  502  0.38784906586E+02  0.13622337804E+03  0.16760056205E+03  0.21948374906E+03  0.47000000000E+01 0.  1.
         13    1    6    6    0    0 -0.14242797976E+02 -0.53538000205E+01  0.13468778329E+02  0.20320641194E+02  0.00000000000E+00 0. -1.
        -14    1    6    6    0    0  0.91529923730E+02  0.13481308484E+02  0.15881529507E+03  0.18379817890E+03  0.00000000000E+00 0.  1.
</event>
<event>
12    1  0.8358445E-002  0.1831054E+03  0.7818608E-02  0.1164894E+00
         21   -1    0    0  501  502  0.00000000000E+00  0.00000000000E+00  0.68539934663E+03  0.68539934663E+03  0.00000000000E+00 0.  1.
         21   -1    0    0  502  503 -0.00000000000E+00 -0.00000000000E+00 -0.10177746493E+03  0.10177746493E+03  0.00000000000E+00 0.  1.
         -6    2    1    2    0  503  0.20533424141E+02  0.57734376870E+02  0.80724289677E+01  0.18328326417E+03  0.17254770655E+03 0.  0.
        -24    2    3    3    0    0  0.50006617148E+02 -0.24621725148E+01  0.46878513543E+02  0.10569269861E+03  0.80415343407E+02 0.  0.
          6    2    1    2  501    0 -0.20533424141E+02 -0.57734376870E+02  0.57554945273E+03  0.60389354740E+03  0.17226538905E+03 0.  0.
         24    2    5    5    0    0  0.32178966900E+02 -0.82366965536E+02  0.44480235185E+03  0.46070746224E+03  0.81132179971E+02 0.  0.
          5    1    5    5  501    0 -0.52712391041E+02  0.24632588666E+02  0.13074710088E+03  0.14318608516E+03  0.47000000000E+01 0. -1.
        -13    1    6    6    0    0  0.40154637463E+02 -0.91593603355E+02  0.31885646725E+03  0.33417245517E+03  0.00000000000E+00 0.  1.
         14    1    6    6    0    0 -0.79756705633E+01  0.92266378193E+01  0.12594588460E+03  0.12653500707E+03  0.00000000000E+00 0. -1.
         -5    1    3    3    0  503 -0.29473193007E+02  0.60196549385E+02 -0.38806084575E+02  0.77590565560E+02  0.47000000000E+01 0.  1.
         11    1    4    4    0    0  0.68280466074E+01 -0.17745855371E+02  0.55868151665E+02  0.59015150375E+02  0.00000000000E+00 0. -1.
        -12    1    4    4    0    0  0.43178570541E+02  0.15283682856E+02 -0.89896381224E+01  0.46677548234E+02  0.00000000000E+00 0.  1.
</event>
<event>
12    1  0.8358445E-002  0.1946678E+03  0.7818608E-02  0.1154815E+00
         21   -1    0    0  501  502  0.00000000000E+00  0.00000000000E+00  0.76173121541E+03  0.76173121541E+03  0.00000000000E+00 0. -1.
         21   -1    0    0  502  503 -0.00000000000E+00 -0.00000000000E+00 -0.91472852460E+02  0.91472852460E+02  0.00000000000E+00 0. -1.
         -6    2    1    2    0  503 -0.89737050030E+02  0.43096791360E+01  0.43980505667E+02  0.19736911169E+03  0.17014396812E+03 0.  0.
        -24    2    3    3    0    0 -0.27140052438E+02  0.23668522210E+02 -0.35058831023E+02  0.94595303463E+02  0.80139680650E+02 0.  0.
          6    2    1    2  501    0  0.89737050030E+02 -0.43096791360E+01  0.62627785728E+03  0.65583495618E+03  0.17269691296E+03 0.  0.
         24    2    5    5    0    0  0.12132371606E+03  0.29136531941E+02  0.47424142238E+03  0.49692135058E+03  0.80358698294E+02 0.  0.
          5    1    5    5  501    0 -0.31586666032E+02 -0.33446211077E+02  0.15203643490E+03  0.15891360560E+03  0.47000000000E+01 0. -1.
        -13    1    6    6    0    0  0.43182770794E+02  0.44199080620E+02  0.13498248641E+03  0.14845397286E+03  0.00000000000E+00 0.  1.
         14    1    6    6    0    0  0.78140945268E+02 -0.15062548679E+02  0.33925893597E+03  0.34846737772E+03  0.00000000000E+00 0. -1.
         -5    1    3    3    0  503 -0.62596997592E+02 -0.19358843074E+02  0.79039336690E+02  0.10277380823E+03  0.47000000000E+01 0.  1.
         11    1    4    4    0    0  0.48115742894E+01 -0.19783356522E+02 -0.35195494153E+02  0.40660241651E+02  0.00000000000E+00 0. -1.
        -12    1    4    4    0    0 -0.31951626727E+02  0.43451878733E+02  0.13666313051E+00  0.53935061812E+02  0.00000000000E+00 0.  1.
</event>
<event>
12    1  0.8358445E-002  0.1752507E+03  0.7818608E-02  0.1172525E+00
         21   -1    0    0  503  502  0.00000000000E+00  0.00000000000E+00  0.25033262340E+03  0.25033262340E+03  0.00000000000E+00 0.  1.
         21   -1    0    0  501  503 -0.00000000000E+00 -0.00000000000E+00 -0.12807949881E+03  0.12807949881E+03  0.00000000000E+00 0.  1.
          6    2    1    2  501    0  0.97289590185E+01  0.30744413506E+02  0.21890230551E+02  0.17661254137E+03  0.17225834078E+03 0.  0.
         24    2    3    3    0    0  0.39825536206E+02 -0.27986813748E+02  0.42148453086E+02  0.10741971953E+03  0.85983538940E+02 0.  0.
         -6    2    1    2    0  502 -0.97289590185E+01 -0.30744413506E+02  0.10036289404E+03  0.20179958085E+03  0.17207698488E+03 0.  0.
        -24    2    5    5    0    0  0.14422016510E+02 -0.47719210141E+02  0.12962981561E+03  0.15996590974E+03  0.79373078608E+02 0.  0.
          5    1    3    3  501    0 -0.30096577187E+02  0.58731227254E+02 -0.20258222534E+02  0.69192821835E+02  0.47000000000E+01 0. -1.
        -11    1    4    4    0    0  0.66176539129E+02 -0.10252111050E+02  0.26604793482E+02  0.72057304614E+02  0.00000000000E+00 0.  1.
         12    1    4    4    0    0 -0.26351002923E+02 -0.17734702698E+02  0.15543659603E+02  0.35362414916E+02  0.00000000000E+00 0. -1.
         -5    1    5    5    0  502 -0.24150975528E+02  0.16974796635E+02 -0.29266921574E+02  0.41833671105E+02  0.47000000000E+01 0.  1.
         11    1    6    6    0    0  0.37553292725E+02 -0.48876276929E+02  0.57814175571E+02  0.84508101020E+02  0.00000000000E+00 0. -1.
        -12    1    6    6    0    0 -0.23131276216E+02  0.11570667884E+01  0.71815640038E+02  0.75457808721E+02  0.00000000000E+00 0.  1.
</event>
<event>
12    1  0.8358445E-002  0.1982579E+03  0.7818608E-02  0.1151273E+00
         21   -1    0    0  503  502  0.00000000000E+00  0.00000000000E+00  0.10892709463E+03  0.10892709463E+03  0.00000000000E+00 0.  1.
         21   -1    0    0  501  503 -0.00000000000E+00 -0.00000000000E+00 -0.40410696252E+03  0.40410696252E+03  0.00000000000E+00 0. -1.
          6    2    1    2  501    0 -0.48687221675E+02  0.84971276997E+02 -0.23189016881E+03  0.30491923809E+03  0.17208174771E+03 0.  0.
         24    2    3    3    0    0  0.35042117407E+02  0.61446796881E+02 -0.15509257764E+03  0.18879876876E+03  0.81164084454E+02 0.  0.
         -6    2    1    2    0  502  0.48687221675E+02 -0.84971276997E+02 -0.63289699074E+02  0.20811481907E+03  0.17238221613E+03 0.  0.
        -24    2    5    5    0    0  0.74621639053E+02 -0.11114463271E+03 -0.69479750544E+02  0.17045787693E+03  0.79416205370E+02 0.  0.
          5    1    3    3  501    0 -0.83729339081E+02  0.23524480117E+02 -0.76797591171E+02  0.11612046933E+03  0.47000000000E+01 0. -1.
        -11    1    4    4    0    0  0.17295667902E+02  0.48723682188E+02 -0.15848094120E+03  0.16670136789E+03  0.00000000000E+00 0.  1.
         12    1    4    4    0    0  0.17746449504E+02  0.12723114692E+02  0.33883635538E+01  0.22097400866E+02  0.00000000000E+00 0. -1.
         -5    1    5    5    0  502 -0.25934417378E+02  0.26173355714E+02  0.61900514701E+01  0.37656942139E+02  0.47000000000E+01 0.  1.
         13    1    6    6    0    0  0.66027982427E+02 -0.49939490865E+02 -0.70358604397E+02  0.10864612475E+03  0.00000000000E+00 0. -1.
        -14    1    6    6    0    0  0.85936566259E+01 -0.61205141847E+02  0.87885385323E+00  0.61811752174E+02  0.00000000000E+00 0.  1.
</event>
<event>
12    1  0.8358445E-002  0.1921018E+03  0.7818608E-02  0.1156615E+00
         21   -1    0    0  503  502  0.00000000000E+00  0.00000000000E+00  0.51534288875E+03  0.51534288875E+03  0.00000000000E+00 0. -1.
         21   -1    0    0  501  503 -0.00000000000E+00 -0.00000000000E+00 -0.77998131943E+02  0.77998131943E+02  0.00000000000E+00 0.  1.
          6    2    1    2  501    0 -0.53736546385E+02 -0.66326639425E+02  0.13345033299E+03  0.23390615792E+03  0.17209375300E+03 0.  0.
         24    2    3    3    0    0 -0.67095847727E+02  0.66565296497E+01  0.11833082142E+03  0.15803980483E+03  0.80176271084E+02 0.  0.
         -6    2    1    2    0  502  0.53736546385E+02  0.66326639425E+02  0.30389442381E+03  0.35943486277E+03  0.17191497967E+03 0.  0.
        -24    2    5    5    0    0  0.25843570247E+01  0.80619147822E+02  0.27706013407E+03  0.29974406466E+03  0.81105243425E+02 0.  0.
          5    1    3    3  501    0  0.13359301342E+02 -0.72983169075E+02  0.15119511570E+02  0.75866353086E+02  0.47000000000E+01 0. -1.
        -11    1    4    4    0    0 -0.20556403673E+02  0.21020759179E+02 -0.72098670217E+00  0.29410166104E+02  0.00000000000E+00 0.  1.
         12    1    4    4    0    0 -0.46539444054E+02 -0.14364229529E+02  0.11905180812E+03  0.12862963873E+03  0.00000000000E+00 0. -1.
         -5    1    5    5    0  502  0.51152189361E+02 -0.14292508397E+02  0.26834289737E+02  0.59690798105E+02  0.47000000000E+01 0.  1.
         11    1    6    6    0    0  0.69837919360E+01  0.36235774566E+02  0.26968970486E+02  0.45707002497E+02  0.00000000000E+00 0. -1.
        -12    1    6    6    0    0 -0.43994349113E+01  0.44383373256E+02  0.25009116359E+03  0.25403706217E+03  0.00000000000E+00 0.  1.
</event>
<event>
12    1  0.8358445E-002  0.2045153E+03  0.7818608E-02  0.1147213E+00
         21   -1    0    0  503  502  0.00000000000E+00  0.00000000000E+00  0.55495909566E+02  0.55495909566E+02  0.00000000000E+00 0. -1.
         21   -1    0    0  501  503 -0.00000000000E+00 -0.00000000000E+00 -0.12046824790E+04  0.12046824790E+04  0.00000000000E+00 0.  1.
          6    2    1    2  501    0  0.90202687573E+02 -0.51092556218E+02 -0.97432478648E+03  0.99555777235E+03  0.17629382974E+03 0.  0.
         24    2    3    3    0    0 -0.13152412703E+01 -0.59850672064E+01 -0.66493089533E+03  0.66974051262E+03  0.79885591837E+02 0.  0.
         -6    2    1    2    0  502 -0.90202687573E+02  0.51092556218E+02 -0.17486178295E+03  0.26462061621E+03  0.16941208115E+03 0.  0.
        -24    2    5    5    0    0  0.17960733670E+02  0.34083814788E+02 -0.57328421351E+02  0.10391963902E+03  0.77643087877E+02 0.  0.
          5    1    3    3  501    0  0.91517928843E+02 -0.45107489012E+02 -0.30939389115E+03  0.32581725974E+03  0.47000000000E+01 0. -1.
        -13    1    4    4    0    0 -0.33351575344E+02  0.73546552004E+01 -0.15928955626E+03  0.16290973349E+03  0.00000000000E+00 0.  1.
         14    1    4    4    0    0  0.32036334074E+02 -0.13339722407E+02 -0.50564133907E+03  0.50683077913E+03  0.00000000000E+00 0. -1.
         -5    1    5    5    0  502 -0.10816342124E+03  0.17008741430E+02 -0.11753336160E+03  0.16070097719E+03  0.47000000000E+01 0.  1.
         11    1    6    6    0    0  0.24266524189E+02 -0.19623381968E+02 -0.30168995808E+02  0.43406331614E+02  0.00000000000E+00 0. -1.
        -12    1    6    6    0    0 -0.63057905186E+01  0.53707196756E+02 -0.27159425542E+02  0.60513307407E+02  0.00000000000E+00 0.  1.
</event>
<event>
12    1  0.8358445E-002  0.2401572E+03  0.7818608E-02  0.1119866E+00
         21   -1    0    0  501  502  0.00000000000E+00  0.00000000000E+00  0.31628857947E+03  0.31628857947E+03  0.00000000000E+00 0. -1.
         21   -1    0    0  502  503 -0.00000000000E+00 -0.00000000000E+00 -0.29469635406E+03  0.29469635406E+03  0.00000000000E+00 0.  1.
         -6    2    1    2    0  503  0.96729119071E+02  0.13591784738E+03 -0.17851651711E+03  0.29838454619E+03  0.17127465315E+03 0.  0.
        -24    2    3    3    0    0  0.84147932584E+02  0.17255534579E+02 -0.66839605922E+02  0.13488270148E+03  0.79669204877E+02 0.  0.
          6    2    1    2  501    0 -0.96729119071E+02 -0.13591784738E+03  0.20010874252E+03  0.31260038735E+03  0.17275795097E+03 0.  0.
         24    2    5    5    0    0 -0.85993637339E+02 -0.49180944612E+02  0.45802911853E+02  0.13519993569E+03  0.79796271221E+02 0.  0.
          5    1    5    5  501    0 -0.10735481732E+02 -0.86736902769E+02  0.15430583067E+03  0.17740045166E+03  0.47000000000E+01 0. -1.
        -11    1    6    6    0    0  0.12264722255E+02 -0.92975557511E+01  0.21441635295E+02  0.26393402188E+02  0.00000000000E+00 0.  1.
         12    1    6    6    0    0 -0.98258359594E+02 -0.39883388861E+02  0.24361276558E+02  0.10880653350E+03  0.00000000000E+00 0. -1.
         -5    1    3    3    0  503  0.12581186486E+02  0.11866231280E+03 -0.11167691119E+03  0.16350184472E+03  0.47000000000E+01 0.  1.
         11    1    4    4    0    0 -0.10060549148E+02  0.34543943809E+01 -0.31623920656E+02  0.33364949384E+02  0.00000000000E+00 0. -1.
        -12    1    4    4    0    0  0.94208481733E+02  0.13801140198E+02 -0.35215685266E+02  0.10151775209E+03  0.00000000000E+00 0.  1.
</event>
<event>
12    1  0.8358445E-002  0.1971713E+03  0.7818608E-02  0.1152483E+00
         21   -1    0    0  503  502  0.00000000000E+00  0.00000000000E+00  0.53654440836E+03  0.53654440836E+03  0.00000000000E+00 0.  1.
         21   -1    0    0  501  503 -0.00000000000E+00 -0.00000000000E+00 -0.83150968258E+02  0.83150968258E+02  0.00000000000E+00 0.  1.
          6    2    1    2  501    0 -0.51498812911E+02  0.81836617689E+02  0.11187969864E+03  0.22535016670E+03  0.17004784897E+03 0.  0.
         24    2    3    3    0    0  0.35783298372E+02  0.31911829012E+02  0.42339149735E+02  0.10300381647E+03  0.80736443649E+02 0.  0.
         -6    2    1    2    0  502  0.51498812911E+02 -0.81836617689E+02  0.34151374146E+03  0.39434520991E+03  0.17183465671E+03 0.  0.
        -24    2    5    5    0    0  0.47735733669E+02 -0.89563224077E+02  0.13455884666E+03  0.18715862807E+03  0.81375656506E+02 0.  0.
          5    1    3    3  501    0 -0.87282111283E+02  0.49924788678E+02  0.69540548906E+02  0.12234635024E+03  0.47000000000E+01 0. -1.
        -13    1    4    4    0    0  0.37594275014E+00 -0.11541991721E+02 -0.17528925706E+02  0.20991001459E+02  0.00000000000E+00 0.  1.
         14    1    4    4    0    0  0.35407355622E+02  0.43453820732E+02  0.59868075442E+02  0.82012815008E+02  0.00000000000E+00 0. -1.
         -5    1    5    5    0  502  0.37630792417E+01  0.77266063874E+01  0.20695489480E+03  0.20718658184E+03  0.47000000000E+01 0.  1.
         13    1    6    6    0    0  0.69831192490E+02 -0.71183599785E+02  0.91160564810E+02  0.13510643545E+03  0.00000000000E+00 0. -1.
        -14    1    6    6    0    0 -0.22095458821E+02 -0.18379624292E+02  0.43398281845E+02  0.52052192622E+02  0.00000000000E+00 0.  1.
</event>
<event>
12    1  0.8358445E-002  0.2531914E+03  0.7818608E-02  0.1111525E+00
         21   -1    0    0  501  502  0.00000000000E+00  0.00000000000E+00  0.42271491669E+03  0.42271491669E+03  0.00000000000E+00 0.  1.
         21   -1    0    0  502  503 -0.00000000000E+00 -0.00000000000E+00 -0.46397703091E+03  0.46397703091E+03  0.00000000000E+00 0.  1.
         -6    2    1    2    0  503 -0.80058295911E+02 -0.16633983972E+03 -0.38488773846E+03  0.46069995163E+03  0.17328474021E+03 0.  0.
        -24    2    3    3    0    0  0.52645215252E+01 -0.92053000448E+02 -0.28200154632E+03  0.30770918002E+03  0.81600228321E+02 0.  0.
          6    2    1    2  501    0  0.80058295911E+02  0.16633983972E+03  0.34362562423E+03  0.42599199597E+03  0.17120846352E+03 0.  0.
         24    2    5    5    0    0  0.19701607973E+02  0.14444114040E+03  0.15863528365E+03  0.23011959128E+03  0.80860847608E+02 0.  0.
          5    1    5    5  501    0  0.60356687938E+02  0.21898699321E+02  0.18499034058E+03  0.19587240469E+03  0.47000000000E+01 0. -1.
        -11    1    6    6    0    0  0.59470412887E+01  0.60718090967E+02  0.12453887785E+03  0.13867943599E+03  0.00000000000E+00 0.  1.
         12    1    6    6    0    0  0.13754566684E+02  0.83723049431E+02  0.34096405801E+02  0.91440155289E+02  0.00000000000E+00 0. -1.
         -5    1    3    3    0  503 -0.85322817436E+02 -0.74286839272E+02 -0.10288619214E+03  0.15299077161E+03  0.47000000000E+01 0.  1.
         11    1    4    4    0    0  0.16358563854E+02  0.10296891145E+02 -0.59126770649E+02  0.62206137849E+02  0.00000000000E+00 0. -1.
        -12    1    4    4    0    0 -0.11094042329E+02 -0.10234989159E+03 -0.22287477567E+03  0.24550304217E+03  0.00000000000E+00 0.  1.
</event>
<event>
12    1  0.8358445E-002  0.2532766E+03  0.7818608E-02  0.1111527E+00
         21   -1    0    0  501  502  0.00000000000E+00  0.00000000000E+00  0.42776675003E+03  0.42776675003E+03  0.00000000000E+00 0.  1.
         21   -1    0    0  502  503 -0.00000000000E+00 -0.00000000000E+00 -0.17083781201E+03  0.17083781201E+03  0.00000000000E+00 0. -1.
         -6    2    1    2    0  503  0.10105789436E+03  0.15233669036E+03  0.21648610869E+02  0.25420008513E+03  0.17529933167E+03 0.  0.
        -24    2    3    3    0    0  0.66244465036E+02  0.10330675948E+03 -0.55648949914E+02  0.15615462686E+03  0.78910367900E+02 0.  0.
          6    2    1    2  501    0 -0.10105789436E+03 -0.15233669036E+03  0.23528032715E+03  0.34440447691E+03  0.17273808534E+03 0.  0.
         24    2    5    5    0    0  0.65227043515E+01 -0.10919709103E+03  0.13590954269E+03  0.19165876321E+03  0.79341838646E+02 0.  0.
          5    1    5    5  501    0 -0.10758059871E+03 -0.43139599338E+02  0.99370784466E+02  0.15274571370E+03  0.47000000000E+01 0. -1.
        -13    1    6    6    0    0 -0.13326668711E+02 -0.27061475361E+02  0.91200897127E+02  0.96060018657E+02  0.00000000000E+00 0.  1.
         14    1    6    6    0    0  0.19849373062E+02 -0.82135615664E+02  0.44708645562E+02  0.95598744550E+02  0.00000000000E+00 0. -1.
         -5    1    3    3    0  503  0.34813429323E+02  0.49029930885E+02  0.77297560782E+02  0.98045458267E+02  0.47000000000E+01 0.  1.
         11    1    4    4    0    0  0.57139561190E+02  0.29539304353E+02 -0.50262981639E+02  0.81632513607E+02  0.00000000000E+00 0. -1.
        -12    1    4    4    0    0  0.91049038461E+01  0.73767455125E+02 -0.53859682748E+01  0.74522113254E+02  0.00000000000E+00 0.  1.
</event>
<event>
12    1  0.8358445E-002  0.2027369E+03  0.7818608E-02  0.1148005E+00
         21   -1    0    0  503  502  0.00000000000E+00  0.00000000000E+00  0.25538297433E+03  0.25538297433E+03  0.00000000000E+00 0.  1.
         21   -1    0    0  501  503 -0.00000000000E+00 -0.00000000000E+00 -0.21750007169E+03  0.21750007169E+03  0.00000000000E+00 0.  1.
          6    2    1    2  501    0  0.13437040158E+00  0.99483001043E+02 -0.10375497492E+03  0.22774400072E+03  0.17665035944E+03 0.  0.
         24    2    3    3    0    0  0.12710005144E+02  0.10058433137E+03 -0.13953225929E+03  0.18951490715E+03  0.78535958023E+02 0.  0.
         -6    2    1    2    0  502 -0.13437040158E+00 -0.99483001043E+02  0.14163787755E+03  0.24513904530E+03  0.17359429029E+03 0.  0.
        -24    2    5    5    0    0 -0.23922134663E+02 -0.12613168706E+03  0.14725056558E+03  0.20867533098E+03  0.73356619946E+02 0.  0.
          5    1    3    3  501    0 -0.12575634743E+02 -0.11013303257E+01  0.35777284374E+02  0.38229093565E+02  0.47000000000E+01 0. -1.
        -11    1    4    4    0    0 -0.20520720312E+02  0.34072100435E+02 -0.11405032610E+02  0.41377321797E+02  0.00000000000E+00 0.  1.
         12    1    4    4    0    0  0.33230725457E+02  0.66512230933E+02 -0.12812722668E+03  0.14813758536E+03  0.00000000000E+00 0. -1.
         -5    1    5    5    0  502  0.23787764262E+02  0.26648686018E+02 -0.56126880260E+01  0.36463714319E+02  0.47000000000E+01 0.  1.
         11    1    6    6    0    0 -0.21339246051E+02 -0.93728921089E+02  0.54741213650E+02  0.11062131143E+03  0.00000000000E+00 0. -1.
        -12    1    6    6    0    0 -0.25828886117E+01 -0.32402765973E+02  0.92509351931E+02  0.98054019555E+02  0.00000000000E+00 0.  1.
</event>
<event>
12    1  0.8358445E-002  0.1978447E+03  0.7818608E-02  0.1152283E+00
         21   -1    0    0  503  502  0.00000000000E+00  0.00000000000E+00  0.85520372660E+02  0.85520372660E+02  0.00000000000E+00 0. -1.
         21   -1    0    0  501  503 -0.00000000000E+00 -0.00000000000E+00 -0.66322130374E+03  0.66322130374E+03  0.00000000000E+00 0. -1.
          6    2    1    2  501    0 -0.86087491770E+02 -0.35186095462E+02 -0.49941874045E+03  0.53597274654E+03  0.17087594670E+03 0.  0.
         24    2    3    3    0    0 -0.89262481586E+02 -0.11351365038E+01 -0.48340762368E+03  0.49792022722E+03  0.79199386875E+02 0.  0.
         -6    2    1    2    0  502  0.86087491770E+02  0.35186095462E+02 -0.78282190627E+02  0.21276892986E+03  0.17462359117E+03 0.  0.
        -24    2    5    5    0    0  0.43617460574E+02  0.84143083257E+02 -0.80006533065E+02  0.14776467185E+03  0.80316944573E+02 0.  0.
          5    1    3    3  501    0  0.31749898160E+01 -0.34050958958E+02 -0.16011116769E+02  0.38052519319E+02  0.47000000000E+01 0. -1.
        -13    1    4    4    0    0 -0.16461039572E+02 -0.25701891386E+02 -0.25752599965E+03  0.25932835082E+03  0.00000000000E+00 0.  1.
         14    1    4    4    0    0 -0.72801442014E+02  0.24566754882E+02 -0.22588162403E+03  0.23859187639E+03  0.00000000000E+00 0. -1.
         -5    1    5    5    0  502  0.42470031196E+02 -0.48956987795E+02  0.17243424380E+01  0.65004258019E+02  0.47000000000E+01 0.  1.
         13    1    6    6    0    0  0.41627764530E+02  0.12720506302E+02 -0.44183573851E+01  0.43751616454E+02  0.00000000000E+00 0. -1.
        -14    1    6    6    0    0  0.19896960436E+01  0.71422576955E+02 -0.75588175680E+02  0.10401305539E+03  0.00000000000E+00 0.  1.
</event>
<event>
12    1  0.8358445E-002  0.2587688E+03  0.7818608E-02  0.1108038E+00
         21   -1    0    0  501  502  0.00000000000E+00  0.00000000000E+00  0.60661638680E+03  0.60661638680E+03  0.00000000000E+00 0.  1.
         21   -1    0    0  502  503 -0.00000000000E+00 -0.00000000000E+00 -0.13280213929E+03  0.13280213929E+03  0.00000000000E+00 0.  1.
         -6    2    1    2    0  503 -0.91031343414E+02  0.16354688044E+03  0.83946031698E+02  0.27204454534E+03  0.17868131079E+03 0.  0.
        -24    2    3    3    0    0 -0.74671896766E+02  0.16742991864E+03  0.11895532860E+03  0.23292357462E+03  0.80587539927E+02 0.  0.
          6    2    1    2  501    0  0.91031343414E+02 -0.16354688044E+03  0.38986821582E+03  0.46737398075E+03  0.17721998925E+03 0.  0.
         24    2    5    5    0    0  0.51589219344E+02 -0.56548161452E+02  0.30697367862E+03  0.32631370529E+03  0.79929048374E+02 0.  0.
          5    1    5    5  501    0  0.39442124070E+02 -0.10699871899E+03  0.82894537197E+02  0.14106027546E+03  0.47000000000E+01 0. -1.
        -13    1    6    6    0    0  0.69998990896E+02 -0.54812392148E+02  0.21787333349E+03  0.23531478174E+03  0.00000000000E+00 0.  1.
         14    1    6    6    0    0 -0.18409771551E+02 -0.17357693039E+01  0.89100345136E+02  0.90998923548E+02  0.00000000000E+00 0. -1.
         -5    1    3    3    0  503 -0.16359446648E+02 -0.38830381972E+01 -0.35009296901E+02  0.39120970717E+02  0.47000000000E+01 0.  1.
         13    1    4    4    0    0 -0.42715832774E+02  0.11197942148E+03  0.11904309586E+03  0.16892392334E+03  0.00000000000E+00 0. -1.
        -14    1    4    4    0    0 -0.31956063992E+02  0.55450497159E+02 -0.87767264704E-01  0.63999651282E+02  0.00000000000E+00 0.  1.
</event>
<event>
12    1  0.8358445E-002  0.2120750E+03  0.7818608E-02  0.1140075E+00
         21   -1    0    0  503  502  0.00000000000E+00  0.00000000000E+00  0.19416975675E+03  0.19416975675E+03  0.00000000000E+00 0. -1.
         21   -1    0    0  501  503 -0.00000000000E+00 -0.00000000000E+00 -0.24576681635E+03  0.24576681635E+03  0.00000000000E+00 0. -1.
          6    2    1    2  501    0 -0.12024964708E+03  0.24525178523E+02 -0.79963376910E+02  0.22597293485E+03  0.17207022878E+03 0.  0.
         24    2    3    3    0    0 -0.79927010479E+02 -0.52684345496E+02 -0.51599128489E+02  0.13424591478E+03  0.78711678362E+02 0.  0.
         -6    2    1    2    0  502  0.12024964708E+03 -0.24525178523E+02  0.28366317312E+02  0.21396363826E+03  0.17295759172E+03 0.  0.
        -24    2    5    5    0    0  0.13867709723E+03 -0.35070764899E+02  0.60364665425E+02  0.17527559626E+03  0.81340924300E+02 0.  0.
          5    1    3    3  501    0 -0.40322636599E+02  0.77209524018E+02 -0.28364248421E+02  0.91727020065E+02  0.47000000000E+01 0. -1.
        -11    1    4    4    0    0 -0.78980542589E+01 -0.51225834334E+02 -0.23629887037E+02  0.56963470098E+02  0.00000000000E+00 0.  1.
         12    1    4    4    0    0 -0.72028956221E+02 -0.14585111619E+01 -0.27969241452E+02  0.77282444685E+02  0.00000000000E+00 0. -1.
         -5    1    5    5    0  502 -0.18427450154E+02  0.10545586376E+02 -0.31998348113E+02  0.38688041992E+02  0.47000000000E+01 0.  1.
         11    1    6    6    0    0  0.38948149668E+02 -0.17734616416E+02 -0.18827348290E+02  0.46754080310E+02  0.00000000000E+00 0. -1.
        -12    1    6    6    0    0  0.99728947565E+02 -0.17336148482E+02  0.79192013715E+02  0.12852151595E+03  0.00000000000E+00 0.  1.
</event>
<event>
12    1  0.8358445E-002  0.2372038E+03  0.7818608E-02  0.1121837E+00
         21   -1    0    0  501  502  0.00000000000E+00  0.00000000000E+00  0.19212405597E+04  0.19212405597E+04  0.00000000000E+00 0. -1.
         21   -1    0    0  502  503 -0.00000000000E+00 -0.00000000000E+00 -0.31356096376E+02  0.31356096376E+02  0.00000000000E+00 0.  1.
         -6    2    1    2    0  503 -0.44009369738E+02  0.15732753187E+03  0.68866141545E+03  0.72836816989E+03  0.17197926873E+03 0.  0.
        -24    2    3    3    0    0 -0.15172500783E+02  0.89526109640E+02  0.60421273243E+03  0.61619746100E+03  0.79882137150E+02 0.  0.
          6    2    1    2  501    0  0.44009369738E+02 -0.15732753187E+03  0.12012230479E+04  0.12242284862E+04  0.17061593925E+03 0.  0.
         24    2    5    5    0    0  0.33931570073E+02 -0.16971315912E+03  0.11867138260E+04  0.12021474235E+04  0.83155368428E+02 0.  0.
          5    1    5    5  501    0  0.10077799665E+02  0.12385627251E+02  0.14509221936E+02  0.22081062693E+02  0.47000000000E+01 0. -1.
        -11    1    6    6    0    0 -0.26178526984E+02 -0.55779496393E+02  0.31538005347E+03  0.32134287859E+03  0.00000000000E+00 0.  1.
         12    1    6    6    0    0  0.60110097057E+02 -0.11393366273E+03  0.87133377251E+03  0.88080454494E+03  0.00000000000E+00 0. -1.
         -5    1    3    3    0  503 -0.28836868955E+02  0.67801422233E+02  0.84448683020E+02  0.11217070889E+03  0.47000000000E+01 0.  1.
         11    1    4    4    0    0  0.11151901276E+02  0.92602922603E+02  0.43174025097E+03  0.44170047598E+03  0.00000000000E+00 0. -1.
        -12    1    4    4    0    0 -0.26324402059E+02 -0.30768129629E+01  0.17247248146E+03  0.17449698502E+03  0.00000000000E+00 0.  1.
</event>
<event>
12    1  0.8358445E-002  0.2090119E+03  0.7818608E-02  0.1142491E+00
         21   -1    0    0  501  502  0.00000000000E+00  0.00000000000E+00  0.26749713654E+03  0.26749713654E+03  0.00000000000E+00 0. -1.
         21   -1    0    0  502  503 -0.00000000000E+00 -0.00000000000E+00 -0.19480420502E+03  0.19480420502E+03  0.00000000000E+00 0.  1.
         -6    2    1    2    0  503 -0.29539066782E+02  0.11456552446E+03 -0.57445947358E+02  0.21608575686E+03  0.17145028897E+03 0.  0.
        -24    2    3    3    0    0 -0.39816759130E+02  0.14497969874E+03 -0.28162052940E+02  0.17237889894E+03  0.79478904234E+02 0.  0.
          6    2    1    2  501    0  0.29539066782E+02 -0.11456552446E+03  0.13013887888E+03  0.24621558469E+03  0.17230255508E+03 0.  0.
         24    2    5    5    0    0  0.24655743604E+02 -0.13504201526E+03  0.52097518891E+02  0.16524844698E+03  0.75819827078E+02 0.  0.
          5    1    5    5  501    0  0.48833231781E+01  0.20476490792E+02  0.78041359989E+02  0.80967137712E+02  0.47000000000E+01 0. -1.
        -13    1    6    6    0    0  0.24737739693E+02 -0.75469610638E+02 -0.89833922723E+01  0.79926961857E+02  0.00000000000E+00 0.  1.
         14    1    6    6    0    0 -0.81996089048E-01 -0.59572404619E+02  0.61080911163E+02  0.85321485125E+02  0.00000000000E+00 0. -1.
         -5    1    3    3    0  503  0.10277692348E+02 -0.30414174280E+02 -0.29283894418E+02  0.43706857922E+02  0.47000000000E+01 0.  1.
         11    1    4    4    0    0 -0.39857104873E+02  0.13620235860E+03  0.10069413140E+01  0.14191788199E+03  0.00000000000E+00 0. -1.
        -12    1    4    4    0    0  0.40345743084E-01  0.87773401400E+01 -0.29168994254E+02  0.30461016948E+02  0.00000000000E+00 0.  1.
</event>
<event>
12    1  0.8358445E-002  0.1797890E+03  0.7818608E-02  0.1168174E+00
         21   -1    0    0  501  502  0.00000000000E+00  0.00000000000E+00  0.29566170018E+03  0.29566170018E+03  0.00000000000E+00 0.  1.
         21   -1    0    0  502  503 -0.00000000000E+00 -0.00000000000E+00 -0.12725805430E+03  0.12725805430E+03  0.00000000000E+00 0.  1.
         -6    2    1    2    0  503 -0.54270881005E+02  0.51700942424E+01  0.37716139087E+01  0.17914163086E+03  0.17060316655E+03 0.  0.
        -24    2    3    3    0    0 -0.83710445059E+01  0.14682741777E+01 -0.58318564245E+02  0.10169630379E+03  0.82878543983E+02 0.  0.
          6    2    1    2  501    0  0.54270881005E+02 -0.51700942424E+01  0.16463203196E+03  0.24377812362E+03  0.17132428085E+03 0.  0.
         24    2    5    5    0    0  0.75114442308E+02  0.27778260021E+02  0.17024727309E+03  0.20410862615E+03  0.79135239314E+02 0.  0.
          5    1    5    5  501    0 -0.20843561303E+02 -0.32948354263E+02 -0.56152411300E+01  0.39669497469E+02  0.47000000000E+01 0. -1.
        -11    1    6    6    0    0 -0.15362402237E+02  0.21033496017E+01  0.44199337301E+02  0.46840248717E+02  0.00000000000E+00 0.  1.
         12    1    6    6    0    0  0.90476844545E+02  0.25674910419E+02  0.12604793579E+03  0.15726837744E+03  0.00000000000E+00 0. -1.
         -5    1    3    3    0  503 -0.45899836499E+02  0.37018200647E+01  0.62090178154E+02  0.77445327074E+02  0.47000000000E+01 0.  1.
         13    1    4    4    0    0  0.22628640195E+02 -0.77754045925E+01  0.10134260479E+02  0.25984909257E+02  0.00000000000E+00 0. -1.
        -14    1    4    4    0    0 -0.30999684700E+02  0.92436787702E+01 -0.68452824724E+02  0.75711394528E+02  0.00000000000E+00 0.  1.
</event>
<event>
12    1  0.8358445E-002  0.1825148E+03  0.7818608E-02  0.1165577E+00
         21   -1    0    0  501  502  0.00000000000E+00  0.00000000000E+00  0.62606483164E+02  0.62606483164E+02  0.00000000000E+00 0. -1.
         21   -1    0    0  502  503 -0.00000000000E+00 -0.00000000000E+00 -0.86299539213E+03  0.86299539213E+03  0.00000000000E+00 0.  1.
         -6    2    1    2    0  503  0.51446420517E+02 -0.21535011390E+02 -0.68723170330E+03  0.71085503278E+03  0.17296523557E+03 0.  0.
        -24    2    3    3    0    0  0.53836313378E+02 -0.67487436222E+02 -0.59409405183E+03  0.60686441274E+03  0.88790598293E+02 0.  0.
          6    2    1    2  501    0 -0.51446420517E+02  0.21535011390E+02 -0.11315720567E+03  0.21474684251E+03  0.17378481601E+03 0.  0.
         24    2    5    5    0    0 -0.98352305111E+02  0.15496393846E+02 -0.53585048676E+02  0.13853950166E+03  0.80053244374E+02 0.  0.
          5    1    5    5  501    0  0.46905884593E+02  0.60386175438E+01 -0.59572156995E+02  0.76207340856E+02  0.47000000000E+01 0. -1.
        -13    1    6    6    0    0 -0.31167587201E+02 -0.29371195600E+02 -0.35793458057E+02  0.55814489719E+02  0.00000000000E+00 0.  1.
         14    1    6    6    0    0 -0.67184717910E+02  0.44867589446E+02 -0.17791590619E+02  0.82725011937E+02  0.00000000000E+00 0. -1.
         -5    1    3    3    0  503 -0.23898928607E+01  0.45952424833E+02 -0.93137651462E+02  0.10399062004E+03  0.47000000000E+01 0.  1.
         11    1    4    4    0    0 -0.80816824262E+01 -0.23693618110E+02 -0.37256477465E+02  0.44885924777E+02  0.00000000000E+00 0. -1.
        -12    1    4    4    0    0  0.61917995804E+02 -0.43793818113E+02 -0.55683757437E+03  0.56197848797E+03  0.00000000000E+00 0.  1.
</event>
<event>
12    1  0.8358445E-002  0.1798944E+03  0.7818608E-02  0.1169030E+00
         21   -1    0    0  501  502  0.00000000000E+00  0.00000000000E+00  0.57056594990E+02  0.57056594990E+02  0.00000000000E+00 0. -1.
         21   -1    0    0  502  503 -0.00000000000E+00 -0.00000000000E+00 -0.57953534400E+03  0.57953534400E+03  0.00000000000E+00 0. -1.
         -6    2    1    2    0  503  0.13987849824E+02 -0.33154068827E+02 -0.18972328993E+03  0.25832195435E+03  0.17158220517E+03 0.  0.
        -24    2    3    3    0    0  0.44518981963E+00 -0.87096578931E+02 -0.92768190962E+02  0.14644890463E+03  0.72493669775E+02 0.  0.
          6    2    1    2  501    0 -0.13987849824E+02  0.33154068827E+02 -0.33275545908E+03  0.37826998465E+03  0.17625871189E+03 0.  0.
         24    2    5    5    0    0  0.61946916839E+02  0.16347408349E+02 -0.19807144047E+03  0.22267298116E+03  0.79033554549E+02 0.  0.
          5    1    5    5  501    0 -0.75934766663E+02  0.16806660478E+02 -0.13468401861E+03  0.15559700348E+03  0.47000000000E+01 0. -1.
        -13    1    6    6    0    0  0.29885445897E+02 -0.28593334859E+02 -0.12097078653E+03  0.12784619614E+03  0.00000000000E+00 0.  1.
         14    1    6    6    0    0  0.32061470942E+02  0.44940743208E+02 -0.77100653940E+02  0.94826785019E+02  0.00000000000E+00 0. -1.
         -5    1    3    3    0  503  0.13542660004E+02  0.53942510104E+02 -0.96955098972E+02  0.11187304972E+03  0.47000000000E+01 0.  1.
         13    1    4    4    0    0  0.18847993846E+02 -0.13256027088E+01 -0.16907463489E+00  0.18895308433E+02  0.00000000000E+00 0. -1.
        -14    1    4    4    0    0 -0.18402804026E+02 -0.85770976222E+02 -0.92599116327E+02  0.12755359620E+03  0.00000000000E+00 0.  1.
</event>
<event>
12    1  0.8358445E-002  0.1762960E+03  0.7818608E-02  0.1171486E+00
         21   -1    0    0  503  502  0.00000000000E+00  0.00000000000E+00  0.22761326750E+03  0.22761326750E+03  0.00000000000E+00 0.  1.
         21   -1    0    0  501  503 -0.00000000000E+00 -0.00000000000E+00 -0.28841083706E+03  0.28841083706E+03  0.00000000000E+00 0.  1.
          6    2    1    2  501    0 -0.76721955292E+01  0.38628213294E+02 -0.21772475017E+03  0.28015056520E+03  0.17184083013E+03 0.  0.
         24    2    3    3    0    0 -0.24524936866E+02 -0.14975575553E+02 -0.20513683655E+03  0.22237577279E+03  0.80895749090E+02 0.  0.
         -6    2    1    2    0  502  0.76721955292E+01 -0.38628213294E+02  0.15692718062E+03  0.23587353936E+03  0.17163678249E+03 0.  0.
        -24    2    5    5    0    0 -0.55096396740E+02 -0.25087185221E+02  0.13443747180E+03  0.16767432661E+03  0.79851525870E+02 0.  0.
          5    1    3    3  501    0  0.16852741336E+02  0.53603788847E+02 -0.12587913619E+02  0.57774792414E+02  0.47000000000E+01 0. -1.
        -13    1    4    4    0    0 -0.49123215011E+02  0.43900052734E+01 -0.16011845203E+03  0.16754187859E+03  0.00000000000E+00 0.  1.
         14    1    4    4    0    0  0.24598278145E+02 -0.19365580826E+02 -0.45018384521E+02  0.54833894201E+02  0.00000000000E+00 0. -1.
         -5    1    5    5    0  502  0.62768592270E+02 -0.13541028073E+02  0.22489708823E+02  0.68199212750E+02  0.47000000000E+01 0.  1.
         11    1    6    6    0    0 -0.32877164912E+02 -0.43167089643E+02  0.35911962122E+02  0.65068998950E+02  0.00000000000E+00 0. -1.
        -12    1    6    6    0    0 -0.22219231828E+02  0.18079904422E+02  0.98525509673E+02  0.10260532766E+03  0.00000000000E+00 0.  1.
</event>
<event>
12    1  0.8358445E-002  0.1938206E+03  0.7818608E-02  0.1155183E+00
         21   -1    0    0  501  502  0.00000000000E+00  0.00000000000E+00  0.55976784976E+03  0.55976784976E+03  0.00000000000E+00 0.  1.
         21   -1    0    0  502  503 -0.00000000000E+00 -0.00000000000E+00 -0.13187486743E+03  0.13187486743E+03  0.00000000000E+00 0.  1.
         -6    2    1    2    0  503 -0.71922439617E+02 -0.50919688276E+02 -0.28918268211E+02  0.19541398687E+03  0.17200205828E+03 0.  0.
        -24    2    3    3    0    0 -0.99763001021E+01 -0.84148391455E+02  0.16825051988E+02  0.11141391390E+03  0.70352679330E+02 0.  0.
          6    2    1    2  501    0  0.71922439617E+02  0.50919688276E+02  0.45681125055E+03  0.49622873032E+03  0.17262903056E+03 0.  0.
         24    2    5    5    0    0  0.60884947298E+02  0.39162810091E+01  0.42904711339E+03  0.44033522583E+03  0.78047239145E+02 0.  0.
          5    1    5    5  501    0  0.11037492319E+02  0.47003407267E+02  0.27764137159E+02  0.55893504485E+02  0.47000000000E+01 0. -1.
        -13    1    6    6    0    0  0.79216521998E+02  0.40486803864E+01  0.31552088192E+03  0.32533840243E+03  0.00000000000E+00 0.  1.
         14    1    6    6    0    0 -0.18331574700E+02 -0.13239937727E+00  0.11352623147E+03  0.11499682340E+03  0.00000000000E+00 0. -1.
         -5    1    3    3    0  503 -0.61946139515E+02  0.33228703178E+02 -0.45743320198E+02  0.84000072967E+02  0.47000000000E+01 0.  1.
         11    1    4    4    0    0  0.27454074436E+02 -0.58739440800E+02  0.81352174781E+01  0.65346995891E+02  0.00000000000E+00 0. -1.
        -12    1    4    4    0    0 -0.37430374538E+02 -0.25408950655E+02  0.86898345096E+01  0.46066918013E+02  0.00000000000E+00 0.  1.
</event>
<event>
12    1  0.8358445E-002  0.1993391E+03  0.7818608E-02  0.1150478E+00
         21   -1    0    0  501  502  0.00000000000E+00  0.00000000000E+00  0.77655971197E+02  0.77655971197E+02  0.00000000000E+00 0. -1.
         21   -1    0    0  502  503 -0.00000000000E+00 -0.00000000000E+00 -0.56673010793E+03  0.56673010793E+03  0.00000000000E+00 0.  1.
         -6    2    1    2    0  503 -0.52998959940E+02  0.85949695138E+02 -0.14263842539E+03  0.24511587815E+03  0.17187156099E+03 0.  0.
        -24    2    3    3    0    0 -0.58678467104E+02  0.89910959306E+02 -0.36151104071E+02  0.13830020506E+03  0.79327809059E+02 0.  0.
          6    2    1    2  501    0  0.52998959940E+02 -0.85949695138E+02 -0.34643571134E+03  0.39927020097E+03  0.17088812552E+03 0.  0.
         24    2    5    5    0    0  0.10286879789E+03 -0.62081303858E+02 -0.24698836636E+03  0.28539059234E+03  0.77514251657E+02 0.  0.
          5    1    5    5  501    0 -0.49869837948E+02 -0.23868391280E+02 -0.99447344984E+02  0.11387960864E+03  0.47000000000E+01 0. -1.
        -11    1    6    6    0    0  0.21350920151E+02 -0.15959047322E+02 -0.14290552777E+03  0.14537036441E+03  0.00000000000E+00 0.  1.
         12    1    6    6    0    0  0.81517877737E+02 -0.46122256536E+02 -0.10408283859E+03  0.14002022792E+03  0.00000000000E+00 0. -1.
         -5    1    3    3    0  503  0.56795071642E+01 -0.39612641681E+01 -0.10648732132E+03  0.10681567309E+03  0.47000000000E+01 0.  1.
         11    1    4    4    0    0 -0.23027147443E+02  0.94609126873E+02 -0.29396134460E+02  0.10171169612E+03  0.00000000000E+00 0. -1.
        -12    1    4    4    0    0 -0.35651319661E+02 -0.46981675670E+01 -0.67549696107E+01  0.36588508940E+02  0.00000000000E+00 0.  1.
</event>
<event>
12    1  0.8358445E-002  0.2149913E+03  0.7818608E-02  0.1137906E+00
         21   -1    0    0  503  502  0.00000000000E+00  0.00000000000E+00  0.38016570272E+03  0.38016570272E+03  0.00000000000E+00 0.  1.
         21   -1    0    0  501  503 -0.00000000000E+00 -0.00000000000E+00 -0.13803863015E+03  0.13803863015E+03  0.00000000000E+00 0.  1.
          6    2    1    2  501    0 -0.85682653285E+02 -0.94071181154E+02  0.21265836116E+03  0.30239847995E+03  0.17329269432E+03 0.  0.
         24    2    3    3    0    0 -0.44640941425E+01  0.11756964328E+02  0.70669844814E+02  0.10751677352E+03  0.80046706838E+02 0.  0.
         -6    2    1    2    0  502  0.85682653285E+02  0.94071181154E+02  0.29468711406E+02  0.21580585292E+03  0.17179306449E+03 0.  0.
        -24    2    5    5    0    0  0.23793488119E+02  0.11277061030E+03 -0.62011051285E+01  0.14181691303E+03  0.82402927686E+02 0.  0.
          5    1    3    3  501    0 -0.81218559143E+02 -0.10582814548E+03  0.14198851634E+03  0.19488170642E+03  0.47000000000E+01 0. -1.
        -11    1    4    4    0    0 -0.59551762004E+01 -0.33769479309E+02  0.39576079636E+02  0.52365140464E+02  0.00000000000E+00 0.  1.
         12    1    4    4    0    0  0.14910820579E+01  0.45526443638E+02  0.31093765178E+02  0.55151633058E+02  0.00000000000E+00 0. -1.
         -5    1    5    5    0  502  0.61889165166E+02 -0.18699429147E+02  0.35669816534E+02  0.73988939896E+02  0.47000000000E+01 0.  1.
         13    1    6    6    0    0  0.13139204339E+02  0.11260796891E+02 -0.32142394715E+02  0.36504489796E+02  0.00000000000E+00 0. -1.
        -14    1    6    6    0    0  0.10654283780E+02  0.10150981341E+03  0.25941289586E+02  0.10531242323E+03  0.00000000000E+00 0.  1.
</event>
<event>
12    1  0.8358445E-002  0.1998260E+03  0.7818608E-02  0.1150570E+00
         21   -1    0    0  501  502  0.00000000000E+00  0.00000000000E+00  0.98981431020E+02  0.98981431020E+02  0.00000000000E+00 0. -1.
         21   -1    0    0  502  503 -0.00000000000E+00 -0.00000000000E+00 -0.40780227113E+03  0.40780227113E+03  0.00000000000E+00 0.  1.
         -6    2    1    2    0  503  0.18715608685E+02 -0.99035511399E+02 -0.19694744640E+03  0.28056859790E+03  0.17254603721E+03 0.  0.
        -24    2    3    3    0    0  0.52941415754E+02 -0.15432476432E+02 -0.44943994588E+02  0.10368441916E+03  0.75429048092E+02 0.  0.
          6    2    1    2  501    0 -0.18715608685E+02  0.99035511399E+02 -0.11187339371E+03  0.22621510425E+03  0.16881738845E+03 0.  0.
         24    2    5    5    0    0 -0.19928617036E+01  0.64607189343E+02 -0.14343863969E+03  0.17638123644E+03  0.79734790403E+02 0.  0.
          5    1    5    5  501    0 -0.16722746981E+02  0.34428322056E+02  0.31565245986E+02  0.49833867804E+02  0.47000000000E+01 0. -1.
        -11    1    6    6    0    0  0.38518280816E+02  0.28770427488E+02 -0.59040805024E+02  0.76139425482E+02  0.00000000000E+00 0.  1.
         12    1    6    6    0    0 -0.40511142519E+02  0.35836761855E+02 -0.84397834668E+02  0.10024181096E+03  0.00000000000E+00 0. -1.
         -5    1    3    3    0  503 -0.34225807069E+02 -0.83603034967E+02 -0.15200345181E+03  0.17688417874E+03  0.47000000000E+01 0.  1.
         11    1    4    4    0    0  0.68591703659E+02  0.12612198979E+01 -0.42429901354E+02  0.80664174299E+02  0.00000000000E+00 0. -1.
        -12    1    4    4    0    0 -0.15650287905E+02 -0.16693696330E+02 -0.25140932349E+01  0.23020244861E+02  0.00000000000E+00 0.  1.
</event>
<event>
12    1  0.8358445E-002  0.1822596E+03  0.7818608E-02  0.1167405E+00
         21   -1    0    0  501  502  0.00000000000E+00  0.00000000000E+00  0.20575804695E+04  0.20575804695E+04  0.00000000000E+00 0.  1.
         21   -1    0    0  502  503 -0.00000000000E+00 -0.00000000000E+00 -0.29630591471E+02  0.29630591471E+02  0.00000000000E+00 0.  1.
         -6    2    1    2    0  503 -0.24132938974E+02  0.10908321059E+02  0.30433656571E+03  0.35473838355E+03  0.18032522099E+03 0.  0.
        -24    2    3    3    0    0  0.22701443890E+02  0.68164691580E+02  0.16178337613E+03  0.19406712525E+03  0.79538717486E+02 0.  0.
          6    2    1    2  501    0  0.24132938974E+02 -0.10908321059E+02  0.17236133123E+04  0.17324726774E+04  0.17296628976E+03 0.  0.
         24    2    5    5    0    0 -0.44432375257E+02  0.16846159204E+02  0.71007525331E+03  0.71622811997E+03  0.80733050355E+02 0.  0.
          5    1    5    5  501    0  0.68565314231E+02 -0.27754480263E+02  0.10135380590E+04  0.10162445575E+04  0.47000000000E+01 0. -1.
        -13    1    6    6    0    0 -0.47248752992E+02  0.44112171597E+02  0.55468648318E+03  0.55844016955E+03  0.00000000000E+00 0.  1.
         14    1    6    6    0    0  0.28163777350E+01 -0.27266012393E+02  0.15538877013E+03  0.15778795042E+03  0.00000000000E+00 0. -1.
         -5    1    3    3    0  503 -0.46834382863E+02 -0.57256370520E+02  0.14255318959E+03  0.16067125830E+03  0.47000000000E+01 0.  1.
         11    1    4    4    0    0 -0.16091519488E+02  0.64800606457E+02  0.86109980151E+02  0.10896322443E+03  0.00000000000E+00 0. -1.
        -12    1    4    4    0    0  0.38792963378E+02  0.33640851228E+01  0.75673395977E+02  0.85103900821E+02  0.00000000000E+00 0.  1.
</event>
<event>
12    1  0.8358445E-002  0.7728094E+03  0.7818608E-02  0.9600312E-01
         21   -1    0    0  501  502  0.00000000000E+00  0.00000000000E+00  0.50024392528E+03  0.50024392528E+03  0.00000000000E+00 0. -1.
         21   -1    0    0  502  503 -0.00000000000E+00 -0.00000000000E+00 -0.12202353892E+04  0.12202353892E+04  0.00000000000E+00 0.  1.
         -6    2    1    2    0  503 -0.75102107287E+03  0.57860572028E+02 -0.23274260189E+03  0.80688976448E+03  0.17181814690E+03 0.  0.
        -24    2    3    3    0    0 -0.19937798277E+03  0.28684903479E+02 -0.10134528644E+03  0.23904413141E+03  0.79352542355E+02 0.  0.
          6    2    1    2  501    0  0.75102107287E+03 -0.57860572028E+02 -0.48724886206E+03  0.91358955002E+03  0.17278285401E+03 0.  0.
         24    2    5    5    0    0  0.42502129001E+03 -0.94234252233E+02 -0.31185779668E+03  0.54159086877E+03  0.80883821193E+02 0.  0.
          5    1    5    5  501    0  0.32599978286E+03  0.36373680205E+02 -0.17539106538E+03  0.37199868125E+03  0.47000000000E+01 0. -1.
        -11    1    6    6    0    0  0.40790820619E+02 -0.34026974735E+02 -0.27583758481E+02  0.59854739063E+02  0.00000000000E+00 0.  1.
         12    1    6    6    0    0  0.38423046939E+03 -0.60207277498E+02 -0.28427403820E+03  0.48173612971E+03  0.00000000000E+00 0. -1.
         -5    1    3    3    0  503 -0.55164309010E+03  0.29175668549E+02 -0.13139731545E+03  0.56784563307E+03  0.47000000000E+01 0.  1.
         13    1    4    4    0    0 -0.55204648740E+02 -0.18384161147E+02 -0.29510895068E+01  0.58260102582E+02  0.00000000000E+00 0. -1.
        -14    1    4    4    0    0 -0.14417333403E+03  0.47069064626E+02 -0.98394196933E+02  0.18078402883E+03  0.00000000000E+00 0.  1.
</event>
<event>
12    1  0.8358445E-002  0.3382315E+03  0.7818608E-02  0.1068427E+00
         21   -1    0    0  501  502  0.00000000000E+00  0.00000000000E+00  0.40675106304E+03  0.40675106304E+03  0.00000000000E+00 0.  1.
         21   -1    0    0  502  503 -0.00000000000E+00 -0.00000000000E+00 -0.29054681465E+03  0.29054681465E+03  0.00000000000E+00 0. -1.
         -6    2    1    2    0  503  0.11988193303E+03  0.26553865436E+03  0.13913638612E+03  0.35828989589E+03  0.15533917963E+03 0.  0.
        -24    2    3    3    0    0  0.21148203967E+02  0.17206331746E+03  0.10682286892E+03  0.21846056685E+03  0.79125610275E+02 0.  0.
          6    2    1    2  501    0 -0.11988193303E+03 -0.26553865436E+03 -0.22932137731E+02  0.33900798180E+03  0.17180824764E+03 0.  0.
         24    2    5    5    0    0 -0.50452301194E+02 -0.14761655686E+03  0.53547923750E+02  0.18217244801E+03  0.77352040179E+02 0.  0.
          5    1    5    5  501    0 -0.69429631841E+02 -0.11792209750E+03 -0.76480061481E+02  0.15683553379E+03  0.47000000000E+01 0. -1.
        -11    1    6    6    0    0 -0.15138758573E+02 -0.13369731028E+03  0.31189899550E+02  0.13811937815E+03  0.00000000000E+00 0.  1.
         12    1    6    6    0    0 -0.35313542620E+02 -0.13919246586E+02  0.22358024200E+02  0.44053069860E+02  0.00000000000E+00 0. -1.
         -5    1    3    3    0  503  0.98733729067E+02  0.93475336909E+02  0.32313517200E+02  0.13982932904E+03  0.47000000000E+01 0.  1.
         11    1    4    4    0    0  0.37167923715E+02  0.13975967696E+03  0.53719783287E+02  0.15427260604E+03  0.00000000000E+00 0. -1.
        -12    1    4    4    0    0 -0.16019719748E+02  0.32303640494E+02  0.53103085632E+02  0.64187960815E+02  0.00000000000E+00 0.  1.
</event>
<event>
12    1  0.8358445E-002  0.2127071E+03  0.7818608E-02  0.1139492E+00
         21   -1    0    0  503  502  0.00000000000E+00  0.00000000000E+00  0.18068009653E+03  0.18068009653E+03  0.00000000000E+00 0. -1.
         21   -1    0    0  501  503 -0.00000000000E+00 -0.00000000000E+00 -0.46458257514E+03  0.46458257514E+03  0.00000000000E+00 0. -1.
          6    2    1    2  501    0 -0.70810842387E+02 -0.11590490941E+03 -0.36112111812E+03  0.41897293685E+03  0.16334545123E+03 0.  0.
         24    2    3    3    0    0  0.31334927913E+01 -0.64842557541E+01 -0.13974512723E+03  0.16115504862E+03  0.79939882165E+02 0.  0.
         -6    2    1    2    0  502  0.70810842387E+02  0.11590490941E+03  0.77218639504E+02  0.22628973482E+03  0.16369545617E+03 0.  0.
        -24    2    5    5    0    0  0.55496900196E+02  0.74758366568E+02  0.11528945795E+03  0.16798851673E+03  0.79118666151E+02 0.  0.
          5    1    3    3  501    0 -0.73944335178E+02 -0.10942065366E+03 -0.22137599089E+03  0.25781788824E+03  0.47000000000E+01 0. -1.
        -11    1    4    4    0    0  0.34973666656E+02 -0.19793585086E+02 -0.45058317447E+02  0.60375453133E+02  0.00000000000E+00 0.  1.
         12    1    4    4    0    0 -0.31840173865E+02  0.13309329332E+02 -0.94686809782E+02  0.10077959548E+03  0.00000000000E+00 0. -1.
         -5    1    5    5    0  502  0.15313942191E+02  0.41146542844E+02 -0.38070818448E+02  0.58301218090E+02  0.47000000000E+01 0.  1.
         11    1    6    6    0    0 -0.88860676750E+00  0.64709649059E+02  0.65854508977E+02  0.92330626858E+02  0.00000000000E+00 0. -1.
        -12    1    6    6    0    0  0.56385506964E+02  0.10048717510E+02  0.49434948975E+02  0.75657889868E+02  0.00000000000E+00 0.  1.
</event>
<event>
12    1  0.8358445E-002  0.2149567E+03  0.7818608E-02  0.1137865E+00
         21   -1    0    0  501  502  0.00000000000E+00  0.00000000000E+00  0.89246524051E+03  0.89246524051E+03  0.00000000000E+00 0. -1.
         21   -1    0    0  502  503 -0.00000000000E+00 -0.00000000000E+00 -0.53444203220E+02  0.53444203220E+02  0.00000000000E+00 0. -1.
         -6    2    1    2    0  503  0.13020693132E+02 -0.12822540304E+03  0.33006920088E+03  0.39342564437E+03  0.17095838043E+03 0.  0.
        -24    2    3    3    0    0 -0.42353408183E+02 -0.19014796302E+02  0.13411098755E+03  0.16230887930E+03  0.78759390905E+02 0.  0.
          6    2    1    2  501    0 -0.13020693132E+02  0.12822540304E+03  0.50895183641E+03  0.55248379937E+03  0.17203221890E+03 0.  0.
         24    2    5    5    0    0  0.31589405004E+02  0.12388023135E+03  0.44205541403E+03  0.47182301149E+03  0.10421018604E+03 0.  0.
          5    1    5    5  501    0 -0.44610098136E+02  0.43451716956E+01  0.66896422383E+02  0.80660787874E+02  0.47000000000E+01 0. -1.
        -13    1    6    6    0    0  0.26288801656E+01 -0.18976087224E+02  0.49235438485E+02  0.52831158421E+02  0.00000000000E+00 0.  1.
         14    1    6    6    0    0  0.28960524839E+02  0.14285631857E+03  0.39281997554E+03  0.41899185307E+03  0.00000000000E+00 0. -1.
         -5    1    3    3    0  503  0.55374101315E+02 -0.10921060674E+03  0.19595821334E+03  0.23111676507E+03  0.47000000000E+01 0.  1.
         11    1    4    4    0    0  0.21573891943E+01 -0.36266150082E+02  0.27715964466E+02  0.45695324227E+02  0.00000000000E+00 0. -1.
        -12    1    4    4    0    0 -0.44510797377E+02  0.17251353780E+02  0.10639502308E+03  0.11661355507E+03  0.00000000000E+00 0.  1.
</event>
<event>
12    1  0.8358445E-002  0.2014621E+03  0.7818608E-02  0.1149647E+00
         21   -1    0    0  501  502  0.00000000000E+00  0.00000000000E+00  0.72364758439E+02  0.72364758439E+02  0.00000000000E+00 0.  1.
         21   -1    0    0  502  503 -0.00000000000E+00 -0.00000000000E+00 -0.55520079844E+03  0.55520079844E+03  0.00000000000E+00 0. -1.
         -6    2    1    2    0  503  0.22205302326E+02  0.10272515855E+03 -0.20434356121E+03  0.28695519691E+03  0.17187629381E+03 0.  0.
        -24    2    3    3    0    0 -0.20567044565E+02  0.12048422039E+03 -0.18598901430E+03  0.23691683834E+03  0.81229453791E+02 0.  0.
          6    2    1    2  501    0 -0.22205302326E+02 -0.10272515855E+03 -0.27849247879E+03  0.34061035998E+03  0.16556516218E+03 0.  0.
         24    2    5    5    0    0  0.39106552831E+02 -0.89954220618E+02 -0.22590619469E+03  0.25869792067E+03  0.79182833204E+02 0.  0.
          5    1    5    5  501    0 -0.61311855158E+02 -0.12770937934E+02 -0.52586284098E+02  0.81912439310E+02  0.47000000000E+01 0. -1.
        -11    1    6    6    0    0  0.51626918307E+02 -0.26444980330E+02 -0.13654290541E+03  0.14835309467E+03  0.00000000000E+00 0.  1.
         12    1    6    6    0    0 -0.12520365476E+02 -0.63509240288E+02 -0.89363289283E+02  0.11034482600E+03  0.00000000000E+00 0. -1.
         -5    1    3    3    0  503  0.42772346892E+02 -0.17759061836E+02 -0.18354546911E+02  0.50038358568E+02  0.47000000000E+01 0.  1.
         13    1    4    4    0    0 -0.10603938094E+02 -0.88424621909E+01 -0.36358011295E+02  0.38891356701E+02  0.00000000000E+00 0. -1.
        -14    1    4    4    0    0 -0.99631064717E+01  0.12932668258E+03 -0.14963100301E+03  0.19802548164E+03  0.00000000000E+00 0.  1.
</event>
<event>
12    1  0.8358445E-002  0.2008584E+03  0.7818608E-02  0.1149666E+00
         21   -1    0    0  501  502  0.00000000000E+00  0.00000000000E+00  0.14191740397E+03  0.14191740397E+03  0.00000000000E+00 0. -1.
         21   -1    0    0  502  503 -0.00000000000E+00 -0.00000000000E+00 -0.28178057474E+03  0.28178057474E+03  0.00000000000E+00 0. -1.
         -6    2    1    2    0  503 -0.99896219334E+02 -0.24162165029E+02 -0.86476839454E+02  0.21586586737E+03  0.16898746722E+03 0.  0.
        -24    2    3    3    0    0 -0.12307397851E+03 -0.47622468271E+02 -0.95569992141E+02  0.18133515967E+03  0.79584628315E+02 0.  0.
          6    2    1    2  501    0  0.99896219334E+02  0.24162165029E+02 -0.53386331318E+02  0.20783211133E+03  0.17257178586E+03 0.  0.
         24    2    5    5    0    0  0.11801616545E+02 -0.25899856914E+02 -0.61198708210E+02  0.10609721902E+03  0.81861207269E+02 0.  0.
          5    1    5    5  501    0  0.88094602789E+02  0.50062021944E+02  0.78123768916E+01  0.10173489232E+03  0.47000000000E+01 0. -1.
        -11    1    6    6    0    0  0.40672744319E+02 -0.22462316529E+02 -0.10471826538E+02  0.47628635770E+02  0.00000000000E+00 0.  1.
         12    1    6    6    0    0 -0.28871127774E+02 -0.34375403847E+01 -0.50726881672E+02  0.58468583247E+02  0.00000000000E+00 0. -1.
         -5    1    3    3    0  503  0.23177759177E+02  0.23460303241E+02  0.90931526867E+01  0.34530707702E+02  0.47000000000E+01 0.  1.
         13    1    4    4    0    0 -0.63549422448E+02  0.16941370495E+02 -0.48348634346E+02  0.81627995019E+02  0.00000000000E+00 0. -1.
        -14    1    4    4    0    0 -0.59524556063E+02 -0.64563838766E+02 -0.47221357795E+02  0.99707164651E+02  0.00000000000E+00 0.  1.
</event>
<event>
12    1  0.8358445E-002  0.2116111E+03  0.7818608E-02  0.1140775E+00
         21   -1    0    0  501  502  0.00000000000E+00  0.00000000000E+00  0.39029708218E+02  0.39029708218E+02  0.00000000000E+00 0. -1.
         21   -1    0    0  502  503 -0.00000000000E+00 -0.00000000000E+00 -0.13526443112E+04  0.13526443112E+04  0.00000000000E+00 0. -1.
         -6    2    1    2    0  503 -0.10987780063E+03  0.51394720855E+02 -0.37399852399E+03  0.42852416838E+03  0.17042159057E+03 0.  0.
        -24    2    3    3    0    0 -0.51801228140E+02  0.18912989579E+02 -0.34075203094E+03  0.35398981093E+03  0.78458723184E+02 0.  0.
          6    2    1    2  501    0  0.10987780063E+03 -0.51394720855E+02 -0.93961607896E+03  0.96314985101E+03  0.17339178544E+03 0.  0.
         24    2    5    5    0    0  0.47972978309E+02 -0.12985882244E+02 -0.79810182131E+03  0.80391473859E+03  0.82718498254E+02 0.  0.
          5    1    5    5  501    0  0.61904822325E+02 -0.38408838611E+02 -0.14151425765E+03  0.15923511243E+03  0.47000000000E+01 0. -1.
        -13    1    6    6    0    0 -0.23577437284E+02 -0.66573571672E+01 -0.22456281149E+03  0.22589526834E+03  0.00000000000E+00 0.  1.
         14    1    6    6    0    0  0.71550415593E+02 -0.63285250770E+01 -0.57353900982E+03  0.57801947025E+03  0.00000000000E+00 0. -1.
         -5    1    3    3    0  503 -0.58076572493E+02  0.32481731276E+02 -0.33246493051E+02  0.74534357443E+02  0.47000000000E+01 0.  1.
         11    1    4    4    0    0 -0.45544001336E+02 -0.22869305200E+02 -0.14398110460E+03  0.15273447436E+03  0.00000000000E+00 0. -1.
        -12    1    4    4    0    0 -0.62572268037E+01  0.41782294778E+02 -0.19677092635E+03  0.20125533657E+03  0.00000000000E+00 0.  1.
</event>
<event>
12    1  0.8358445E-002  0.1889825E+03  0.7818608E-02  0.1159389E+00
         21   -1    0    0  503  502  0.00000000000E+00  0.00000000000E+00  0.77059990145E+03  0.77059990145E+03  0.00000000000E+00 0. -1.
         21   -1    0    0  501  503 -0.00000000000E+00 -0.00000000000E+00 -0.81941463231E+02  0.81941463231E+02  0.00000000000E+00 0. -1.
          6    2    1    2  501    0 -0.56401381662E+02 -0.56237393837E+02  0.63365678038E+02  0.19932283513E+03  0.17137859589E+03 0.  0.
         24    2    3    3    0    0 -0.26372633729E+01  0.31238113914E+02  0.35622618358E+02  0.92860108165E+02  0.79820134244E+02 0.  0.
         -6    2    1    2    0  502  0.56401381662E+02  0.56237393837E+02  0.62529276018E+03  0.65321852955E+03  0.17134658181E+03 0.  0.
        -24    2    5    5    0    0  0.94748016335E+02  0.75717967054E+02  0.49291602301E+03  0.51395027163E+03  0.80425610503E+02 0.  0.
          5    1    3    3  501    0 -0.53764118289E+02 -0.87475507751E+02  0.27743059680E+02  0.10646272696E+03  0.47000000000E+01 0. -1.
        -11    1    4    4    0    0  0.27138017470E+02  0.39255771844E+02  0.39278242704E+02  0.61808316311E+02  0.00000000000E+00 0.  1.
         12    1    4    4    0    0 -0.29775280843E+02 -0.80176579301E+01 -0.36556243463E+01  0.31051791854E+02  0.00000000000E+00 0. -1.
         -5    1    5    5    0  502 -0.38346634673E+02 -0.19480573217E+02  0.13237673716E+03  0.13926825792E+03  0.47000000000E+01 0.  1.
         13    1    6    6    0    0  0.65426979672E+01  0.10750239680E+02  0.21284273867E+03  0.21321446000E+03  0.00000000000E+00 0. -1.
        -14    1    6    6    0    0  0.88205318368E+02  0.64967727374E+02  0.28007328435E+03  0.30073581162E+03  0.00000000000E+00 0.  1.
</event>
<event>
12    1  0.8358445E-002  0.1914284E+03  0.7818608E-02  0.1157226E+00
         21   -1    0    0  503  502  0.00000000000E+00  0.00000000000E+00  0.26147292090E+02  0.26147292090E+02  0.00000000000E+00 0. -1.
         21   -1    0    0  501  503 -0.00000000000E+00 -0.00000000000E+00 -0.19990446776E+04  0.19990446776E+04  0.00000000000E+00 0. -1.
          6    2    1    2  501    0  0.49931856615E+02  0.67156217245E+02 -0.15411523018E+04  0.15529955675E+04  0.17216755684E+03 0.  0.
         24    2    3    3    0    0  0.63885384985E+02 -0.81113031675E+01 -0.11336750007E+04  0.11383635120E+04  0.80655703726E+02 0.  0.
         -6    2    1    2    0  502 -0.49931856615E+02 -0.67156217245E+02 -0.43174508378E+03  0.47219640222E+03  0.17193742200E+03 0.  0.
        -24    2    5    5    0    0 -0.39877062547E+02 -0.82592532127E+02 -0.16985479158E+03  0.20961690216E+03  0.81712232686E+02 0.  0.
          5    1    3    3  501    0 -0.13953528370E+02  0.75267520413E+02 -0.40747730108E+03  0.41463205554E+03  0.47000000000E+01 0. -1.
        -11    1    4    4    0    0  0.64025739002E+02 -0.12303744923E+02 -0.45222170873E+03  0.45689730929E+03  0.00000000000E+00 0.  1.
         12    1    4    4    0    0 -0.14035401695E+00  0.41924417553E+01 -0.68145329196E+03  0.68146620268E+03  0.00000000000E+00 0. -1.
         -5    1    5    5    0  502 -0.10054794067E+02  0.15436314882E+02 -0.26189029220E+03  0.26257950006E+03  0.47000000000E+01 0.  1.
         13    1    6    6    0    0 -0.53343139562E+02 -0.26095612288E+02 -0.55135664879E+02  0.81033407065E+02  0.00000000000E+00 0. -1.
        -14    1    6    6    0    0  0.13466077014E+02 -0.56496919839E+02 -0.11471912670E+03  0.12858349510E+03  0.00000000000E+00 0.  1.
</event>
<event>
12    1  0.8358445E-002  0.1821882E+03  0.7818608E-02  0.1166007E+00
         21   -1    0    0  501  502  0.00000000000E+00  0.00000000000E+00  0.17036010208E+03  0.17036010208E+03  0.00000000000E+00 0. -1.
         21   -1    0    0  502  503 -0.00000000000E+00 -0.00000000000E+00 -0.61163421671E+03  0.61163421671E+03  0.00000000000E+00 0. -1.
         -6    2    1    2    0  503 -0.57685687456E+02 -0.69531222316E+00 -0.54417510037E+03  0.57386329250E+03  0.17281324202E+03 0.  0.
        -24    2    3    3    0    0 -0.67834392241E+01 -0.59369214359E+02 -0.36973674557E+03  0.38285414273E+03  0.79380822148E+02 0.  0.
          6    2    1    2  501    0  0.57685687456E+02  0.69531222316E+00  0.10290098575E+03  0.20813102630E+03  0.17146949946E+03 0.  0.
         24    2    5    5    0    0  0.67967086551E+02 -0.50862643124E+02  0.56591871681E+02  0.13791312279E+03  0.92794699084E+02 0.  0.
          5    1    5    5  501    0 -0.10281399096E+02  0.51557955348E+02  0.46309114066E+02  0.70217903504E+02  0.47000000000E+01 0. -1.
        -13    1    6    6    0    0  0.50975558582E+02 -0.70744289001E+02  0.66795043581E+02  0.10984006485E+03  0.00000000000E+00 0.  1.
         14    1    6    6    0    0  0.16991527969E+02  0.19881645876E+02 -0.10203171900E+02  0.28073057944E+02  0.00000000000E+00 0. -1.
         -5    1    3    3    0  503 -0.50902248232E+02  0.58673902136E+02 -0.17443835481E+03  0.19100914977E+03  0.47000000000E+01 0.  1.
         11    1    4    4    0    0 -0.29377151421E+02 -0.30234136886E+02 -0.30856008956E+03  0.31142647435E+03  0.00000000000E+00 0. -1.
        -12    1    4    4    0    0  0.22593712197E+02 -0.29135077472E+02 -0.61176656010E+02  0.71427668384E+02  0.00000000000E+00 0.  1.
</event>
<event>
12    1  0.8358445E-002  0.2592176E+03  0.7818608E-02  0.1108132E+00
         21   -1    0    0  501  502  0.00000000000E+00  0.00000000000E+00  0.11732115006E+03  0.11732115006E+03  0.00000000000E+00 0. -1.
         21   -1    0    0  502  503 -0.00000000000E+00 -0.00000000000E+00 -0.17076067447E+04  0.17076067447E+04  0.00000000000E+00 0. -1.
         -6    2    1    2    0  503  0.40670432118E+02 -0.18519412476E+03 -0.15432019379E+04  0.15648213894E+04  0.17675636172E+03 0.  0.
        -24    2    3    3    0    0 -0.31181247099E+02 -0.15539467275E+03 -0.92995071750E+03  0.94663871367E+03  0.78719392397E+02 0.  0.
          6    2    1    2  501    0 -0.40670432118E+02  0.18519412476E+03 -0.47083656697E+02  0.26010650541E+03  0.17171946754E+03 0.  0.
         24    2    5    5    0    0  0.36540988808E+02  0.96076583177E+02 -0.57072505832E+02  0.14167759489E+03  0.79052617116E+02 0.  0.
          5    1    5    5  501    0 -0.77211420926E+02  0.89117541588E+02  0.99888491350E+01  0.11842891052E+03  0.47000000000E+01 0. -1.
        -13    1    6    6    0    0  0.37422499666E+02  0.75322930220E+02 -0.76161581495E+02  0.11346617908E+03  0.00000000000E+00 0.  1.
         14    1    6    6    0    0 -0.88151085754E+00  0.20753652957E+02  0.19089075662E+02  0.28211415812E+02  0.00000000000E+00 0. -1.
         -5    1    3    3    0  503  0.71851679217E+02 -0.29799452019E+02 -0.61325122044E+03  0.61818267568E+03  0.47000000000E+01 0.  1.
         13    1    4    4    0    0  0.23913434078E+02 -0.51921066076E+02 -0.38511632727E+03  0.38933563279E+03  0.00000000000E+00 0. -1.
        -14    1    4    4    0    0 -0.55094681177E+02 -0.10347360667E+03 -0.54483439024E+03  0.55730308088E+03  0.00000000000E+00 0.  1.
</event>
<event>
12    1  0.8358445E-002  0.1791823E+03  0.7818608E-02  0.1168889E+00
         21   -1    0    0  501  502  0.00000000000E+00  0.00000000000E+00  0.44498466797E+02  0.44498466797E+02  0.00000000000E+00 0. -1.
         21   -1    0    0  502  503 -0.00000000000E+00 -0.00000000000E+00 -0.95416020611E+03  0.95416020611E+03  0.00000000000E+00 0. -1.
         -6    2    1    2    0  503  0.12246498575E+01 -0.46498470576E+02 -0.70506941614E+03  0.72748139184E+03  0.17303955146E+03 0.  0.
        -24    2    3    3    0    0  0.33647118495E+01 -0.68837371483E+02 -0.23707094253E+03  0.25892161160E+03  0.78024766344E+02 0.  0.
          6    2    1    2  501    0 -0.12246498575E+01  0.46498470576E+02 -0.20459232317E+03  0.27117728106E+03  0.17180073204E+03 0.  0.
         24    2    5    5    0    0  0.55620109358E+02  0.64770945721E+02 -0.13091019634E+03  0.17622278768E+03  0.81413263165E+02 0.  0.
          5    1    5    5  501    0 -0.56844759216E+02 -0.18272475145E+02 -0.73682126830E+02  0.94954493377E+02  0.47000000000E+01 0. -1.
        -13    1    6    6    0    0  0.63351927785E+01 -0.19519649035E+01 -0.77016350599E+02  0.77301119617E+02  0.00000000000E+00 0.  1.
         14    1    6    6    0    0  0.49284916580E+02  0.66722910625E+02 -0.53893845739E+02  0.98921668067E+02  0.00000000000E+00 0. -1.
         -5    1    3    3    0  503 -0.21400619920E+01  0.22338900908E+02 -0.46799847362E+03  0.46855978025E+03  0.47000000000E+01 0.  1.
         13    1    4    4    0    0  0.31085180083E+02 -0.18427493872E+02 -0.15191823770E+03  0.15615701040E+03  0.00000000000E+00 0. -1.
        -14    1    4    4    0    0 -0.27720468233E+02 -0.50409877612E+02 -0.85152704825E+02  0.10276460120E+03  0.00000000000E+00 0.  1.
</event>
<event>
12    1  0.8358445E-002  0.1876436E+03  0.7818608E-02  0.1161798E+00
         21   -1    0    0  501  502  0.00000000000E+00  0.00000000000E+00  0.58766203580E+03  0.58766203580E+03  0.00000000000E+00 0.  1.
         21   -1    0    0  502  503 -0.00000000000E+00 -0.00000000000E+00 -0.72596569909E+02  0.72596569909E+02  0.00000000000E+00 0.  1.
         -6    2    1    2    0  503  0.44025156846E+02 -0.45189630528E+02  0.11384927653E+03  0.21948068348E+03  0.17671953914E+03 0.  0.
        -24    2    3    3    0    0  0.50471015018E+02 -0.97003379817E+02  0.84972994165E+02  0.15962967358E+03  0.79399268872E+02 0.  0.
          6    2    1    2  501    0 -0.44025156846E+02  0.45189630528E+02  0.40121618936E+03  0.44077792223E+03  0.17126128860E+03 0.  0.
         24    2    5    5    0    0 -0.76957323296E+02  0.69370425931E+02  0.35856969698E+03  0.38153223238E+03  0.79119726657E+02 0.  0.
          5    1    5    5  501    0  0.32932166450E+02 -0.24180795403E+02  0.42646492380E+02  0.59245689849E+02  0.47000000000E+01 0. -1.
        -13    1    6    6    0    0 -0.43697524456E+02  0.33085391011E+02  0.30027444039E+03  0.30523573888E+03  0.00000000000E+00 0.  1.
         14    1    6    6    0    0 -0.33259798840E+02  0.36285034919E+02  0.58295256596E+02  0.76296493494E+02  0.00000000000E+00 0. -1.
         -5    1    3    3    0  503 -0.64458581719E+01  0.51813749289E+02  0.28876282361E+02  0.59851009899E+02  0.47000000000E+01 0.  1.
         11    1    4    4    0    0  0.36247386461E+02 -0.18652441833E+01  0.99406599993E+01  0.37632019376E+02  0.00000000000E+00 0. -1.
        -12    1    4    4    0    0  0.14223628557E+02 -0.95138135634E+02  0.75032334166E+02  0.12199765421E+03  0.00000000000E+00 0.  1.
</event>
<event>
12    1  0.8358445E-002  0.1856281E+03  0.7818608E-02  0.1162880E+00
         21   -1    0    0  503  502  0.00000000000E+00  0.00000000000E+00  0.46134150993E+02  0.46134150993E+02  0.00000000000E+00 0.  1.
         21   -1    0    0  501  503 -0.00000000000E+00 -0.00000000000E+00 -0.11974244726E+04  0.11974244726E+04  0.00000000000E+00 0.  1.
          6    2    1    2  501    0  0.36393798422E+02  0.54030024208E+02 -0.96174855008E+03  0.97949888803E+03  0.17382188007E+03 0.  0.
         24    2    3    3    0    0  0.40621503990E+02  0.95351433346E+02 -0.85634404245E+03  0.86610782764E+03  0.77946440788E+02 0.  0.
         -6    2    1    2    0  502 -0.36393798422E+02 -0.54030024208E+02 -0.18954177153E+03  0.26405973557E+03  0.17192355486E+03 0.  0.
        -24    2    5    5    0    0 -0.54508553270E+02 -0.90207736227E+02 -0.17756023242E+03  0.22160248095E+03  0.80445045666E+02 0.  0.
          5    1    3    3  501    0 -0.42277055676E+01 -0.41321409138E+02 -0.10540450763E+03  0.11339106039E+03  0.47000000000E+01 0. -1.
        -11    1    4    4    0    0  0.52392185611E+02  0.53810427868E+02 -0.69641824667E+03  0.70045619246E+03  0.00000000000E+00 0.  1.
         12    1    4    4    0    0 -0.11770681621E+02  0.41541005478E+02 -0.15992579579E+03  0.16565163519E+03  0.00000000000E+00 0. -1.
         -5    1    5    5    0  502  0.18114754848E+02  0.36177712019E+02 -0.11981539111E+02  0.42457254617E+02  0.47000000000E+01 0.  1.
         13    1    6    6    0    0 -0.27096574462E+02  0.14661708992E+01 -0.10531837464E+02  0.29108308179E+02  0.00000000000E+00 0. -1.
        -14    1    6    6    0    0 -0.27411978808E+02 -0.91673907126E+02 -0.16702839496E+03  0.19249417278E+03  0.00000000000E+00 0.  1.
</event>
<event>
12    1  0.8358445E-002  0.2279480E+03  0.7818608E-02  0.1128134E+00
         21   -1    0    0  501  502  0.00000000000E+00  0.00000000000E+00  0.10721022678E+04  0.10721022678E+04  0.00000000000E+00 0.  1.
         21   -1    0    0  502  503 -0.00000000000E+00 -0.00000000000E+00 -0.78343051800E+02  0.78343051800E+02  0.00000000000E+00 0. -1.
         -6    2    1    2    0  503  0.13107806861E+03 -0.69920439774E+02  0.14120344862E+03  0.26794228438E+03  0.17258136020E+03 0.  0.
        -24    2    3    3    0    0  0.15543919149E+03 -0.77316425743E+02  0.92358052409E+02  0.21266003001E+03  0.80963612693E+02 0.  0.
          6    2    1    2  501    0 -0.13107806861E+03  0.69920439774E+02  0.85255576742E+03  0.88250303527E+03  0.17288708084E+03 0.  0.
         24    2    5    5    0    0 -0.15452581559E+03  0.23387791464E+02  0.67261920295E+03  0.69511482478E+03  0.79641766488E+02 0.  0.
          5    1    5    5  501    0  0.23447746984E+02  0.46532648310E+02  0.17993656447E+03  0.18738821049E+03  0.47000000000E+01 0. -1.
        -11    1    6    6    0    0 -0.62288368569E+01  0.11553319391E+02  0.18109894591E+03  0.18157396787E+03  0.00000000000E+00 0.  1.
         12    1    6    6    0    0 -0.14829697873E+03  0.11834472072E+02  0.49152025704E+03  0.51354085691E+03  0.00000000000E+00 0. -1.
         -5    1    3    3    0  503 -0.24361122881E+02  0.73959859693E+01  0.48845396214E+02  0.55282254366E+02  0.47000000000E+01 0.  1.
         11    1    4    4    0    0  0.82065758335E+02 -0.71738481137E+02  0.22711965342E+02  0.11134195856E+03  0.00000000000E+00 0. -1.
        -12    1    4    4    0    0  0.73373433152E+02 -0.55779446063E+01  0.69646087066E+02  0.10131807145E+03  0.00000000000E+00 0.  1.
</event>
<event>
12    1  0.8358445E-002  0.2275388E+03  0.7818608E-02  0.1128400E+00
         21   -1    0    0  501  502  0.00000000000E+00  0.00000000000E+00  0.52086432401E+03  0.52086432401E+03  0.00000000000E+00 0. -1.
         21   -1    0    0  502  503 -0.00000000000E+00 -0.00000000000E+00 -0.11081952521E+03  0.11081952521E+03  0.00000000000E+00 0. -1.
         -6    2    1    2    0  503 -0.90662650247E+02  0.11836183648E+03  0.10342402098E+03  0.24985899469E+03  0.17176655270E+03 0.  0.
        -24    2    3    3    0    0 -0.63910201842E+02  0.12184376024E+02  0.46391711382E+01  0.10231278781E+03  0.78825197258E+02 0.  0.
          6    2    1    2  501    0  0.90662650247E+02 -0.11836183648E+03  0.30662077782E+03  0.38182485453E+03  0.17188565287E+03 0.  0.
         24    2    5    5    0    0  0.12347324289E+03 -0.12522878514E+03  0.26197571860E+03  0.32579842071E+03  0.81150745324E+02 0.  0.
          5    1    5    5  501    0 -0.32810592642E+02  0.68669486624E+01  0.44645059226E+02  0.56026433821E+02  0.47000000000E+01 0. -1.
        -11    1    6    6    0    0  0.56945499516E+02 -0.66598195676E+01  0.87390417199E+02  0.10451903238E+03  0.00000000000E+00 0.  1.
         12    1    6    6    0    0  0.66527743373E+02 -0.11856896557E+03  0.17458530140E+03  0.22127938833E+03  0.00000000000E+00 0. -1.
         -5    1    3    3    0  503 -0.26752448406E+02  0.10617746046E+03  0.98784849841E+02  0.14754620687E+03  0.47000000000E+01 0.  1.
         11    1    4    4    0    0 -0.16945519479E+02  0.42769290364E+02  0.49210506155E+01  0.46266397826E+02  0.00000000000E+00 0. -1.
        -12    1    4    4    0    0 -0.46964682363E+02 -0.30584914340E+02 -0.28187947730E+00  0.56046389988E+02  0.00000000000E+00 0.  1.
</event>
<event>
12    1  0.8358445E-002  0.2040378E+03  0.7818608E-02  0.1147042E+00
         21   -1    0    0  503  502  0.00000000000E+00  0.00000000000E+00  0.28767204618E+03  0.28767204618E+03  0.00000000000E+00 0.  1.
         21   -1    0    0  501  503 -0.00000000000E+00 -0.00000000000E+00 -0.14986821097E+03  0.14986821097E+03  0.00000000000E+00 0.  1.
          6    2    1    2  501    0  0.91005424142E+02  0.49133309346E+02  0.20754011079E+02  0.20509055380E+03  0.17588444210E+03 0.  0.
         24    2    3    3    0    0 -0.72572097093E+01 -0.98400905642E+01 -0.19236967690E+02  0.83621316993E+02  0.80454765270E+02 0.  0.
         -6    2    1    2    0  502 -0.91005424142E+02 -0.49133309346E+02  0.11704982414E+03  0.23244970335E+03  0.17215148545E+03 0.  0.
        -24    2    5    5    0    0  0.10173553121E+02 -0.30021728442E+00  0.81453823901E+02  0.11450470958E+03  0.79831145397E+02 0.  0.
          5    1    3    3  501    0  0.98262633851E+02  0.58973399910E+02  0.39990978769E+02  0.12146923681E+03  0.47000000000E+01 0. -1.
        -11    1    4    4    0    0  0.10413777731E+02  0.13288281841E+02 -0.42904621673E+02  0.46106743127E+02  0.00000000000E+00 0.  1.
         12    1    4    4    0    0 -0.17670987440E+02 -0.23128372405E+02  0.23667653983E+02  0.37514573865E+02  0.00000000000E+00 0. -1.
         -5    1    5    5    0  502 -0.10117897726E+03 -0.48833092062E+02  0.35596000238E+02  0.11794499376E+03  0.47000000000E+01 0.  1.
         11    1    6    6    0    0  0.41012196143E+02 -0.17148943153E+02  0.36986794117E+02  0.57828275287E+02  0.00000000000E+00 0. -1.
        -12    1    6    6    0    0 -0.30838643021E+02  0.16848725869E+02  0.44467029785E+02  0.56676434297E+02  0.00000000000E+00 0.  1.
</event>
<event>
12    1  0.8358445E-002  0.1827626E+03  0.7818608E-02  0.1165178E+00
         21   -1    0    0  501  502  0.00000000000E+00  0.00000000000E+00  0.43915675060E+03  0.43915675060E+03  0.00000000000E+00 0. -1.
         21   -1    0    0  502  503 -0.00000000000E+00 -0.00000000000E+00 -0.81137912577E+02  0.81137912577E+02  0.00000000000E+00 0. -1.
         -6    2    1    2    0  503  0.58232644183E+02 -0.15887832581E+02  0.11363451662E+03  0.21512937943E+03  0.17240760557E+03 0.  0.
        -24    2    3    3    0    0  0.70712602029E+02 -0.57860529685E+02  0.11985530344E+03  0.17065191504E+03  0.80054165194E+02 0.  0.
          6    2    1    2  501    0 -0.58232644183E+02  0.15887832581E+02  0.24438432141E+03  0.30516528374E+03  0.17250707168E+03 0.  0.
         24    2    5    5    0    0  0.29829735065E+01  0.63687297035E+02  0.15731393708E+03  0.18839421507E+03  0.81729649081E+02 0.  0.
          5    1    5    5  501    0 -0.61215617690E+02 -0.47799464454E+02  0.87070384331E+02  0.11677106867E+03  0.47000000000E+01 0. -1.
        -11    1    6    6    0    0 -0.39364207193E+02  0.29557920068E+02  0.72058782863E+02  0.87267861406E+02  0.00000000000E+00 0.  1.
         12    1    6    6    0    0  0.42347180700E+02  0.34129376967E+02  0.85255154216E+02  0.10112635367E+03  0.00000000000E+00 0. -1.
         -5    1    3    3    0  503 -0.12479957846E+02  0.41972697104E+02 -0.62207868215E+01  0.44477464391E+02  0.47000000000E+01 0.  1.
         11    1    4    4    0    0  0.33852700037E+01  0.15447974025E+02  0.40099958847E+02  0.43105761262E+02  0.00000000000E+00 0. -1.
        -12    1    4    4    0    0  0.67327332026E+02 -0.73308503709E+02  0.79755344590E+02  0.12754615378E+03  0.00000000000E+00 0.  1.
</event>
<event>
12    1  0.8358445E-002  0.2237640E+03  0.7818608E-02  0.1131363E+00
         21   -1    0    0  503  502  0.00000000000E+00  0.00000000000E+00  0.54171147807E+02  0.54171147807E+02  0.00000000000E+00 0. -1.
         21   -1    0    0  501  503 -0.00000000000E+00 -0.00000000000E+00 -0.92058204584E+03  0.92058204584E+03  0.00000000000E+00 0. -1.
          6    2    1    2  501    0 -0.37471028395E+02 -0.13839717205E+03 -0.40885197524E+03  0.46541000823E+03  0.16996671117E+03 0.  0.
         24    2    3    3    0    0 -0.51017866294E+02 -0.16495896573E+03 -0.33275595809E+03  0.38354585535E+03  0.81034637402E+02 0.  0.
         -6    2    1    2    0  502  0.37471028395E+02  0.13839717205E+03 -0.45755892280E+03  0.50934318541E+03  0.17179190172E+03 0.  0.
        -24    2    5    5    0    0  0.65419959870E+02  0.11181111844E+03 -0.44211680030E+03  0.46752799482E+03  0.79584316806E+02 0.  0.
          5    1    3    3  501    0  0.13546837899E+02  0.26561793683E+02 -0.76096017149E+02  0.81864152880E+02  0.47000000000E+01 0. -1.
        -13    1    4    4    0    0  0.66257466710E+01  0.29697552055E+01 -0.43833443561E+02  0.44430740927E+02  0.00000000000E+00 0.  1.
         14    1    4    4    0    0 -0.57643612965E+02 -0.16792872094E+03 -0.28892251453E+03  0.33911511443E+03  0.00000000000E+00 0. -1.
         -5    1    5    5    0  502 -0.27948931475E+02  0.26586053605E+02 -0.15442122499E+02  0.41815190591E+02  0.47000000000E+01 0.  1.
         13    1    6    6    0    0  0.47313861252E+02  0.62618289483E+02 -0.13655145955E+03  0.15749905635E+03  0.00000000000E+00 0. -1.
        -14    1    6    6    0    0  0.18106098619E+02  0.49192828962E+02 -0.30556534074E+03  0.31002893848E+03  0.00000000000E+00 0.  1.
</event>
<event>
12    1  0.8358445E-002  0.2109395E+03  0.7818608E-02  0.1141713E+00
         21   -1    0    0  503  502  0.00000000000E+00  0.00000000000E+00  0.15046748969E+04  0.15046748969E+04  0.00000000000E+00 0.  1.
         21   -1    0    0  501  503 -0.00000000000E+00 -0.00000000000E+00 -0.46669098454E+02  0.46669098454E+02  0.00000000000E+00 0.  1.
          6    2    1    2  501    0  0.76612674700E+02  0.84485657736E+02  0.24621181057E+03  0.32132767948E+03  0.17211593084E+03 0.  0.
         24    2    3    3    0    0  0.50869246012E+02  0.10947861225E+03  0.24608342532E+03  0.28514096398E+03  0.78581616106E+02 0.  0.
         -6    2    1    2    0  502 -0.76612674700E+02 -0.84485657736E+02  0.12117939879E+04  0.12300163159E+04  0.17744897850E+03 0.  0.
        -24    2    5    5    0    0 -0.43177416072E+02 -0.11679974120E+03  0.67883915821E+03  0.69501626263E+03  0.81966662673E+02 0.  0.
          5    1    3    3  501    0  0.25743428688E+02 -0.24992954517E+02  0.12838524707E+00  0.36186715503E+02  0.47000000000E+01 0. -1.
        -13    1    4    4    0    0  0.21756922337E+02  0.79324730996E+02  0.83373558903E+02  0.11711928510E+03  0.00000000000E+00 0.  1.
         14    1    4    4    0    0  0.29112323676E+02  0.30153881257E+02  0.16270986642E+03  0.16802167888E+03  0.00000000000E+00 0. -1.
         -5    1    5    5    0  502 -0.33435258629E+02  0.32314083467E+02  0.53295482971E+03  0.53500005329E+03  0.47000000000E+01 0.  1.
         13    1    6    6    0    0 -0.23978614156E+01 -0.87182053522E+02  0.28728729617E+03  0.30023399331E+03  0.00000000000E+00 0. -1.
        -14    1    6    6    0    0 -0.40779554656E+02 -0.29617687681E+02  0.39155186204E+03  0.39478226932E+03  0.00000000000E+00 0.  1.
</event>
<event>
12    1  0.8358445E-002  0.1757009E+03  0.7818608E-02  0.1172062E+00
         21   -1    0    0  503  502  0.00000000000E+00  0.00000000000E+00  0.55382462528E+02  0.55382462528E+02  0.00000000000E+00 0.  1.
         21   -1    0    0  501  503 -0.00000000000E+00 -0.00000000000E+00 -0.88159908695E+03  0.88159908695E+03  0.00000000000E+00 0.  1.
          6    2    1    2  501    0  0.10330272523E+02 -0.33232032152E+02 -0.69747948689E+03  0.71926936782E+03  0.17221993600E+03 0.  0.
         24    2    3    3    0    0 -0.14845492833E+02 -0.22234772351E+02 -0.16244815101E+03  0.18351253934E+03  0.81072045554E+02 0.  0.
         -6    2    1    2    0  502 -0.10330272523E+02  0.33232032152E+02 -0.12873713753E+03  0.21771218166E+03  0.17208794546E+03 0.  0.
        -24    2    5    5    0    0 -0.43061749903E+02  0.42092846946E+01 -0.14635799066E+03  0.17031752008E+03  0.75600025367E+02 0.  0.
          5    1    3    3  501    0  0.25175765356E+02 -0.10997259801E+02 -0.53503133588E+03  0.53575682848E+03  0.47000000000E+01 0. -1.
        -13    1    4    4    0    0 -0.40427877671E+02 -0.24509945428E+02 -0.14487150575E+03  0.15239062930E+03  0.00000000000E+00 0.  1.
         14    1    4    4    0    0  0.25582384838E+02  0.22751730772E+01 -0.17576645259E+02  0.31121910049E+02  0.00000000000E+00 0. -1.
         -5    1    5    5    0  502  0.32731477380E+02  0.29022747458E+02  0.17620853124E+02  0.47394661580E+02  0.47000000000E+01 0.  1.
         11    1    6    6    0    0 -0.21746923342E+02 -0.23267441061E+02 -0.16469610695E+02  0.35854575228E+02  0.00000000000E+00 0. -1.
        -12    1    6    6    0    0 -0.21314826561E+02  0.27476725756E+02 -0.12988837996E+03  0.13446294485E+03  0.00000000000E+00 0.  1.
</event>
<event>
12    1  0.8358445E-002  0.1835260E+03  0.7818608E-02  0.1164691E+00
         21   -1    0    0  501  502  0.00000000000E+00  0.00000000000E+00  0.21026432544E+03  0.21026432544E+03  0.00000000000E+00 0.  1.
         21   -1    0    0  502  503 -0.00000000000E+00 -0.00000000000E+00 -0.38050424749E+03  0.38050424749E+03  0.00000000000E+00 0.  1.
         -6    2    1    2    0  503  0.52057621766E+01 -0.60579013103E+02 -0.31047446891E+03  0.36066076959E+03  0.17316142207E+03 0.  0.
        -24    2    3    3    0    0  0.23215604043E+02 -0.18624610250E+02 -0.30100639870E+03  0.31379649027E+03  0.83531699790E+02 0.  0.
          6    2    1    2  501    0 -0.52057621766E+01  0.60579013103E+02  0.14023454685E+03  0.23010780333E+03  0.17200859350E+03 0.  0.
         24    2    5    5    0    0 -0.29497150158E+02  0.34301890784E+02  0.16363705750E+03  0.18709238526E+03  0.78611528773E+02 0.  0.
          5    1    5    5  501    0  0.24291387981E+02  0.26277122319E+02 -0.23402510650E+02  0.43015418074E+02  0.47000000000E+01 0. -1.
        -13    1    6    6    0    0 -0.44011298632E+02  0.29733121661E+01  0.13566454705E+03  0.14265589479E+03  0.00000000000E+00 0.  1.
         14    1    6    6    0    0  0.14514148474E+02  0.31328578618E+02  0.27972510449E+02  0.44436490467E+02  0.00000000000E+00 0. -1.
         -5    1    3    3    0  503 -0.18009841866E+02 -0.41954402853E+02 -0.94680702010E+01  0.46864279319E+02  0.47000000000E+01 0.  1.
         13    1    4    4    0    0 -0.22508731495E+02  0.12507116118E+02 -0.44678698618E+02  0.51567984809E+02  0.00000000000E+00 0. -1.
        -14    1    4    4    0    0  0.45724335538E+02 -0.31131726367E+02 -0.25632770009E+03  0.26222850547E+03  0.00000000000E+00 0.  1.
</event>
<event>
12    1  0.8358445E-002  0.1854713E+03  0.7818608E-02  0.1163190E+00
         21   -1    0    0  501  502  0.00000000000E+00  0.00000000000E+00  0.76934399506E+03  0.76934399506E+03  0.00000000000E+00 0.  1.
         21   -1    0    0  502  503 -0.00000000000E+00 -0.00000000000E+00 -0.58400326486E+02  0.58400326486E+02  0.00000000000E+00 0.  1.
         -6    2    1    2    0  503  0.18154956750E+02  0.61500415402E+02  0.15261336259E+03  0.24018834322E+03  0.17403361235E+03 0.  0.
        -24    2    3    3    0    0 -0.21415683434E+02  0.15594104327E+02  0.15852605745E+03  0.17911236659E+03  0.79050119464E+02 0.  0.
          6    2    1    2  501    0 -0.18154956750E+02 -0.61500415402E+02  0.55833030598E+03  0.58755597832E+03  0.17139834754E+03 0.  0.
         24    2    5    5    0    0 -0.30108483498E+02 -0.69962311010E+02  0.56106396390E+03  0.57193377091E+03  0.80710724057E+02 0.  0.
          5    1    5    5  501    0  0.11953526748E+02  0.84618956078E+01 -0.27336579174E+01  0.15622207417E+02  0.47000000000E+01 0. -1.
        -11    1    6    6    0    0 -0.18399638622E+02 -0.86858977845E+02  0.48900308159E+03  0.49699803072E+03  0.00000000000E+00 0.  1.
         12    1    6    6    0    0 -0.11708844876E+02  0.16896666835E+02  0.72060882308E+02  0.74935740188E+02  0.00000000000E+00 0. -1.
         -5    1    3    3    0  503  0.39570640184E+02  0.45906311075E+02 -0.59126948591E+01  0.61075976632E+02  0.47000000000E+01 0.  1.
         13    1    4    4    0    0  0.26416276617E+02 -0.10201827956E+02  0.43658955365E+02  0.52038460273E+02  0.00000000000E+00 0. -1.
        -14    1    4    4    0    0 -0.47831960051E+02  0.25795932283E+02  0.11486710209E+03  0.12707390632E+03  0.00000000000E+00 0.  1.
</event>
<event>
12    1  0.8358445E-002  0.1930375E+03  0.7818608E-02  0.1155902E+00
         21   -1    0    0  503  502  0.00000000000E+00  0.00000000000E+00  0.13913900687E+03  0.13913900687E+03  0.00000000000E+00 0. -1.
         21   -1    0    0  501  503 -0.00000000000E+00 -0.00000000000E+00 -0.44607739209E+03  0.44607739209E+03  0.00000000000E+00 0.  1.
          6    2    1    2  501    0  0.40469884388E+02  0.75357466968E+02 -0.33877387565E+03  0.38957136119E+03  0.17228333427E+03 0.  0.
         24    2    3    3    0    0  0.13149015283E+02  0.82630696105E+02 -0.34178320428E+03  0.36075338400E+03  0.79539404051E+02 0.  0.
         -6    2    1    2    0  502 -0.40469884388E+02 -0.75357466968E+02  0.31835490429E+02  0.19564503777E+03  0.17305179278E+03 0.  0.
        -24    2    5    5    0    0 -0.84297441824E+02 -0.24665127110E+02 -0.51529164475E+01  0.11895866118E+03  0.80063620509E+02 0.  0.
          5    1    3    3  501    0  0.27320869105E+02 -0.72732291372E+01  0.30093286290E+01  0.28817977194E+02  0.47000000000E+01 0. -1.
        -13    1    4    4    0    0  0.19104976098E+02  0.28861033910E+02 -0.26249844065E+03  0.26477044913E+03  0.00000000000E+00 0.  1.
         14    1    4    4    0    0 -0.59559608149E+01  0.53769662195E+02 -0.79284763634E+02  0.95982934870E+02  0.00000000000E+00 0. -1.
         -5    1    5    5    0  502  0.43827557435E+02 -0.50692339858E+02  0.36988406877E+02  0.76686376589E+02  0.47000000000E+01 0.  1.
         13    1    6    6    0    0 -0.59951512996E+02 -0.54027319633E+02 -0.33650813231E+01  0.80774123019E+02  0.00000000000E+00 0. -1.
        -14    1    6    6    0    0 -0.24345928828E+02  0.29362192523E+02 -0.17878351244E+01  0.38184538163E+02  0.00000000000E+00 0.  1.
</event>
<event>
12    1  0.8358445E-002  0.3422081E+03  0.7818608E-02  0.1065913E+00
         21   -1    0    0  501  502  0.00000000000E+00  0.00000000000E+00  0.29808888963E+03  0.29808888963E+03  0.00000000000E+00 0. -1.
         21   -1    0    0  502  503 -0.00000000000E+00 -0.00000000000E+00 -0.88212567770E+03  0.88212567770E+03  0.00000000000E+00 0. -1.
         -6    2    1    2    0  503 -0.12592146265E+03  0.26702102844E+03 -0.73166402745E+03  0.80752145081E+03  0.17205289906E+03 0.  0.
        -24    2    3    3    0    0 -0.14188011535E+03  0.26212732933E+03 -0.72675730955E+03  0.78949944295E+03  0.79325150558E+02 0.  0.
          6    2    1    2  501    0  0.12592146265E+03 -0.26702102844E+03  0.14762723938E+03  0.37269311652E+03  0.17306043136E+03 0.  0.
         24    2    5    5    0    0  0.13970432212E+03 -0.18918459203E+03  0.62028115563E+02  0.25608360555E+03  0.80144983828E+02 0.  0.
          5    1    5    5  501    0 -0.13782859465E+02 -0.77836436412E+02  0.85599123822E+02  0.11660951096E+03  0.47000000000E+01 0. -1.
        -11    1    6    6    0    0 -0.79654427595E+01 -0.21691407857E+02 -0.35038796853E+01  0.23371834032E+02  0.00000000000E+00 0.  1.
         12    1    6    6    0    0  0.14766976488E+03 -0.16749318418E+03  0.65531995248E+02  0.23271177152E+03  0.00000000000E+00 0. -1.
         -5    1    3    3    0  503  0.15958652701E+02  0.48936991103E+01 -0.49067178970E+01  0.18022007866E+02  0.47000000000E+01 0.  1.
         13    1    4    4    0    0 -0.46196506752E+02  0.80115119663E+02 -0.32876328164E+03  0.34152283231E+03  0.00000000000E+00 0. -1.
        -14    1    4    4    0    0 -0.95683608600E+02  0.18201220967E+03 -0.39799402791E+03  0.44797661063E+03  0.00000000000E+00 0.  1.
</event>
<event>
12    1  0.8358445E-002  0.1835769E+03  0.7818608E-02  0.1164405E+00
         21   -1    0    0  503  502  0.00000000000E+00  0.00000000000E+00  0.52941007983E+03  0.52941007983E+03  0.00000000000E+00 0.  1.
         21   -1    0    0  501  503 -0.00000000000E+00 -0.00000000000E+00 -0.71311945146E+02  0.71311945146E+02  0.00000000000E+00 0.  1.
          6    2    1    2  501    0  0.29163431461E+02 -0.59226254923E+02  0.32759956938E+03  0.37548801221E+03  0.17120605845E+03 0.  0.
         24    2    3    3    0    0  0.68789578838E+02 -0.80376713078E+02  0.21123179520E+03  0.25066364638E+03  0.83791229578E+02 0.  0.
         -6    2    1    2    0  502 -0.29163431461E+02  0.59226254923E+02  0.13049856530E+03  0.22523401276E+03  0.17129573828E+03 0.  0.
        -24    2    5    5    0    0 -0.46615895940E+02  0.72611839372E+02  0.15347020345E+03  0.19308516292E+03  0.79266990730E+02 0.  0.
          5    1    3    3  501    0 -0.39626147377E+02  0.21150458155E+02  0.11636777418E+03  0.12482436583E+03  0.47000000000E+01 0. -1.
        -13    1    4    4    0    0  0.15241524982E+02 -0.70179090963E+02  0.16203072580E+03  0.17723251676E+03  0.00000000000E+00 0.  1.
         14    1    4    4    0    0  0.53548053856E+02 -0.10197622116E+02  0.49201069394E+02  0.73431129626E+02  0.00000000000E+00 0. -1.
         -5    1    5    5    0  502  0.17452464479E+02 -0.13385584449E+02 -0.22971638147E+02  0.32148849849E+02  0.47000000000E+01 0.  1.
         11    1    6    6    0    0 -0.14338213389E+01  0.11036769942E+00  0.81131475681E+02  0.81144219577E+02  0.00000000000E+00 0. -1.
        -12    1    6    6    0    0 -0.45182074601E+02  0.72501471673E+02  0.72338727770E+02  0.11194094334E+03  0.00000000000E+00 0.  1.
</event>
<event>
12    1  0.8358445E-002  0.1924922E+03  0.7818608E-02  0.1157326E+00
         21   -1    0    0  503  502  0.00000000000E+00  0.00000000000E+00  0.68847377483E+03  0.68847377483E+03  0.00000000000E+00 0.  1.
         21   -1    0    0  501  503 -0.00000000000E+00 -0.00000000000E+00 -0.99822718103E+02  0.99822718103E+02  0.00000000000E+00 0.  1.
          6    2    1    2  501    0 -0.61384594346E+02 -0.39868788425E+02  0.24842953062E+02  0.19408872289E+03  0.17803278159E+03 0.  0.
         24    2    3    3    0    0  0.68604765184E+01 -0.77704165851E+02  0.27576138996E+02  0.11586810036E+03  0.81117012465E+02 0.  0.
         -6    2    1    2    0  502  0.61384594346E+02  0.39868788425E+02  0.56380810366E+03  0.59420777004E+03  0.17275910255E+03 0.  0.
        -24    2    5    5    0    0  0.90010380446E+02  0.64246706801E+02  0.32187760785E+03  0.34932785388E+03  0.78709892275E+02 0.  0.
          5    1    3    3  501    0 -0.68245070865E+02  0.37835377427E+02 -0.27331859340E+01  0.78220622522E+02  0.47000000000E+01 0. -1.
        -11    1    4    4    0    0 -0.35793592945E+02 -0.47805155345E+02  0.81489243560E+01  0.60273701907E+02  0.00000000000E+00 0.  1.
         12    1    4    4    0    0  0.42654069463E+02 -0.29899010507E+02  0.19427214640E+02  0.55594398456E+02  0.00000000000E+00 0. -1.
         -5    1    5    5    0  502 -0.28625786099E+02 -0.24377918377E+02  0.24193049581E+03  0.24487991616E+03  0.47000000000E+01 0.  1.
         13    1    6    6    0    0  0.32233638537E+02  0.28368257795E+01  0.25524755532E+02  0.41213689216E+02  0.00000000000E+00 0. -1.
        -14    1    6    6    0    0  0.57776741909E+02  0.61409881022E+02  0.29635285232E+03  0.30811416467E+03  0.00000000000E+00 0.  1.
</event>
<event>
12    1  0.8358445E-002  0.1840535E+03  0.7818608E-02  0.1164439E+00
         21   -1    0    0  501  502  0.00000000000E+00  0.00000000000E+00  0.14005200081E+03  0.14005200081E+03  0.00000000000E+00 0.  1.
         21   -1    0    0  502  503 -0.00000000000E+00 -0.00000000000E+00 -0.39197532723E+03  0.39197532723E+03  0.00000000000E+00 0.  1.
         -6    2    1    2    0  503  0.23120248996E+02  0.55571570985E+02 -0.29253688996E+03  0.34562048010E+03  0.17393371973E+03 0.  0.
        -24    2    3    3    0    0  0.50854083071E+02  0.45117910508E+02 -0.84488354992E+02  0.13541884482E+03  0.81106213020E+02 0.  0.
          6    2    1    2  501    0 -0.23120248996E+02 -0.55571570985E+02  0.40613563544E+02  0.18640684795E+03  0.17168373832E+03 0.  0.
         24    2    5    5    0    0  0.15903897191E+02  0.17208667166E+01  0.74255369269E+02  0.10921119719E+03  0.78468658700E+02 0.  0.
          5    1    5    5  501    0 -0.39024146188E+02 -0.57292437701E+02 -0.33641805725E+02  0.77195650758E+02  0.47000000000E+01 0. -1.
        -13    1    6    6    0    0 -0.20093709891E+01 -0.17973416866E+02  0.79963994496E+02  0.81983667285E+02  0.00000000000E+00 0.  1.
         14    1    6    6    0    0  0.17913268181E+02  0.19694283583E+02 -0.57086252273E+01  0.27227529905E+02  0.00000000000E+00 0. -1.
         -5    1    3    3    0  503 -0.27733834075E+02  0.10453660477E+02 -0.20804853497E+03  0.21020163527E+03  0.47000000000E+01 0.  1.
         11    1    4    4    0    0  0.67686045859E+02  0.42369678184E+02 -0.87100061009E+02  0.11816518549E+03  0.00000000000E+00 0. -1.
        -12    1    4    4    0    0 -0.16831962787E+02  0.27482323246E+01  0.26117060169E+01  0.17253659337E+02  0.00000000000E+00 0.  1.
</event>
<event>
12    1  0.8358445E-002  0.1759497E+03  0.7818608E-02  0.1172561E+00
         21   -1    0    0  501  502  0.00000000000E+00  0.00000000000E+00  0.28735465792E+03  0.28735465792E+03  0.00000000000E+00 0.  1.
         21   -1    0    0  502  503 -0.00000000000E+00 -0.00000000000E+00 -0.13288469174E+03  0.13288469174E+03  0.00000000000E+00 0.  1.
         -6    2    1    2    0  503 -0.86295413332E+00 -0.20998553577E+02 -0.16994587317E+02  0.17676854498E+03  0.17469006427E+03 0.  0.
        -24    2    3    3    0    0  0.18952580182E+02  0.22363358833E+01  0.53202051556E+02  0.10007321529E+03  0.82583222473E+02 0.  0.
          6    2    1    2  501    0  0.86295413332E+00  0.20998553577E+02  0.17146455350E+03  0.24347080468E+03  0.17156997314E+03 0.  0.
         24    2    5    5    0    0  0.54934190735E+02 -0.81415496236E+01  0.58326894416E+02  0.11464897367E+03  0.81598470635E+02 0.  0.
          5    1    5    5  501    0 -0.54071236602E+02  0.29140103201E+02  0.11313765908E+03  0.12882183101E+03  0.47000000000E+01 0. -1.
        -13    1    6    6    0    0  0.57021765644E+01 -0.39691665328E+02  0.26634533615E+02  0.48138773301E+02  0.00000000000E+00 0.  1.
         14    1    6    6    0    0  0.49232014171E+02  0.31550115704E+02  0.31692360801E+02  0.66510200371E+02  0.00000000000E+00 0. -1.
         -5    1    3    3    0  503 -0.19815534316E+02 -0.23234889461E+02 -0.70196638873E+02  0.76695329698E+02  0.47000000000E+01 0.  1.
         13    1    4    4    0    0  0.80126609217E+01  0.34968929377E+02  0.54828575850E+02  0.65522526558E+02  0.00000000000E+00 0. -1.
        -14    1    4    4    0    0  0.10939919261E+02 -0.32732593493E+02 -0.16265242946E+01  0.34550688727E+02  0.00000000000E+00 0.  1.
</event>
<event>
12    1  0.8358445E-002  0.1857487E+03  0.7818608E-02  0.1162936E+00
         21   -1    0    0  503  502  0.00000000000E+00  0.00000000000E+00  0.32311373461E+03  0.32311373461E+03  0.00000000000E+00 0.  1.
         21   -1    0    0  501  503 -0.00000000000E+00 -0.00000000000E+00 -0.11329614322E+03  0.11329614322E+03  0.00000000000E+00 0.  1.
          6    2    1    2  501    0  0.45187209659E+02 -0.52194714497E+02  0.16202845715E+03  0.24461215413E+03  0.16975191571E+03 0.  0.
         24    2    3    3    0    0 -0.94724743122E+01  0.45598100853E+01  0.14043525503E+03  0.16277626048E+03  0.81630450706E+02 0.  0.
         -6    2    1    2    0  502 -0.45187209659E+02  0.52194714497E+02  0.47789134242E+02  0.19179772369E+03  0.17244243481E+03 0.  0.
        -24    2    5    5    0    0 -0.86776670899E+02  0.33438214823E+02 -0.35185596557E+01  0.12297869275E+03  0.80393244649E+02 0.  0.
          5    1    3    3  501    0  0.54659683971E+02 -0.56754524582E+02  0.21593202117E+02  0.81835893654E+02  0.47000000000E+01 0. -1.
        -11    1    4    4    0    0  0.30987024934E+02  0.21776442791E+02  0.73621734198E+02  0.82792324048E+02  0.00000000000E+00 0.  1.
         12    1    4    4    0    0 -0.40459499246E+02 -0.17216632706E+02  0.66813520834E+02  0.79983936432E+02  0.00000000000E+00 0. -1.
         -5    1    5    5    0  502  0.41589461240E+02  0.18756499674E+02  0.51307693898E+02  0.68819030939E+02  0.47000000000E+01 0.  1.
         11    1    6    6    0    0 -0.33086581236E+02  0.25009377933E+02  0.36689490089E+02  0.55374267719E+02  0.00000000000E+00 0. -1.
        -12    1    6    6    0    0 -0.53690089663E+02  0.84288368904E+01 -0.40208049744E+02  0.67604425030E+02  0.00000000000E+00 0.  1.
</event>
<event>
12    1  0.8358445E-002  0.1813570E+03  0.7818608E-02  0.1166874E+00
         21   -1    0    0  503  502  0.00000000000E+00  0.00000000000E+00  0.57911469725E+03  0.57911469725E+03  0.00000000000E+00 0.  1.
         21   -1    0    0  501  503 -0.00000000000E+00 -0.00000000000E+00 -0.57849810736E+02  0.57849810736E+02  0.00000000000E+00 0.  1.
          6    2    1    2  501    0  0.29089464173E+02 -0.44658447820E+02  0.31379308498E+03  0.36243134181E+03  0.17334879134E+03 0.  0.
         24    2    3    3    0    0  0.78962995031E+01  0.31483443618E+00  0.30129452678E+03  0.31095270253E+03  0.76490134497E+02 0.  0.
         -6    2    1    2    0  502 -0.29089464173E+02  0.44658447820E+02  0.20747180154E+03  0.27453316618E+03  0.17170712568E+03 0.  0.
        -24    2    5    5    0    0  0.43055768238E+02  0.54743590014E+02  0.10446621099E+03  0.14828386386E+03  0.78893949167E+02 0.  0.
          5    1    3    3  501    0  0.21193164670E+02 -0.44973282256E+02  0.12498558202E+02  0.51478639286E+02  0.47000000000E+01 0. -1.
        -13    1    4    4    0    0  0.36927359991E+02  0.70944497655E+01  0.89618585449E+02  0.97187715228E+02  0.00000000000E+00 0.  1.
         14    1    4    4    0    0 -0.29031060487E+02 -0.67796153293E+01  0.21167594133E+03  0.21376498730E+03  0.00000000000E+00 0. -1.
         -5    1    5    5    0  502 -0.72145232411E+02 -0.10085142194E+02  0.10300559055E+03  0.12624930232E+03  0.47000000000E+01 0.  1.
         13    1    6    6    0    0 -0.28604208321E+00  0.20129098375E+02 -0.89496156448E+01  0.22030842962E+02  0.00000000000E+00 0. -1.
        -14    1    6    6    0    0  0.43341810321E+02  0.34614491639E+02  0.11341582664E+03  0.12625302089E+03  0.00000000000E+00 0.  1.
</event>
<event>
12    1  0.8358445E-002  0.3396876E+03  0.7818608E-02  0.1066984E+00
         21   -1    0    0  501  502  0.00000000000E+00  0.00000000000E+00  0.10018881223E+04  0.10018881223E+04  0.00000000000E+00 0.  1.
         21   -1    0    0  502  503 -0.00000000000E+00 -0.00000000000E+00 -0.17626488743E+03  0.17626488743E+03  0.00000000000E+00 0.  1.
         -6    2    1    2    0  503 -0.22222292661E+03 -0.19247990306E+03  0.65308892651E+02  0.34540723175E+03  0.16914302259E+03 0.  0.
        -24    2    3    3    0    0 -0.99879010644E+02 -0.10831497068E+03  0.95893332799E+02  0.19371917159E+03  0.81385726785E+02 0.  0.
          6    2    1    2  501    0  0.22222292661E+03  0.19247990306E+03  0.76031434224E+03  0.83274577800E+03  0.17016488932E+03 0.  0.
         24    2    5    5    0    0  0.12141647402E+03  0.15392414135E+03  0.62453861534E+03  0.65923605014E+03  0.78160644187E+02 0.  0.
          5    1    5    5  501    0  0.10080645259E+03  0.38555761710E+02  0.13577572690E+03  0.17350972786E+03  0.47000000000E+01 0. -1.
        -13    1    6    6    0    0  0.10077851031E+03  0.12348896940E+03  0.38191581071E+03  0.41384238566E+03  0.00000000000E+00 0.  1.
         14    1    6    6    0    0  0.20637963714E+02  0.30435171953E+02  0.24262280464E+03  0.24539366448E+03  0.00000000000E+00 0. -1.
         -5    1    3    3    0  503 -0.12234391597E+03 -0.84164932378E+02 -0.30584440148E+02  0.15168806016E+03  0.47000000000E+01 0.  1.
         13    1    4    4    0    0 -0.21258527606E+02  0.49716283492E+01  0.38700778843E+02  0.44434135161E+02  0.00000000000E+00 0. -1.
        -14    1    4    4    0    0 -0.78620483038E+02 -0.11328659903E+03  0.57192553956E+02  0.14928503643E+03  0.00000000000E+00 0.  1.
</event>
<event>
12    1  0.8358445E-002  0.2019344E+03  0.7818608E-02  0.1148159E+00
         21   -1    0    0  503  502  0.00000000000E+00  0.00000000000E+00  0.76269063252E+03  0.76269063252E+03  0.00000000000E+00 0.  1.
         21   -1    0    0  501  503 -0.00000000000E+00 -0.00000000000E+00 -0.38590889241E+03  0.38590889241E+03  0.00000000000E+00 0.  1.
          6    2    1    2  501    0  0.86306050993E+02  0.61051180831E+02 -0.34467300197E+03  0.39947088752E+03  0.17205095342E+03 0.  0.
         24    2    3    3    0    0  0.47126702711E+02 -0.12869056451E+02 -0.90677882978E+02  0.13201092177E+03  0.82570371694E+02 0.  0.
         -6    2    1    2    0  502 -0.86306050993E+02 -0.61051180831E+02  0.72145474208E+03  0.74912863741E+03  0.17181614999E+03 0.  0.
        -24    2    5    5    0    0  0.12215743976E+02 -0.51958284527E+02  0.37574054081E+03  0.38950435596E+03  0.87657296173E+02 0.  0.
          5    1    3    3  501    0  0.39179348281E+02  0.73920237282E+02 -0.25399511899E+03  0.26745996576E+03  0.47000000000E+01 0. -1.
        -13    1    4    4    0    0  0.37411987473E+02 -0.37325988447E+02 -0.91519111086E+02  0.10568175772E+03  0.00000000000E+00 0.  1.
         14    1    4    4    0    0  0.97147152382E+01  0.24456931995E+02  0.84122810784E+00  0.26329164049E+02  0.00000000000E+00 0. -1.
         -5    1    5    5    0  502 -0.98521794968E+02 -0.90928963031E+01  0.34571420127E+03  0.35962428145E+03  0.47000000000E+01 0.  1.
         13    1    6    6    0    0 -0.63485072468E+01  0.60034164765E+01 -0.12971207776E+00  0.87384998070E+01  0.00000000000E+00 0. -1.
        -14    1    6    6    0    0  0.18564251222E+02 -0.57961701004E+02  0.37587025289E+03  0.38076585615E+03  0.00000000000E+00 0.  1.
</event>
<event>
12    1  0.8358445E-002  0.1987585E+03  0.7818608E-02  0.1150997E+00
         21   -1    0    0  503  502  0.00000000000E+00  0.00000000000E+00  0.46018636913E+03  0.46018636913E+03  0.00000000000E+00 0.  1.
         21   -1    0    0  501  503 -0.00000000000E+00 -0.00000000000E+00 -0.25026772668E+03  0.25026772668E+03  0.00000000000E+00 0.  1.
          6    2    1    2  501    0  0.82544469288E+02  0.50358868068E+02 -0.18342156480E+03  0.26974845178E+03  0.17254318822E+03 0.  0.
         24    2    3    3    0    0  0.71715804234E+02  0.38975638025E+02 -0.21016335721E+03  0.23837885863E+03  0.77418257486E+02 0.  0.
         -6    2    1    2    0  502 -0.82544469288E+02 -0.50358868068E+02  0.39334020724E+03  0.44070564403E+03  0.17365293274E+03 0.  0.
        -24    2    5    5    0    0 -0.22192187321E+02 -0.41712812912E+02  0.35849737723E+03  0.37032620804E+03  0.79929212039E+02 0.  0.
          5    1    3    3  501    0  0.10828665053E+02  0.11383230043E+02  0.26741792410E+02  0.31369593149E+02  0.47000000000E+01 0. -1.
        -13    1    4    4    0    0  0.58096655908E+02  0.39416557590E+02 -0.21316265561E+03  0.22442638924E+03  0.00000000000E+00 0.  1.
         14    1    4    4    0    0  0.13619148327E+02 -0.44091956439E+00  0.29992984023E+01  0.13952469391E+02  0.00000000000E+00 0. -1.
         -5    1    5    5    0  502 -0.60352281967E+02 -0.86460551558E+01  0.34842830011E+02  0.70379435999E+02  0.47000000000E+01 0.  1.
         11    1    6    6    0    0  0.98249041016E+01 -0.34739888642E+02  0.59916399742E+02  0.69952580806E+02  0.00000000000E+00 0. -1.
        -12    1    6    6    0    0 -0.32017091422E+02 -0.69729242698E+01  0.29858097749E+03  0.30037362723E+03  0.00000000000E+00 0.  1.
</event>
<event>
12    1  0.8358445E-002  0.3298915E+03  0.7818608E-02  0.1071302E+00
         21   -1    0    0  503  502  0.00000000000E+00  0.00000000000E+00  0.51908855087E+03  0.51908855087E+03  0.00000000000E+00 0.  1.
         21   -1    0    0  501  503 -0.00000000000E+00 -0.00000000000E+00 -0.24653090315E+03  0.24653090315E+03  0.00000000000E+00 0.  1.
          6    2    1    2  501    0 -0.20688496834E+03 -0.19101965577E+03  0.28548772490E+03  0.43547465240E+03  0.16983825481E+03 0.  0.
         24    2    3    3    0    0 -0.62424032060E+02 -0.51253944188E+02  0.17281229014E+03  0.20499415465E+03  0.75065233243E+02 0.  0.
         -6    2    1    2    0  502  0.20688496834E+03  0.19101965577E+03 -0.12930077178E+02  0.33014480162E+03  0.17186769365E+03 0.  0.
        -24    2    5    5    0    0  0.22584056861E+03  0.14564729092E+03 -0.10426573775E+02  0.28068447607E+03  0.80361470147E+02 0.  0.
          5    1    3    3  501    0 -0.14446093628E+03 -0.13976571158E+03  0.11267543476E+03  0.23048049775E+03  0.47000000000E+01 0. -1.
        -11    1    4    4    0    0 -0.48115363668E+02 -0.65458984747E+02  0.16394151849E+03  0.18296663191E+03  0.00000000000E+00 0.  1.
         12    1    4    4    0    0 -0.14308668392E+02  0.14205040560E+02  0.88707716481E+01  0.22027522740E+02  0.00000000000E+00 0. -1.
         -5    1    5    5    0  502 -0.18955600266E+02  0.45372364854E+02 -0.25035034028E+01  0.49460325547E+02  0.47000000000E+01 0.  1.
         11    1    6    6    0    0  0.41584367688E+02  0.60043596994E+02  0.18810163272E+02  0.75420921622E+02  0.00000000000E+00 0. -1.
        -12    1    6    6    0    0  0.18425620092E+03  0.85603693924E+02 -0.29236737047E+02  0.20526355445E+03  0.00000000000E+00 0.  1.
</event>
<event>
12    1  0.8358445E-002  0.1905781E+03  0.7818608E-02  0.1158023E+00
         21   -1    0    0  501  502  0.00000000000E+00  0.00000000000E+00  0.95334492878E+02  0.95334492878E+02  0.00000000000E+00 0.  1.
         21   -1    0    0  502  503 -0.00000000000E+00 -0.00000000000E+00 -0.11046747664E+04  0.11046747664E+04  0.00000000000E+00 0.  1.
         -6    2    1    2    0  503 -0.26082614535E+01  0.81886235933E+02 -0.99072247062E+03  0.10088860258E+04  0.17206928991E+03 0.  0.
        -24    2    3    3    0    0  0.31470595334E+02  0.72200269139E+02 -0.37066325786E+03  0.38779770374E+03  0.82416812977E+02 0.  0.
          6    2    1    2  501    0  0.26082614535E+01 -0.81886235933E+02 -0.18617802897E+02  0.19112323351E+03  0.17166627257E+03 0.  0.
         24    2    5    5    0    0  0.34888432756E+02 -0.68462800866E+02 -0.67405096082E+02  0.13091951232E+03  0.81805341427E+02 0.  0.
          5    1    5    5  501    0 -0.32280171303E+02 -0.13423435067E+02  0.48787293185E+02  0.60203721186E+02  0.47000000000E+01 0. -1.
        -11    1    6    6    0    0 -0.54402790422E+01 -0.45252268350E+02  0.39330983964E+01  0.45747499275E+02  0.00000000000E+00 0.  1.
         12    1    6    6    0    0  0.40328711799E+02 -0.23210532516E+02 -0.71338194479E+02  0.85172013047E+02  0.00000000000E+00 0. -1.
         -5    1    3    3    0  503 -0.34078856788E+02  0.96859667938E+01 -0.62005921276E+03  0.62108832203E+03  0.47000000000E+01 0.  1.
         13    1    4    4    0    0  0.44677479517E+02  0.82452397979E+02 -0.34190329772E+03  0.35453115533E+03  0.00000000000E+00 0. -1.
        -14    1    4    4    0    0 -0.13206884183E+02 -0.10252128840E+02 -0.28759960143E+02  0.33266548408E+02  0.00000000000E+00 0.  1.
</event>
<event>
12    1  0.8358445E-002  0.1760957E+03  0.7818608E-02  0.1171966E+00
         21   -1    0    0  503  502  0.00000000000E+00  0.00000000000E+00  0.14995926193E+03  0.14995926193E+03  0.00000000000E+00 0. -1.
         21   -1    0    0  501  503 -0.00000000000E+00 -0.00000000000E+00 -0.20610184272E+03  0.20610184272E+03  0.00000000000E+00 0. -1.
          6    2    1    2  501    0 -0.11811503260E+02  0.31862498396E+02 -0.39465332287E+02  0.17917748911E+03  0.17144191360E+03 0.  0.
         24    2    3    3    0    0 -0.26140795234E+02 -0.35671244867E+02 -0.56062935145E+02  0.10801777081E+03  0.81049412264E+02 0.  0.
         -6    2    1    2    0  502  0.11811503260E+02 -0.31862498396E+02 -0.16677248500E+02  0.17688361554E+03  0.17278585710E+03 0.  0.
        -24    2    5    5    0    0  0.70135859559E+02 -0.35064589598E+02 -0.32601620205E+02  0.11615751291E+03  0.79253630369E+02 0.  0.
          5    1    3    3  501    0  0.14329291974E+02  0.67533743263E+02  0.16597602858E+02  0.71159718298E+02  0.47000000000E+01 0. -1.
        -13    1    4    4    0    0  0.10868248075E+02 -0.13955334245E+02  0.16193100549E+02  0.23980964858E+02  0.00000000000E+00 0.  1.
         14    1    4    4    0    0 -0.37009043309E+02 -0.21715910623E+02 -0.72256035694E+02  0.84036805955E+02  0.00000000000E+00 0. -1.
         -5    1    5    5    0  502 -0.58324356298E+02  0.32020912019E+01  0.15924371705E+02  0.60726102624E+02  0.47000000000E+01 0.  1.
         13    1    6    6    0    0  0.72027264066E+02 -0.21214823922E+02  0.57809798169E+01  0.75308799290E+02  0.00000000000E+00 0. -1.
        -14    1    6    6    0    0 -0.18914045076E+01 -0.13849765677E+02 -0.38382600022E+02  0.40848713624E+02  0.00000000000E+00 0.  1.
</event>
<event>
12    1  0.8358445E-002  0.1760901E+03  0.7818608E-02  0.1173054E+00
         21   -1    0    0  503  502  0.00000000000E+00  0.00000000000E+00  0.16115106932E+03  0.16115106932E+03  0.00000000000E+00 0. -1.
         21   -1    0    0  501  503 -0.00000000000E+00 -0.00000000000E+00 -0.19456109852E+03  0.19456109852E+03  0.00000000000E+00 0. -1.
          6    2    1    2  501    0  0.27973659208E+02  0.27481385393E+02 -0.53446642463E+02  0.18402243226E+03  0.17166816779E+03 0.  0.
         24    2    3    3    0    0  0.81173724617E+02  0.53187279704E+00 -0.20815800509E+02  0.11588004431E+03  0.80033934440E+02 0.  0.
         -6    2    1    2    0  502 -0.27973659208E+02 -0.27481385393E+02  0.20036613271E+02  0.17168973558E+03  0.16594621803E+03 0.  0.
        -24    2    5    5    0    0 -0.76322334212E+02 -0.28158024096E+02  0.37286553266E+02  0.12013682446E+03  0.80153580813E+02 0.  0.
          5    1    3    3  501    0 -0.53200065409E+02  0.26949512596E+02 -0.32630841954E+02  0.68142387949E+02  0.47000000000E+01 0. -1.
        -11    1    4    4    0    0  0.11572754244E+02  0.17677971698E+02  0.23502836765E+02  0.31604155742E+02  0.00000000000E+00 0.  1.
         12    1    4    4    0    0  0.69600970373E+02 -0.17146098901E+02 -0.44318637274E+02  0.84275888569E+02  0.00000000000E+00 0. -1.
         -5    1    5    5    0  502  0.48348675005E+02  0.67663870270E+00 -0.17249939995E+02  0.51552911116E+02  0.47000000000E+01 0.  1.
         13    1    6    6    0    0  0.32722110118E+01 -0.26850116982E+02  0.29699431331E+02  0.40170789988E+02  0.00000000000E+00 0. -1.
        -14    1    6    6    0    0 -0.79594545224E+02 -0.13079071136E+01  0.75871219351E+01  0.79966034476E+02  0.00000000000E+00 0.  1.
</event>
<event>
12    1  0.8358445E-002  0.1957196E+03  0.7818608E-02  0.1157682E+00
         21   -1    0    0  501  502  0.00000000000E+00  0.00000000000E+00  0.12986922944E+04  0.12986922944E+04  0.00000000000E+00 0.  1.
         21   -1    0    0  502  503 -0.00000000000E+00 -0.00000000000E+00 -0.28773080666E+02  0.28773080666E+02  0.00000000000E+00 0.  1.
         -6    2    1    2    0  503  0.48858918254E+02 -0.56254152970E+02  0.48854839676E+03  0.52629430266E+03  0.18098185937E+03 0.  0.
        -24    2    3    3    0    0 -0.34218565434E+00 -0.84903434057E+02  0.41064826198E+03  0.42969176164E+03  0.93777954526E+02 0.  0.
          6    2    1    2  501    0 -0.48858918254E+02  0.56254152970E+02  0.78137081696E+03  0.80117107239E+03  0.16057088781E+03 0.  0.
         24    2    5    5    0    0 -0.38300365077E+02 -0.15970864133E+02  0.59789783480E+03  0.60365560129E+03  0.72085210980E+02 0.  0.
          5    1    5    5  501    0 -0.10558553176E+02  0.72225017103E+02  0.18347298217E+03  0.19751547110E+03  0.47000000000E+01 0. -1.
        -11    1    6    6    0    0 -0.30136999244E+02  0.26372095525E+02  0.29176705963E+03  0.29450253518E+03  0.00000000000E+00 0.  1.
         12    1    6    6    0    0 -0.81633658332E+01 -0.42342959658E+02  0.30613077517E+03  0.30915306611E+03  0.00000000000E+00 0. -1.
         -5    1    3    3    0  503  0.49201103908E+02  0.28649281087E+02  0.77900134783E+02  0.96602541021E+02  0.47000000000E+01 0.  1.
         11    1    4    4    0    0  0.11995301753E+02 -0.31118452417E+02  0.33168696677E+03  0.33335939955E+03  0.00000000000E+00 0. -1.
        -12    1    4    4    0    0 -0.12337487408E+02 -0.53784981640E+02  0.78961295207E+02  0.96332362092E+02  0.00000000000E+00 0.  1.
</event>
<event>
12    1  0.8358445E-002  0.4084300E+03  0.7818608E-02  0.1040932E+00
         21   -1    0    0  503  502  0.00000000000E+00  0.00000000000E+00  0.10202531949E+04  0.10202531949E+04  0.00000000000E+00 0.  1.
         21   -1    0    0  501  503 -0.00000000000E+00 -0.00000000000E+00 -0.23812709132E+03  0.23812709132E+03  0.00000000000E+00 0. -1.
          6    2    1    2  501    0  0.24698409683E+02  0.36880834185E+03  0.38603057981E+02  0.41025024565E+03  0.17373964290E+03 0.  0.
         24    2    3    3    0    0 -0.35182190353E+02  0.22790810600E+03  0.68914489600E+02  0.25411109102E+03  0.81506738391E+02 0.  0.
         -6    2    1    2    0  502 -0.24698409683E+02 -0.36880834185E+03  0.74352304563E+03  0.84813004060E+03  0.17282488803E+03 0.  0.
        -24    2    5    5    0    0 -0.58261928537E+01 -0.34399626727E+03  0.73489211454E+03  0.81544391840E+03  0.80715473203E+02 0.  0.
          5    1    3    3  501    0  0.59880600036E+02  0.14090023585E+03 -0.30311431619E+02  0.15613915463E+03  0.47000000000E+01 0. -1.
        -13    1    4    4    0    0 -0.46910738221E+02  0.22797259141E+03  0.67213032582E+02  0.24225959535E+03  0.00000000000E+00 0.  1.
         14    1    4    4    0    0  0.11728547868E+02 -0.64485406788E-01  0.17014570184E+01  0.11851495663E+02  0.00000000000E+00 0. -1.
         -5    1    5    5    0  502 -0.18872216829E+02 -0.24812074581E+02  0.86309310863E+01  0.32686122200E+02  0.47000000000E+01 0.  1.
         13    1    6    6    0    0 -0.84731386637E+01 -0.65665808285E+02  0.22484255647E+03  0.23438849728E+03  0.00000000000E+00 0. -1.
        -14    1    6    6    0    0  0.26469458099E+01 -0.27833045898E+03  0.51004955807E+03  0.58105542112E+03  0.00000000000E+00 0.  1.
</event>
<event>
12    1  0.8358445E-002  0.2206276E+03  0.7818608E-02  0.1133735E+00
         21   -1    0    0  503  502  0.00000000000E+00  0.00000000000E+00  0.11502974768E+03  0.11502974768E+03  0.00000000000E+00 0. -1.
         21   -1    0    0  501  503 -0.00000000000E+00 -0.00000000000E+00 -0.41991725228E+03  0.41991725228E+03  0.00000000000E+00 0. -1.
          6    2    1    2  501    0  0.51770930609E+02 -0.12484067444E+03 -0.15097544674E+03  0.26733894781E+03  0.17438779844E+03 0.  0.
         24    2    3    3    0    0  0.10087132148E+03 -0.88486359074E+02 -0.95712469508E+02  0.18482488063E+03  0.83633130042E+02 0.  0.
         -6    2    1    2    0  502 -0.51770930609E+02  0.12484067444E+03 -0.15391205786E+03  0.26760805214E+03  0.17221998945E+03 0.  0.
        -24    2    5    5    0    0 -0.99967792636E+02  0.81944008627E+02 -0.12537665386E+03  0.19690147021E+03  0.79639836278E+02 0.  0.
          5    1    3    3  501    0 -0.49100390874E+02 -0.36354315370E+02 -0.55262977234E+02  0.82514067181E+02  0.47000000000E+01 0. -1.
        -13    1    4    4    0    0  0.23227670681E+02 -0.28494940780E+01 -0.59109071960E+02  0.63573002838E+02  0.00000000000E+00 0.  1.
         14    1    4    4    0    0  0.77643650802E+02 -0.85636864996E+02 -0.36603397548E+02  0.12125187779E+03  0.00000000000E+00 0. -1.
         -5    1    5    5    0  502  0.48196862027E+02  0.42896665817E+02 -0.28535404000E+02  0.70706581935E+02  0.47000000000E+01 0.  1.
         11    1    6    6    0    0 -0.10181528875E+03  0.93996449813E+02 -0.10806264400E+03  0.17572484352E+03  0.00000000000E+00 0. -1.
        -12    1    6    6    0    0  0.18474961168E+01 -0.12052441186E+02 -0.17314009867E+02  0.21176626693E+02  0.00000000000E+00 0.  1.
</event>
<event>
12    1  0.8358445E-002  0.2075897E+03  0.7818608E-02  0.1145175E+00
         21   -1    0    0  503  502  0.00000000000E+00  0.00000000000E+00  0.18953355969E+03  0.18953355969E+03  0.00000000000E+00 0. -1.
         21   -1    0    0  501  503 -0.00000000000E+00 -0.00000000000E+00 -0.30590889799E+03  0.30590889799E+03  0.00000000000E+00 0. -1.
          6    2    1    2  501    0 -0.41684630452E+02  0.94384919779E+02 -0.19145199416E+03  0.28239572136E+03  0.18013149607E+03 0.  0.
         24    2    3    3    0    0 -0.31166168992E+02  0.12366159362E+03 -0.19751476523E+03  0.25035498392E+03  0.86034967669E+02 0.  0.
         -6    2    1    2    0  502  0.41684630452E+02 -0.94384919779E+02  0.75076655855E+02  0.21304673632E+03  0.17060564500E+03 0.  0.
        -24    2    5    5    0    0  0.62248510910E+02 -0.83755907905E+01  0.70838427287E+02  0.12438710383E+03  0.80678629054E+02 0.  0.
          5    1    3    3  501    0 -0.10518461461E+02 -0.29276673845E+02  0.60627710639E+01  0.32040737443E+02  0.47000000000E+01 0. -1.
        -13    1    4    4    0    0 -0.13780138057E+00 -0.10759376451E+02 -0.37833825035E+02  0.39334227939E+02  0.00000000000E+00 0.  1.
         14    1    4    4    0    0 -0.31028367611E+02  0.13442097007E+03 -0.15968094019E+03  0.21102075598E+03  0.00000000000E+00 0. -1.
         -5    1    5    5    0  502 -0.20563880458E+02 -0.86009328989E+02  0.42382285683E+01  0.88659632494E+02  0.47000000000E+01 0.  1.
         11    1    6    6    0    0  0.24451339926E+02  0.21900727708E+02  0.68433908331E+02  0.75899339310E+02  0.00000000000E+00 0. -1.
        -12    1    6    6    0    0  0.37797170985E+02 -0.30276318499E+02  0.24045189561E+01  0.48487764515E+02  0.00000000000E+00 0.  1.
</event>
<event>
12    1  0.8358445E-002  0.1800101E+03  0.7818608E-02  0.1168736E+00
         21   -1    0    0  503  502  0.00000000000E+00  0.00000000000E+00  0.38441780550E+03  0.38441780550E+03  0.00000000000E+00 0.  1.
         21   -1    0    0  501  503 -0.00000000000E+00 -0.00000000000E+00 -0.13204185290E+03  0.13204185290E+03  0.00000000000E+00 0.  1.
          6    2    1    2  501    0  0.28013638861E+02  0.33234460460E+02 -0.31130855586E+02  0.18268215661E+03  0.17468356205E+03 0.  0.
         24    2    3    3    0    0 -0.83490533011E+01 -0.41289305778E+02 -0.42132825935E+02  0.98901666838E+02  0.78942075090E+02 0.  0.
         -6    2    1    2    0  502 -0.28013638861E+02 -0.33234460460E+02  0.28350680819E+03  0.33377750179E+03  0.17071033092E+03 0.  0.
        -24    2    5    5    0    0  0.25907467649E+02  0.21834478901E+02  0.87933470439E+02  0.12351315805E+03  0.79845248062E+02 0.  0.
          5    1    3    3  501    0  0.36362692162E+02  0.74523766239E+02  0.11001970349E+02  0.83780489776E+02  0.47000000000E+01 0. -1.
        -11    1    4    4    0    0 -0.43764073200E+02 -0.25383424203E+02 -0.22000054384E+02  0.55168965190E+02  0.00000000000E+00 0.  1.
         12    1    4    4    0    0  0.35415019898E+02 -0.15905881575E+02 -0.20132771550E+02  0.43732701648E+02  0.00000000000E+00 0. -1.
         -5    1    5    5    0  502 -0.53921106509E+02 -0.55068939361E+02  0.19557333775E+03  0.21026434374E+03  0.47000000000E+01 0.  1.
         11    1    6    6    0    0 -0.23279419461E+02  0.43966945986E+01  0.30719007053E+01  0.23889304464E+02  0.00000000000E+00 0. -1.
        -12    1    6    6    0    0  0.49186887109E+02  0.17437784302E+02  0.84861569734E+02  0.99623853582E+02  0.00000000000E+00 0.  1.
</event>
<event>
12    1  0.8358445E-002  0.3437200E+03  0.7818608E-02  0.1065529E+00
         21   -1    0    0  503  502  0.00000000000E+00  0.00000000000E+00  0.42504201061E+03  0.42504201061E+03  0.00000000000E+00 0.  1.
         21   -1    0    0  501  503 -0.00000000000E+00 -0.00000000000E+00 -0.45587620231E+03  0.45587620231E+03  0.00000000000E+00 0. -1.
          6    2    1    2  501    0 -0.18165586162E+03 -0.23664911089E+03  0.26159521044E+03  0.42963292440E+03  0.16477482168E+03 0.  0.
         24    2    3    3    0    0 -0.14548735232E+03 -0.24083610586E+03  0.26237538511E+03  0.39291248508E+03  0.79817157618E+02 0.  0.
         -6    2    1    2    0  502  0.18165586162E+03  0.23664911089E+03 -0.29242940215E+03  0.45128528852E+03  0.17070970285E+03 0.  0.
        -24    2    5    5    0    0  0.18882542657E+03  0.21395578320E+03 -0.30375677193E+03  0.42451237143E+03  0.80687409891E+02 0.  0.
          5    1    3    3  501    0 -0.36168509295E+02  0.41869949720E+01 -0.78017466447E+00  0.36720439322E+02  0.47000000000E+01 0. -1.
        -11    1    4    4    0    0 -0.15514776346E+03 -0.21876917593E+03  0.24444342549E+03  0.36288203195E+03  0.00000000000E+00 0.  1.
         12    1    4    4    0    0  0.96604111344E+01 -0.22066929932E+02  0.17931959616E+02  0.30030453137E+02  0.00000000000E+00 0. -1.
         -5    1    5    5    0  502 -0.71695649503E+01  0.22693327693E+02  0.11327369786E+02  0.26772917092E+02  0.47000000000E+01 0.  1.
         13    1    6    6    0    0  0.52366095569E+02  0.11983201233E+03 -0.13278078965E+03  0.18636699612E+03  0.00000000000E+00 0. -1.
        -14    1    6    6    0    0  0.13645933100E+03  0.94123770866E+02 -0.17097598229E+03  0.23814537530E+03  0.00000000000E+00 0.  1.
</event>
<event>
12    1  0.8358445E-002  0.1831873E+03  0.7818608E-02  0.1165387E+00
         21   -1    0    0  503  502  0.00000000000E+00  0.00000000000E+00  0.98426578082E+02  0.98426578082E+02  0.00000000000E+00 0. -1.
         21   -1    0    0  501  503 -0.00000000000E+00 -0.00000000000E+00 -0.52165134503E+03  0.52165134503E+03  0.00000000000E+00 0. -1.
          6    2    1    2  501    0 -0.44764617743E+02 -0.37527278484E+02 -0.39556569319E+03  0.43481425836E+03  0.17081877535E+03 0.  0.
         24    2    3    3    0    0 -0.91537574475E+02 -0.20763636073E+02 -0.22160287311E+03  0.25383392253E+03  0.80706695699E+02 0.  0.
         -6    2    1    2    0  502  0.44764617743E+02  0.37527278484E+02 -0.27659073761E+02  0.18526366475E+03  0.17362440348E+03 0.  0.
        -24    2    5    5    0    0 -0.33207996080E+02 -0.65233461970E+01  0.10939497014E+02  0.87631058997E+02  0.80088731147E+02 0.  0.
          5    1    3    3  501    0  0.46772956733E+02 -0.16763642411E+02 -0.17396282007E+03  0.18098033583E+03  0.47000000000E+01 0. -1.
        -13    1    4    4    0    0  0.75575123015E+01  0.21504154149E-01  0.24665600264E+01  0.79498662240E+01  0.00000000000E+00 0.  1.
         14    1    4    4    0    0 -0.99095086777E+02 -0.20785140227E+02 -0.22406943314E+03  0.24588405630E+03  0.00000000000E+00 0. -1.
         -5    1    5    5    0  502  0.77972613823E+02  0.44050624681E+02 -0.38598570775E+02  0.97632605757E+02  0.47000000000E+01 0.  1.
         13    1    6    6    0    0  0.10810564703E+02  0.28269473852E+02 -0.93186926781E+00  0.30280354051E+02  0.00000000000E+00 0. -1.
        -14    1    6    6    0    0 -0.44018560783E+02 -0.34792820049E+02  0.11871366282E+02  0.57350704946E+02  0.00000000000E+00 0.  1.
</event>
<event>
12    1  0.8358445E-002  0.1940556E+03  0.7818608E-02  0.1154918E+00
         21   -1    0    0  503  502  0.00000000000E+00  0.00000000000E+00  0.22351579358E+02  0.22351579358E+02  0.00000000000E+00 0. -1.
         21   -1    0    0  501  503 -0.00000000000E+00 -0.00000000000E+00 -0.18695553858E+04  0.18695553858E+04  0.00000000000E+00 0.  1.
          6    2    1    2  501    0  0.66228617278E+02 -0.58718076898E+02 -0.12223977539E+04  0.12376591796E+04  0.17236569732E+03 0.  0.
         24    2    3    3    0    0  0.27621810205E+02 -0.80930335549E+02 -0.11178801912E+04  0.11239495453E+04  0.79333316165E+02 0.  0.
         -6    2    1    2    0  502 -0.66228617278E+02  0.58718076898E+02 -0.62480605247E+03  0.65424778556E+03  0.17269487373E+03 0.  0.
        -24    2    5    5    0    0 -0.11293332928E+02  0.75645739096E+02 -0.54174048249E+03  0.55312207108E+03  0.81310872186E+02 0.  0.
          5    1    3    3  501    0  0.38606807072E+02  0.22212258651E+02 -0.10451756277E+03  0.11370963422E+03  0.47000000000E+01 0. -1.
        -11    1    4    4    0    0  0.70940543552E+01  0.13071549819E+02 -0.31056563600E+03  0.31092154201E+03  0.00000000000E+00 0.  1.
         12    1    4    4    0    0  0.20527755850E+02 -0.94001885368E+02 -0.80731455517E+03  0.81302800334E+03  0.00000000000E+00 0. -1.
         -5    1    5    5    0  502 -0.54935284349E+02 -0.16927662198E+02 -0.83065569978E+02  0.10112571448E+03  0.47000000000E+01 0.  1.
         11    1    6    6    0    0  0.62130381399E+01  0.73005532963E+02 -0.24174290409E+03  0.25260253634E+03  0.00000000000E+00 0. -1.
        -12    1    6    6    0    0 -0.17506371068E+02  0.26402061327E+01 -0.29999757839E+03  0.30051953474E+03  0.00000000000E+00 0.  1.
</event>
<event>
12    1  0.8358445E-002  0.2825899E+03  0.7818608E-02  0.1094284E+00
         21   -1    0    0  503  502  0.00000000000E+00  0.00000000000E+00  0.40866054235E+03  0.40866054235E+03  0.00000000000E+00 0.  1.
         21   -1    0    0  501  503 -0.00000000000E+00 -0.00000000000E+00 -0.10380974952E+04  0.10380974952E+04  0.00000000000E+00 0. -1.
          6    2    1    2  501    0  0.73333236710E+02 -0.21163560315E+03 -0.96647111876E+03  0.10069376618E+04  0.17230681706E+03 0.  0.
         24    2    3    3    0    0  0.10442887847E+03 -0.19071004164E+03 -0.90979059839E+03  0.93882312993E+03  0.79963902676E+02 0.  0.
         -6    2    1    2    0  502 -0.73333236710E+02  0.21163560315E+03  0.33703416596E+03  0.43982037571E+03  0.17228622040E+03 0.  0.
        -24    2    5    5    0    0 -0.59525205711E+02  0.18586636812E+03  0.34926550065E+03  0.40778273000E+03  0.78808679943E+02 0.  0.
          5    1    3    3  501    0 -0.31095641761E+02 -0.20925561507E+02 -0.56680520365E+02  0.68114531855E+02  0.47000000000E+01 0. -1.
        -11    1    4    4    0    0  0.44778290802E+01 -0.68375582220E+02 -0.19219210791E+03  0.20404185243E+03  0.00000000000E+00 0.  1.
         12    1    4    4    0    0  0.99951049390E+02 -0.12233445942E+03 -0.71759849048E+03  0.73478127751E+03  0.00000000000E+00 0. -1.
         -5    1    5    5    0  502 -0.13808030999E+02  0.25769235033E+02 -0.12231334688E+02  0.32037645708E+02  0.47000000000E+01 0.  1.
         13    1    6    6    0    0 -0.92809534055E+01 -0.55044697646E+01  0.84783849462E+01  0.13722911309E+02  0.00000000000E+00 0. -1.
        -14    1    6    6    0    0 -0.50244252305E+02  0.19137083788E+03  0.34078711570E+03  0.39405981869E+03  0.00000000000E+00 0.  1.
</event>
<event>
12    1  0.8358445E-002  0.2227390E+03  0.7818608E-02  0.1132657E+00
         21   -1    0    0  501  502  0.00000000000E+00  0.00000000000E+00  0.19032680151E+03  0.19032680151E+03  0.00000000000E+00 0. -1.
         21   -1    0    0  502  503 -0.00000000000E+00 -0.00000000000E+00 -0.48968503454E+03  0.48968503454E+03  0.00000000000E+00 0. -1.
         -6    2    1    2    0  503  0.14172831489E+03  0.51747357741E+01 -0.38549217830E+03  0.44521555771E+03  0.17175267151E+03 0.  0.
        -24    2    3    3    0    0  0.16763043331E+03 -0.17586065042E+02 -0.34588595420E+03  0.39249253827E+03  0.77485917611E+02 0.  0.
          6    2    1    2  501    0 -0.14172831489E+03 -0.51747357741E+01  0.86133945259E+02  0.23479627834E+03  0.16612207157E+03 0.  0.
         24    2    5    5    0    0 -0.86730829574E+02 -0.65521522690E+02  0.70332471954E+02  0.15150021216E+03  0.78678783283E+02 0.  0.
          5    1    5    5  501    0 -0.54997485314E+02  0.60346786916E+02  0.15801473305E+02  0.83296066177E+02  0.47000000000E+01 0. -1.
        -11    1    6    6    0    0 -0.49164184172E+02 -0.11784899695E+01  0.20109879584E+00  0.49178717802E+02  0.00000000000E+00 0.  1.
         12    1    6    6    0    0 -0.37566645402E+02 -0.64343032720E+02  0.70131373158E+02  0.10232149436E+03  0.00000000000E+00 0. -1.
         -5    1    3    3    0  503 -0.25902118418E+02  0.22760800816E+02 -0.39606224095E+02  0.52723019445E+02  0.47000000000E+01 0.  1.
         11    1    4    4    0    0  0.22559552032E+02 -0.33961299146E+01 -0.13011884406E+03  0.13210367393E+03  0.00000000000E+00 0. -1.
        -12    1    4    4    0    0  0.14507088127E+03 -0.14189935127E+02 -0.21576711014E+03  0.26038886434E+03  0.00000000000E+00 0.  1.
</event>
<event>
12    1  0.8358445E-002  0.1868480E+03  0.7818608E-02  0.1161548E+00
         21   -1    0    0  501  502  0.00000000000E+00  0.00000000000E+00  0.36213001227E+03  0.36213001227E+03  0.00000000000E+00 0. -1.
         21   -1    0    0  502  503 -0.00000000000E+00 -0.00000000000E+00 -0.24336869268E+03  0.24336869268E+03  0.00000000000E+00 0. -1.
         -6    2    1    2    0  503 -0.62896587006E+02 -0.36529962732E+02 -0.17620242719E+03  0.25682574001E+03  0.17210969336E+03 0.  0.
        -24    2    3    3    0    0 -0.10775176195E+02 -0.26499919302E+02 -0.18602308705E+03  0.20264291435E+03  0.75108000078E+02 0.  0.
          6    2    1    2  501    0  0.62896587006E+02  0.36529962732E+02  0.29496374678E+03  0.34867296494E+03  0.17111050737E+03 0.  0.
         24    2    5    5    0    0  0.59239403783E+01  0.75135558173E+02  0.14127093240E+03  0.18020977711E+03  0.82690037205E+02 0.  0.
          5    1    5    5  501    0  0.56972646628E+02 -0.38605595441E+02  0.15369281438E+03  0.16846318784E+03  0.47000000000E+01 0. -1.
        -11    1    6    6    0    0  0.39122432528E+02  0.49733425376E+02  0.52998637062E+02  0.82539892519E+02  0.00000000000E+00 0.  1.
         12    1    6    6    0    0 -0.33198492150E+02  0.25402132797E+02  0.88272295337E+02  0.97669884590E+02  0.00000000000E+00 0. -1.
         -5    1    3    3    0  503 -0.52121410811E+02 -0.10030043430E+02  0.98206598606E+01  0.54182825657E+02  0.47000000000E+01 0.  1.
         13    1    4    4    0    0  0.23764762837E+02  0.12751060681E+02 -0.80104042321E+02  0.84522252084E+02  0.00000000000E+00 0. -1.
        -14    1    4    4    0    0 -0.34539939032E+02 -0.39250979982E+02 -0.10591904473E+03  0.11812066227E+03  0.00000000000E+00 0.  1.
</event>
<event>
12    1  0.8358445E-002  0.2402478E+03  0.7818608E-02  0.1120116E+00
         21   -1    0    0  501  502  0.00000000000E+00  0.00000000000E+00  0.35803036836E+03  0.35803036836E+03  0.00000000000E+00 0.  1.
         21   -1    0    0  502  503 -0.00000000000E+00 -0.00000000000E+00 -0.15928810416E+03  0.15928810416E+03  0.00000000000E+00 0.  1.
         -6    2    1    2    0  503 -0.87208301487E+02  0.13442661158E+03  0.96705219251E+02  0.25898054931E+03  0.17900621145E+03 0.  0.
        -24    2    3    3    0    0 -0.12176318712E+03  0.61139609689E+02  0.43853264018E+02  0.16212785735E+03  0.76144650186E+02 0.  0.
          6    2    1    2  501    0  0.87208301487E+02 -0.13442661158E+03  0.10203704496E+03  0.25833792321E+03  0.17507461917E+03 0.  0.
         24    2    5    5    0    0  0.10288810897E+03 -0.76465979126E+02  0.14124469074E+02  0.15177337809E+03  0.80016552915E+02 0.  0.
          5    1    5    5  501    0 -0.15679807484E+02 -0.57960632459E+02  0.87912575884E+02  0.10656454512E+03  0.47000000000E+01 0. -1.
        -11    1    6    6    0    0  0.32138185747E+02 -0.26543574210E+02  0.43585844907E+02  0.60308790331E+02  0.00000000000E+00 0.  1.
         12    1    6    6    0    0  0.70749923224E+02 -0.49922404915E+02 -0.29461375834E+02  0.91464587764E+02  0.00000000000E+00 0. -1.
         -5    1    3    3    0  503  0.34554885633E+02  0.73287001896E+02  0.52851955233E+02  0.96852691960E+02  0.47000000000E+01 0.  1.
         13    1    4    4    0    0 -0.16195565392E+02  0.45779783478E+02  0.21624644573E+02  0.53157409329E+02  0.00000000000E+00 0. -1.
        -14    1    4    4    0    0 -0.10556762173E+03  0.15359826211E+02  0.22228619445E+02  0.10897044802E+03  0.00000000000E+00 0.  1.
</event>
<event>
12    1  0.8358445E-002  0.1767707E+03  0.7818608E-02  0.1171375E+00
         21   -1    0    0  503  502  0.00000000000E+00  0.00000000000E+00  0.27521276744E+03  0.27521276744E+03  0.00000000000E+00 0. -1.
         21   -1    0    0  501  503 -0.00000000000E+00 -0.00000000000E+00 -0.13706591219E+03  0.13706591219E+03  0.00000000000E+00 0. -1.
          6    2    1    2  501    0  0.40930175586E+02  0.13142406332E+02 -0.17954112466E+02  0.17768009978E+03  0.17146389003E+03 0.  0.
         24    2    3    3    0    0  0.58432981357E+02 -0.46187788479E+02  0.18204390868E+02  0.10587517244E+03  0.73009774538E+02 0.  0.
         -6    2    1    2    0  502 -0.40930175586E+02 -0.13142406332E+02  0.15610096772E+03  0.23459857985E+03  0.16976742746E+03 0.  0.
        -24    2    5    5    0    0 -0.34116097462E+02  0.58451967609E+02  0.76455936112E+02  0.12718532601E+03  0.75829126080E+02 0.  0.
          5    1    3    3  501    0 -0.17502805771E+02  0.59330194811E+02 -0.36158503335E+02  0.71804927335E+02  0.47000000000E+01 0. -1.
        -13    1    4    4    0    0 -0.76646394904E+01 -0.23689043622E+01  0.25024816208E+02  0.26279266212E+02  0.00000000000E+00 0.  1.
         14    1    4    4    0    0  0.66097620847E+02 -0.43818884117E+02 -0.68204253397E+01  0.79595906231E+02  0.00000000000E+00 0. -1.
         -5    1    5    5    0  502 -0.68140781235E+01 -0.71594373941E+02  0.79645031607E+02  0.10741325384E+03  0.47000000000E+01 0.  1.
         11    1    6    6    0    0  0.13992532692E+01  0.13709052790E+02  0.68066648604E+02  0.69447567922E+02  0.00000000000E+00 0. -1.
        -12    1    6    6    0    0 -0.35515350731E+02  0.44742914819E+02  0.83892875078E+01  0.57737758087E+02  0.00000000000E+00 0.  1.
</event>
<event>
12    1  0.8358445E-002  0.2642539E+03  0.7818608E-02  0.1104923E+00
         21   -1    0    0  501  502  0.00000000000E+00  0.00000000000E+00  0.69336258628E+02  0.69336258628E+02  0.00000000000E+00 0.  1.
         21   -1    0    0  502  503 -0.00000000000E+00 -0.00000000000E+00 -0.10122668836E+04  0.10122668836E+04  0.00000000000E+00 0. -1.
         -6    2    1    2    0  503 -0.16200268437E+03 -0.11549714340E+03 -0.53115981689E+03  0.59233294794E+03  0.17071353275E+03 0.  0.
        -24    2    3    3    0    0 -0.15518897499E+03 -0.12405594904E+03 -0.53773463307E+03  0.57873155105E+03  0.79361049174E+02 0.  0.
          6    2    1    2  501    0  0.16200268437E+03  0.11549714340E+03 -0.41177080813E+03  0.48927019433E+03  0.17391280792E+03 0.  0.
         24    2    5    5    0    0  0.15403664109E+03  0.14559836180E+03 -0.31837972161E+03  0.39071297118E+03  0.79779752798E+02 0.  0.
          5    1    5    5  501    0  0.79660432773E+01 -0.30101218402E+02 -0.93391086515E+02  0.98557223151E+02  0.47000000000E+01 0. -1.
        -11    1    6    6    0    0  0.46595431043E+02  0.30325444914E+02 -0.32818651984E+02  0.64558738536E+02  0.00000000000E+00 0.  1.
         12    1    6    6    0    0  0.10744121005E+03  0.11527291689E+03 -0.28556106963E+03  0.32615423264E+03  0.00000000000E+00 0. -1.
         -5    1    3    3    0  503 -0.68137093772E+01  0.85588056409E+01  0.65748161845E+01  0.13601396889E+02  0.47000000000E+01 0.  1.
         13    1    4    4    0    0 -0.21343224523E+02 -0.14705712618E+02 -0.17518407554E+03  0.17709108261E+03  0.00000000000E+00 0. -1.
        -14    1    4    4    0    0 -0.13384575047E+03 -0.10935023642E+03 -0.36255055753E+03  0.40164046844E+03  0.00000000000E+00 0.  1.
</event>
<event>
12    1  0.8358445E-002  0.2256042E+03  0.7818608E-02  0.1131941E+00
         21   -1    0    0  501  502  0.00000000000E+00  0.00000000000E+00  0.17564080720E+03  0.17564080720E+03  0.00000000000E+00 0.  1.
         21   -1    0    0  502  503 -0.00000000000E+00 -0.00000000000E+00 -0.84672037260E+03  0.84672037260E+03  0.00000000000E+00 0.  1.
         -6    2    1    2    0  503  0.12598031011E+03  0.16399858155E+02 -0.75265269811E+03  0.78246234053E+03  0.17210821155E+03 0.  0.
        -24    2    3    3    0    0  0.34632268393E+02 -0.17675858562E+02 -0.16501951743E+03  0.18677747062E+03  0.78374437213E+02 0.  0.
          6    2    1    2  501    0 -0.12598031011E+03 -0.16399858155E+02  0.81573132714E+02  0.23989883928E+03  0.18643305293E+03 0.  0.
         24    2    5    5    0    0 -0.14445306942E+02 -0.65232134852E+02  0.61741224796E+02  0.11644827123E+03  0.72693347176E+02 0.  0.
          5    1    5    5  501    0 -0.11153500317E+03  0.48832276697E+02  0.19831907918E+02  0.12345056805E+03  0.47000000000E+01 0. -1.
        -13    1    6    6    0    0 -0.10067843196E+02  0.12672234622E+02  0.25997141299E+02  0.30623493476E+02  0.00000000000E+00 0.  1.
         14    1    6    6    0    0 -0.43774637455E+01 -0.77904369474E+02  0.35744083497E+02  0.85824777757E+02  0.00000000000E+00 0. -1.
         -5    1    3    3    0  503  0.91348041721E+02  0.34075716717E+02 -0.58763318068E+03  0.59568486990E+03  0.47000000000E+01 0.  1.
         13    1    4    4    0    0  0.45372710805E+02  0.18622367067E+02 -0.82256953521E+02  0.95768898102E+02  0.00000000000E+00 0. -1.
        -14    1    4    4    0    0 -0.10740442412E+02 -0.36298225630E+02 -0.82762563911E+02  0.91008572520E+02  0.00000000000E+00 0.  1.
</event>
<event>
12    1  0.8358445E-002  0.2029821E+03  0.7818608E-02  0.1147308E+00
         21   -1    0    0  501  502  0.00000000000E+00  0.00000000000E+00  0.35374373848E+03  0.35374373848E+03  0.00000000000E+00 0. -1.
         21   -1    0    0  502  503 -0.00000000000E+00 -0.00000000000E+00 -0.11636969373E+03  0.11636969373E+03  0.00000000000E+00 0. -1.
         -6    2    1    2    0  503  0.48876915735E+02  0.95007889320E+02  0.11320120820E+03  0.23241394196E+03  0.17258700691E+03 0.  0.
        -24    2    3    3    0    0 -0.23647569525E+01 -0.13340486917E+02  0.32784668434E+02  0.88004837255E+02  0.80538538783E+02 0.  0.
          6    2    1    2  501    0 -0.48876915735E+02 -0.95007889320E+02  0.12417283655E+03  0.23769949026E+03  0.17224024619E+03 0.  0.
         24    2    5    5    0    0 -0.30413106281E+02  0.18167169946E+02  0.64240476954E+02  0.10822561634E+03  0.79567217222E+02 0.  0.
          5    1    5    5  501    0 -0.18463809453E+02 -0.11317505927E+03  0.59932359591E+02  0.12947387391E+03  0.47000000000E+01 0. -1.
        -11    1    6    6    0    0 -0.19551876062E+02 -0.11338425134E+02 -0.12119492278E+02  0.25646010121E+02  0.00000000000E+00 0.  1.
         12    1    6    6    0    0 -0.10861230219E+02  0.29505595080E+02  0.76359969232E+02  0.82579606223E+02  0.00000000000E+00 0. -1.
         -5    1    3    3    0  503  0.51241672687E+02  0.10834837624E+03  0.80416539762E+02  0.14440910470E+03  0.47000000000E+01 0.  1.
         11    1    4    4    0    0 -0.31169546765E+02  0.17770024925E+02  0.26266673693E+01  0.35975183292E+02  0.00000000000E+00 0. -1.
        -12    1    4    4    0    0  0.28804789813E+02 -0.31110511843E+02  0.30158001065E+02  0.52029653963E+02  0.00000000000E+00 0.  1.
</event>
<event>
12    1  0.8358445E-002  0.2209996E+03  0.7818608E-02  0.1133145E+00
         21   -1    0    0  503  502  0.00000000000E+00  0.00000000000E+00  0.80267765337E+02  0.80267765337E+02  0.00000000000E+00 0. -1.
         21   -1    0    0  501  503 -0.00000000000E+00 -0.00000000000E+00 -0.87186886308E+03  0.87186886308E+03  0.00000000000E+00 0. -1.
          6    2    1    2  501    0  0.46250976278E+02 -0.13449426858E+03 -0.65748566012E+03  0.69362595559E+03  0.16912040657E+03 0.  0.
         24    2    3    3    0    0  0.22253713509E+02 -0.10871898357E+03 -0.64003175336E+03  0.65404107465E+03  0.76249831931E+02 0.  0.
         -6    2    1    2    0  502 -0.46250976278E+02  0.13449426858E+03 -0.13411543762E+03  0.25851067283E+03  0.16915364693E+03 0.  0.
        -24    2    5    5    0    0 -0.16370672035E+02  0.61102703537E+01 -0.22073713511E+02  0.85447905244E+02  0.80676894932E+02 0.  0.
          5    1    3    3  501    0  0.23997262770E+02 -0.25775285010E+02 -0.17453906762E+02  0.39584880940E+02  0.47000000000E+01 0. -1.
        -13    1    4    4    0    0  0.20968065861E+02 -0.13446303524E+02 -0.45045127115E+02  0.51473549918E+02  0.00000000000E+00 0.  1.
         14    1    4    4    0    0  0.12856476480E+01 -0.95272680042E+02 -0.59498662624E+03  0.60256752473E+03  0.00000000000E+00 0. -1.
         -5    1    5    5    0  502 -0.29880304244E+02  0.12838399822E+03 -0.11204172411E+03  0.17306276758E+03  0.47000000000E+01 0.  1.
         11    1    6    6    0    0  0.17723795990E+02  0.10549395793E+02  0.21598852606E+02  0.29865249535E+02  0.00000000000E+00 0. -1.
        -12    1    6    6    0    0 -0.34094468025E+02 -0.44391254394E+01 -0.43672566116E+02  0.55582655710E+02  0.00000000000E+00 0.  1.
</event>
<event>
12    1  0.8358445E-002  0.1824787E+03  0.7818608E-02  0.1166846E+00
         21   -1    0    0  501  502  0.00000000000E+00  0.00000000000E+00  0.35019944043E+03  0.35019944043E+03  0.00000000000E+00 0.  1.
         21   -1    0    0  502  503 -0.00000000000E+00 -0.00000000000E+00 -0.10067084374E+03  0.10067084374E+03  0.00000000000E+00 0.  1.
         -6    2    1    2    0  503 -0.35436104488E+02  0.22938106084E+02  0.60666532867E+02  0.19229899865E+03  0.17752915946E+03 0.  0.
        -24    2    3    3    0    0  0.15803461475E+02 -0.44285711719E+02  0.78320781396E+01  0.92508696481E+02  0.79281421655E+02 0.  0.
          6    2    1    2  501    0  0.35436104488E+02 -0.22938106084E+02  0.18886206382E+03  0.25857128553E+03  0.17148864784E+03 0.  0.
         24    2    5    5    0    0  0.72238302764E+02  0.20407760090E+02  0.81368581180E+02  0.13687410100E+03  0.80491145244E+02 0.  0.
          5    1    5    5  501    0 -0.36802198277E+02 -0.43345866174E+02  0.10749348264E+03  0.12169718453E+03  0.47000000000E+01 0. -1.
        -11    1    6    6    0    0  0.59269345986E+01  0.20094128297E+02  0.65389971655E+02  0.68664044003E+02  0.00000000000E+00 0.  1.
         12    1    6    6    0    0  0.66311368166E+02  0.31363179213E+00  0.15978609524E+02  0.68210056995E+02  0.00000000000E+00 0. -1.
         -5    1    3    3    0  503 -0.51239565963E+02  0.67223817803E+02  0.52834454727E+02  0.99790302166E+02  0.47000000000E+01 0.  1.
         11    1    4    4    0    0  0.45459960308E+02 -0.20858366890E+02  0.18353703083E+02  0.53277930490E+02  0.00000000000E+00 0. -1.
        -12    1    4    4    0    0 -0.29656498833E+02 -0.23427344829E+02 -0.10521624943E+02  0.39230765990E+02  0.00000000000E+00 0.  1.
</event>
<event>
12    1  0.8358445E-002  0.2222656E+03  0.7818608E-02  0.1132579E+00
         21   -1    0    0  503  502  0.00000000000E+00  0.00000000000E+00  0.37311896922E+03  0.37311896922E+03  0.00000000000E+00 0.  1.
         21   -1    0    0  501  503 -0.00000000000E+00 -0.00000000000E+00 -0.20124853131E+03  0.20124853131E+03  0.00000000000E+00 0.  1.
          6    2    1    2  501    0 -0.38132808160E+02  0.13480037201E+03 -0.83752195923E+02  0.23562729773E+03  0.16994276025E+03 0.  0.
         24    2    3    3    0    0 -0.31686911522E+02  0.91823586293E+02  0.15599436223E+02  0.12708518377E+03  0.80446691422E+02 0.  0.
         -6    2    1    2    0  502  0.38132808160E+02 -0.13480037201E+03  0.25562263383E+03  0.33874020279E+03  0.17255938894E+03 0.  0.
        -24    2    5    5    0    0  0.89045884021E+02 -0.79962150327E+02  0.19520935865E+03  0.24245299871E+03  0.79709773153E+02 0.  0.
          5    1    3    3  501    0 -0.64458966376E+01  0.42976785718E+02 -0.99351632146E+02  0.10854211397E+03  0.47000000000E+01 0. -1.
        -11    1    4    4    0    0  0.22381396637E+02  0.50232861227E+02 -0.65103350766E+01  0.55377357515E+02  0.00000000000E+00 0.  1.
         12    1    4    4    0    0 -0.54068308159E+02  0.41590725066E+02  0.22109771299E+02  0.71707826251E+02  0.00000000000E+00 0. -1.
         -5    1    5    5    0  502 -0.50913075861E+02 -0.54838221683E+02  0.60413275185E+02  0.96287204080E+02  0.47000000000E+01 0.  1.
         13    1    6    6    0    0  0.47788214077E+02 -0.27986392064E+02  0.15562114113E+03  0.16518138852E+03  0.00000000000E+00 0. -1.
        -14    1    6    6    0    0  0.41257669944E+02 -0.51975758264E+02  0.39588217514E+02  0.77271610196E+02  0.00000000000E+00 0.  1.
</event>
<event>
12    1  0.8358445E-002  0.1915972E+03  0.7818608E-02  0.1157705E+00
         21   -1    0    0  501  502  0.00000000000E+00  0.00000000000E+00  0.66418967670E+02  0.66418967670E+02  0.00000000000E+00 0. -1.
         21   -1    0    0  502  503 -0.00000000000E+00 -0.00000000000E+00 -0.72689262031E+03  0.72689262031E+03  0.00000000000E+00 0. -1.
         -6    2    1    2    0  503  0.83222518141E+02 -0.12408066592E+02 -0.52721122137E+03  0.55992702474E+03  0.16877989649E+03 0.  0.
        -24    2    3    3    0    0  0.74198611709E+02 -0.52380793771E+02 -0.48749782205E+03  0.50266889090E+03  0.82296450983E+02 0.  0.
          6    2    1    2  501    0 -0.83222518141E+02  0.12408066592E+02 -0.13326243127E+03  0.23338456323E+03  0.17213230703E+03 0.  0.
         24    2    5    5    0    0  0.18365367118E+02  0.37796854566E+01 -0.92723416100E+02  0.12356630818E+03  0.79494829340E+02 0.  0.
          5    1    5    5  501    0 -0.10158788526E+03  0.86283811352E+01 -0.40539015170E+02  0.10981825506E+03  0.47000000000E+01 0. -1.
        -11    1    6    6    0    0 -0.11714453772E+02  0.29059422138E+02 -0.11567291405E+02  0.33398812443E+02  0.00000000000E+00 0.  1.
         12    1    6    6    0    0  0.30079820891E+02 -0.25279736681E+02 -0.81156124695E+02  0.90167495734E+02  0.00000000000E+00 0. -1.
         -5    1    3    3    0  503  0.90239064315E+01  0.39972727179E+02 -0.39713399319E+02  0.57258133841E+02  0.47000000000E+01 0.  1.
         11    1    4    4    0    0  0.18988520218E+02  0.35004351527E+01 -0.28212792494E+03  0.28278787629E+03  0.00000000000E+00 0. -1.
        -12    1    4    4    0    0  0.55210091491E+02 -0.55881228924E+02 -0.20536989711E+03  0.21988101461E+03  0.00000000000E+00 0.  1.
</event>
<event>
12    1  0.8358445E-002  0.2364219E+03  0.7818608E-02  0.1122436E+00
         21   -1    0    0  501  502  0.00000000000E+00  0.00000000000E+00  0.30731245452E+03  0.30731245452E+03  0.00000000000E+00 0. -1.
         21   -1    0    0  502  503 -0.00000000000E+00 -0.00000000000E+00 -0.33474049085E+03  0.33474049085E+03  0.00000000000E+00 0. -1.
         -6    2    1    2    0  503 -0.37978134570E+02 -0.15492535144E+03 -0.23138226426E+03  0.32981480146E+03  0.17261473815E+03 0.  0.
        -24    2    3    3    0    0 -0.20500515064E+02 -0.18322783545E+03 -0.18929126167E+03  0.27596092246E+03  0.79564679208E+02 0.  0.
          6    2    1    2  501    0  0.37978134570E+02  0.15492535144E+03  0.20395422793E+03  0.31223814391E+03  0.17450251630E+03 0.  0.
         24    2    5    5    0    0 -0.26934230855E+02  0.13733864678E+03  0.11868462098E+03  0.20353716307E+03  0.88056690829E+02 0.  0.
          5    1    5    5  501    0  0.64912365425E+02  0.17586704654E+02  0.85269606955E+02  0.10870098084E+03  0.47000000000E+01 0. -1.
        -11    1    6    6    0    0 -0.40539107529E+02  0.22567277095E+02  0.53617015178E+02  0.70904763954E+02  0.00000000000E+00 0.  1.
         12    1    6    6    0    0  0.13604876674E+02  0.11477136969E+03  0.65067605799E+02  0.13263239911E+03  0.00000000000E+00 0. -1.
         -5    1    3    3    0  503 -0.17477619506E+02  0.28302484013E+02 -0.42091002581E+02  0.53853878998E+02  0.47000000000E+01 0.  1.
         11    1    4    4    0    0 -0.31544836432E+02 -0.66098183958E+02 -0.32981359212E+02  0.80323201403E+02  0.00000000000E+00 0. -1.
        -12    1    4    4    0    0  0.11044321368E+02 -0.11712965149E+03 -0.15630990246E+03  0.19563772106E+03  0.00000000000E+00 0.  1.
</event>
<event>
12    1  0.8358445E-002  0.2130266E+03  0.7818608E-02  0.1139419E+00
         21   -1    0    0  503  502  0.00000000000E+00  0.00000000000E+00  0.87981865163E+02  0.87981865163E+02  0.00000000000E+00 0.  1.
         21   -1    0    0  501  503 -0.00000000000E+00 -0.00000000000E+00 -0.65488570655E+03  0.65488570655E+03  0.00000000000E+00 0. -1.
          6    2    1    2  501    0  0.49298751550E+02  0.11489526679E+03 -0.45696853924E+03  0.50418308710E+03  0.17247912984E+03 0.  0.
         24    2    3    3    0    0 -0.19013226595E+02  0.62123409914E+02 -0.36203976776E+03  0.37578932989E+03  0.76967565738E+02 0.  0.
         -6    2    1    2    0  502 -0.49298751550E+02 -0.11489526679E+03 -0.10993530215E+03  0.23868448462E+03  0.17103573691E+03 0.  0.
        -24    2    5    5    0    0 -0.26487593364E+02 -0.10967647277E+03 -0.13923531168E+02  0.13975049189E+03  0.81276158755E+02 0.  0.
          5    1    3    3  501    0  0.68311978145E+02  0.52771856876E+02 -0.94928771480E+02  0.12839375721E+03  0.47000000000E+01 0. -1.
        -11    1    4    4    0    0 -0.19743216223E+02 -0.11729182060E+02 -0.48409961342E+02  0.53580711602E+02  0.00000000000E+00 0.  1.
         12    1    4    4    0    0  0.72998962849E+00  0.73852591975E+02 -0.31362980641E+03  0.32220861829E+03  0.00000000000E+00 0. -1.
         -5    1    5    5    0  502 -0.22811158186E+02 -0.52187940195E+01 -0.96011770986E+02  0.98933992726E+02  0.47000000000E+01 0.  1.
         11    1    6    6    0    0 -0.53082313013E+02 -0.46759483578E+02 -0.63314917045E+01  0.71023017723E+02  0.00000000000E+00 0. -1.
        -12    1    6    6    0    0  0.26594719649E+02 -0.62916989193E+02 -0.75920394635E+01  0.68727474168E+02  0.00000000000E+00 0.  1.
</event>
<event>
12    1  0.8358445E-002  0.1843387E+03  0.7818608E-02  0.1163863E+00
         21   -1    0    0  501  502  0.00000000000E+00  0.00000000000E+00  0.35394506452E+02  0.35394506452E+02  0.00000000000E+00 0.  1.
         21   -1    0    0  502  503 -0.00000000000E+00 -0.00000000000E+00 -0.12530557233E+04  0.12530557233E+04  0.00000000000E+00 0.  1.
         -6    2    1    2    0  503  0.56918790245E+02  0.25721127034E+02 -0.92158023174E+03  0.93967421994E+03  0.17255779040E+03 0.  0.
        -24    2    3    3    0    0 -0.38421076115E+01  0.70972302194E+02 -0.64471631506E+03  0.65259361468E+03  0.71885113459E+02 0.  0.
          6    2    1    2  501    0 -0.56918790245E+02 -0.25721127034E+02 -0.29608098512E+03  0.34877600983E+03  0.17343422448E+03 0.  0.
         24    2    5    5    0    0 -0.58424957646E+02  0.26229343797E+02 -0.93663630670E+02  0.13974013888E+03  0.81565780517E+02 0.  0.
          5    1    5    5  501    0  0.15061674014E+01 -0.51950470831E+02 -0.20241735445E+03  0.20903587095E+03  0.47000000000E+01 0. -1.
        -11    1    6    6    0    0  0.13108002498E+01 -0.24977835959E+02 -0.21711838229E+02  0.33121207795E+02  0.00000000000E+00 0.  1.
         12    1    6    6    0    0 -0.59735757896E+02  0.51207179755E+02 -0.71951792441E+02  0.10661893108E+03  0.00000000000E+00 0. -1.
         -5    1    3    3    0  503  0.60760897857E+02 -0.45251175160E+02 -0.27686391667E+03  0.28708060526E+03  0.47000000000E+01 0.  1.
         13    1    4    4    0    0  0.15106315211E+02  0.34777882781E+02 -0.11063773799E+03  0.11695473892E+03  0.00000000000E+00 0. -1.
        -14    1    4    4    0    0 -0.18948422823E+02  0.36194419412E+02 -0.53407857708E+03  0.53563887575E+03  0.00000000000E+00 0.  1.
</event>
<event>
12    1  0.8358445E-002  0.2799467E+03  0.7818608E-02  0.1095897E+00
         21   -1    0    0  503  502  0.00000000000E+00  0.00000000000E+00  0.33021728921E+03  0.33021728921E+03  0.00000000000E+00 0.  1.
         21   -1    0    0  501  503 -0.00000000000E+00 -0.00000000000E+00 -0.25002730999E+03  0.25002730999E+03  0.00000000000E+00 0. -1.
          6    2    1    2  501    0  0.17336438225E+03  0.13485157126E+03  0.10817255204E+03  0.29890283989E+03  0.17146851423E+03 0.  0.
         24    2    3    3    0    0  0.95207957462E+02  0.10166857390E+03  0.13346558731E+03  0.21018212256E+03  0.83441042462E+02 0.  0.
         -6    2    1    2    0  502 -0.17336438225E+03 -0.13485157126E+03 -0.27982572819E+02  0.28134175931E+03  0.17357996960E+03 0.  0.
        -24    2    5    5    0    0 -0.15334920064E+03 -0.32871106196E+02 -0.52670565699E+01  0.17485839240E+03  0.77144206193E+02 0.  0.
          5    1    3    3  501    0  0.78156424785E+02  0.33182997366E+02 -0.25293035266E+02  0.88720717323E+02  0.47000000000E+01 0. -1.
        -11    1    4    4    0    0 -0.13005238875E+02  0.95539335699E+01  0.31116336168E+02  0.35051965157E+02  0.00000000000E+00 0.  1.
         12    1    4    4    0    0  0.10821319634E+03  0.92114640327E+02  0.10234925114E+03  0.17513015741E+03  0.00000000000E+00 0. -1.
         -5    1    5    5    0  502 -0.20015181610E+02 -0.10198046507E+03 -0.22715516249E+02  0.10648336691E+03  0.47000000000E+01 0.  1.
         11    1    6    6    0    0  0.76003532767E+01 -0.87140214523E+01  0.28321760004E+01  0.11904652901E+02  0.00000000000E+00 0. -1.
        -12    1    6    6    0    0 -0.16094955391E+03 -0.24157084744E+02 -0.80992325704E+01  0.16295373950E+03  0.00000000000E+00 0.  1.
</event>
<event>
12    1  0.8358445E-002  0.1830401E+03  0.7818608E-02  0.1165291E+00
         21   -1    0    0  503  502  0.00000000000E+00  0.00000000000E+00  0.31880686329E+02  0.31880686329E+02  0.00000000000E+00 0. -1.
         21   -1    0    0  501  503 -0.00000000000E+00 -0.00000000000E+00 -0.11130077406E+04  0.11130077406E+04  0.00000000000E+00 0. -1.
          6    2    1    2  501    0 -0.37832647939E+02 -0.49685749600E+02 -0.68351636505E+03  0.70716942581E+03  0.17027622425E+03 0.  0.
         24    2    3    3    0    0  0.44087086263E+02 -0.15281084507E+02 -0.37239006141E+03  0.38357061455E+03  0.79214113577E+02 0.  0.
         -6    2    1    2    0  502  0.37832647939E+02  0.49685749600E+02 -0.39761068919E+03  0.43771900109E+03  0.17205720210E+03 0.  0.
        -24    2    5    5    0    0  0.64370803781E+02  0.66869362869E+02 -0.38942786288E+03  0.40472507851E+03  0.59440867415E+02 0.  0.
          5    1    3    3  501    0 -0.81919734201E+02 -0.34404665092E+02 -0.31112630364E+03  0.32359881126E+03  0.47000000000E+01 0. -1.
        -11    1    4    4    0    0  0.23063703603E+02  0.90802920797E+01 -0.26874572279E+02  0.36559933853E+02  0.00000000000E+00 0.  1.
         12    1    4    4    0    0  0.21023382659E+02 -0.24361376587E+02 -0.34551548914E+03  0.34701068070E+03  0.00000000000E+00 0. -1.
         -5    1    5    5    0  502 -0.26538155843E+02 -0.17183613270E+02 -0.81828263066E+01  0.32993922575E+02  0.47000000000E+01 0.  1.
         13    1    6    6    0    0  0.11876889462E+02  0.23792795307E+02 -0.35575542964E+02  0.44415952866E+02  0.00000000000E+00 0. -1.
        -14    1    6    6    0    0  0.52493914319E+02  0.43076567562E+02 -0.35385231992E+03  0.36030912565E+03  0.00000000000E+00 0.  1.
</event>
<event>
12    1  0.8358445E-002  0.2270620E+03  0.7818608E-02  0.1129128E+00
         21   -1    0    0  501  502  0.00000000000E+00  0.00000000000E+00  0.45917144622E+02  0.45917144622E+02  0.00000000000E+00 0. -1.
         21   -1    0    0  502  503 -0.00000000000E+00 -0.00000000000E+00 -0.11127212231E+04  0.11127212231E+04  0.00000000000E+00 0. -1.
         -6    2    1    2    0  503 -0.11394994272E+03 -0.90963020701E+02 -0.51384129964E+03  0.56087169688E+03  0.17112953738E+03 0.  0.
        -24    2    3    3    0    0 -0.29341736257E+02 -0.97895501399E+02 -0.23380582825E+03  0.26821393921E+03  0.82638279144E+02 0.  0.
          6    2    1    2  501    0  0.11394994272E+03  0.90963020701E+02 -0.55296277879E+03  0.59776667079E+03  0.17406406121E+03 0.  0.
         24    2    5    5    0    0  0.10662653310E+03  0.11018970873E+03 -0.31742870957E+03  0.36128900668E+03  0.79106075730E+02 0.  0.
          5    1    5    5  501    0  0.73234096219E+01 -0.19226688033E+02 -0.23553406922E+03  0.23647766411E+03  0.47000000000E+01 0. -1.
        -13    1    6    6    0    0  0.92989781733E+02  0.10245544848E+03 -0.20225787789E+03  0.24505604991E+03  0.00000000000E+00 0.  1.
         14    1    6    6    0    0  0.13636751368E+02  0.77342602564E+01 -0.11517083168E+03  0.11623295677E+03  0.00000000000E+00 0. -1.
         -5    1    3    3    0  503 -0.84608206465E+02  0.69324806984E+01 -0.28003547139E+03  0.29265775768E+03  0.47000000000E+01 0.  1.
         11    1    4    4    0    0 -0.27584946615E+02 -0.11268358649E+03 -0.21414206522E+03  0.24354741641E+03  0.00000000000E+00 0. -1.
        -12    1    4    4    0    0 -0.17567896423E+01  0.14788085086E+02 -0.19663763031E+02  0.24666522798E+02  0.00000000000E+00 0.  1.
</event>
<event>
12    1  0.8358445E-002  0.2636379E+03  0.7818608E-02  0.1105161E+00
         21   -1    0    0  501  502  0.00000000000E+00  0.00000000000E+00  0.50620523995E+03  0.50620523995E+03  0.00000000000E+00 0.  1.
         21   -1    0    0  502  503 -0.00000000000E+00 -0.00000000000E+00 -0.24379404961E+03  0.24379404961E+03  0.00000000000E+00 0. -1.
         -6    2    1    2    0  503 -0.18946943184E+03 -0.61775292484E+02 -0.11721102609E+03  0.28851924792E+03  0.17259802844E+03 0.  0.
        -24    2    3    3    0    0 -0.98279602198E+02 -0.22459600453E+02 -0.58530783211E+01  0.13924101374E+03  0.95867030414E+02 0.  0.
          6    2    1    2  501    0  0.18946943184E+03  0.61775292484E+02  0.37962221643E+03  0.46148004164E+03  0.17069255772E+03 0.  0.
         24    2    5    5    0    0  0.61068399869E+02 -0.17742942079E+02  0.21265894262E+03  0.23629389766E+03  0.81035910174E+02 0.  0.
          5    1    5    5  501    0  0.12840103197E+03  0.79518234563E+02  0.16696327381E+03  0.22518614398E+03  0.47000000000E+01 0. -1.
        -13    1    6    6    0    0 -0.18937868703E+02  0.68104915771E+00  0.60502492941E+02  0.63400775635E+02  0.00000000000E+00 0.  1.
         14    1    6    6    0    0  0.80006268573E+02 -0.18423991236E+02  0.15215644968E+03  0.17289312203E+03  0.00000000000E+00 0. -1.
         -5    1    3    3    0  503 -0.91189829645E+02 -0.39315692032E+02 -0.11135794776E+03  0.14927823418E+03  0.47000000000E+01 0.  1.
         11    1    4    4    0    0 -0.93331832953E+02  0.15671754864E+02  0.14488222019E+02  0.95741023183E+02  0.00000000000E+00 0. -1.
        -12    1    4    4    0    0 -0.49477692453E+01 -0.38131355317E+02 -0.20341300340E+02  0.43499990556E+02  0.00000000000E+00 0.  1.
</event>
<event>
12    1  0.8358445E-002  0.1933460E+03  0.7818608E-02  0.1155559E+00
         21   -1    0    0  503  502  0.00000000000E+00  0.00000000000E+00  0.10297754850E+04  0.10297754850E+04  0.00000000000E+00 0. -1.
         21   -1    0    0  501  503 -0.00000000000E+00 -0.00000000000E+00 -0.76674629916E+02  0.76674629916E+02  0.00000000000E+00 0.  1.
          6    2    1    2  501    0  0.53710111187E+02 -0.70393382850E+02  0.74981944793E+02  0.20737640894E+03  0.17187983753E+03 0.  0.
         24    2    3    3    0    0  0.46774009429E+02 -0.15696749216E+01 -0.16846075823E+02  0.92314305489E+02  0.77768045429E+02 0.  0.
         -6    2    1    2    0  502 -0.53710111187E+02  0.70393382850E+02  0.87811891026E+03  0.89907370594E+03  0.17146633422E+03 0.  0.
        -24    2    5    5    0    0 -0.47266391260E+01  0.55184850808E+02  0.79699469989E+03  0.80298048303E+03  0.80680825463E+02 0.  0.
          5    1    3    3  501    0  0.69361017583E+01 -0.68823707928E+02  0.91828020616E+02  0.11506210345E+03  0.47000000000E+01 0. -1.
        -11    1    4    4    0    0 -0.12410537734E+02  0.23148107328E+02 -0.11882319656E+01  0.26291980049E+02  0.00000000000E+00 0.  1.
         12    1    4    4    0    0  0.59184547162E+02 -0.24717782250E+02 -0.15657843857E+02  0.66022325439E+02  0.00000000000E+00 0. -1.
         -5    1    5    5    0  502 -0.48983472061E+02  0.15208532042E+02  0.81124210367E+02  0.96093222913E+02  0.47000000000E+01 0.  1.
         11    1    6    6    0    0 -0.25270064397E+02  0.66114590777E+02  0.68144616733E+03  0.68511210341E+03  0.00000000000E+00 0. -1.
        -12    1    6    6    0    0  0.20543425271E+02 -0.10929739969E+02  0.11554853256E+03  0.11786837962E+03  0.00000000000E+00 0.  1.
</event>
<event>
12    1  0.8358445E-002  0.2182298E+03  0.7818608E-02  0.1135244E+00
         21   -1    0    0  503  502  0.00000000000E+00  0.00000000000E+00  0.19707511168E+04  0.19707511168E+04  0.00000000000E+00 0.  1.
         21   -1    0    0  501  503 -0.00000000000E+00 -0.00000000000E+00 -0.39423017026E+02  0.39423017026E+02  0.00000000000E+00 0. -1.
          6    2    1    2  501    0  0.58453817671E+02 -0.12054551330E+03  0.34022337005E+03  0.40419821613E+03  0.17226777650E+03 0.  0.
         24    2    3    3    0    0 -0.25761351899E+02 -0.51466475107E+02  0.10012676491E+03  0.14050790895E+03  0.80029107916E+02 0.  0.
         -6    2    1    2    0  502 -0.58453817671E+02  0.12054551330E+03  0.15911047297E+04  0.16059759177E+04  0.17203580350E+03 0.  0.
        -24    2    5    5    0    0 -0.38853790931E+02  0.11730745158E+03  0.73303461141E+03  0.74766300038E+03  0.79934756775E+02 0.  0.
          5    1    3    3  501    0  0.84215169570E+02 -0.69079038193E+02  0.24009660514E+03  0.26369030718E+03  0.47000000000E+01 0. -1.
        -13    1    4    4    0    0 -0.19909220891E+02 -0.33926163413E+02  0.11188275137E+03  0.11859642362E+03  0.00000000000E+00 0.  1.
         14    1    4    4    0    0 -0.58521310074E+01 -0.17540311694E+02 -0.11755986462E+02  0.21911485329E+02  0.00000000000E+00 0. -1.
         -5    1    5    5    0  502 -0.19600026740E+02  0.32380617216E+01  0.85807011828E+03  0.85831291729E+03  0.47000000000E+01 0.  1.
         11    1    6    6    0    0 -0.52116620505E+02  0.98823719468E+02  0.68998634178E+03  0.69897311930E+03  0.00000000000E+00 0. -1.
        -12    1    6    6    0    0  0.13262829573E+02  0.18483732111E+02  0.43048269637E+02  0.48689881082E+02  0.00000000000E+00 0.  1.
</event>
<event>
12    1  0.8358445E-002  0.2210658E+03  0.7818608E-02  0.1133093E+00
         21   -1    0    0  503  502  0.00000000000E+00  0.00000000000E+00  0.32807631321E+03  0.32807631321E+03  0.00000000000E+00 0. -1.
         21   -1    0    0  501  503 -0.00000000000E+00 -0.00000000000E+00 -0.20391604437E+03  0.20391604437E+03  0.00000000000E+00 0. -1.
          6    2    1    2  501    0 -0.13603167397E+03  0.31004815385E+02 -0.76017872873E+02  0.23377087823E+03  0.17147650454E+03 0.  0.
         24    2    3    3    0    0 -0.15506234219E+03  0.31397539583E+02 -0.25582443458E+02  0.17965855888E+03  0.81194832999E+02 0.  0.
         -6    2    1    2    0  502  0.13603167397E+03 -0.31004815385E+02  0.20017814172E+03  0.29822147935E+03  0.17146092097E+03 0.  0.
        -24    2    5    5    0    0  0.16013635907E+03 -0.54322496233E+02  0.16738864949E+03  0.25108348104E+03  0.80183336065E+02 0.  0.
          5    1    3    3  501    0  0.19030668222E+02 -0.39272419785E+00 -0.50435429416E+02  0.54112319352E+02  0.47000000000E+01 0. -1.
        -13    1    4    4    0    0 -0.10895425602E+02 -0.12806961364E+02  0.16029264423E+02  0.23230709769E+02  0.00000000000E+00 0.  1.
         14    1    4    4    0    0 -0.14416691659E+03  0.44204500947E+02 -0.41611707881E+02  0.15642784911E+03  0.00000000000E+00 0. -1.
         -5    1    5    5    0  502 -0.24104685093E+02  0.23317680848E+02  0.32789492227E+02  0.47137998304E+02  0.47000000000E+01 0.  1.
         13    1    6    6    0    0  0.43743819095E+02 -0.48796189527E+02  0.89491231702E+02  0.11092010806E+03  0.00000000000E+00 0. -1.
        -14    1    6    6    0    0  0.11639253997E+03 -0.55263067056E+01  0.77897417786E+02  0.14016337298E+03  0.00000000000E+00 0.  1.
</event>
<event>
12    1  0.8358445E-002  0.2335924E+03  0.7818608E-02  0.1124177E+00
         21   -1    0    0  501  502  0.00000000000E+00  0.00000000000E+00  0.67211800311E+03  0.67211800311E+03  0.00000000000E+00 0. -1.
         21   -1    0    0  502  503 -0.00000000000E+00 -0.00000000000E+00 -0.81862620849E+02  0.81862620849E+02  0.00000000000E+00 0. -1.
         -6    2    1    2    0  503 -0.94263688472E+02 -0.12523890666E+03  0.25867780312E+03  0.34838340566E+03  0.17287673298E+03 0.  0.
        -24    2    3    3    0    0 -0.12422981638E+03 -0.13650002617E+03  0.21591321144E+03  0.29475802048E+03  0.78730371149E+02 0.  0.
          6    2    1    2  501    0  0.94263688472E+02  0.12523890666E+03  0.33157757914E+03  0.40559721830E+03  0.17319060539E+03 0.  0.
         24    2    5    5    0    0  0.31518877960E+02  0.90090498943E+02  0.90886599125E+02  0.15434722392E+03  0.80330280499E+02 0.  0.
          5    1    5    5  501    0  0.62744810512E+02  0.35148407716E+02  0.24069098002E+03  0.25124999437E+03  0.47000000000E+01 0. -1.
        -13    1    6    6    0    0  0.33751504674E+02  0.30330415667E+02 -0.20726346714E+00  0.45377760416E+02  0.00000000000E+00 0.  1.
         14    1    6    6    0    0 -0.22326267142E+01  0.59760083277E+02  0.91093862592E+02  0.10896946351E+03  0.00000000000E+00 0. -1.
         -5    1    3    3    0  503  0.29966127909E+02  0.11261119506E+02  0.42764591675E+02  0.53625385178E+02  0.47000000000E+01 0.  1.
         13    1    4    4    0    0  0.82404424160E+01 -0.33889291559E+01  0.42216647703E+00  0.89200872512E+01  0.00000000000E+00 0. -1.
        -14    1    4    4    0    0 -0.13247025880E+03 -0.13311109701E+03  0.21549104496E+03  0.28583793323E+03  0.00000000000E+00 0.  1.
</event>
<event>
12    1  0.8358445E-002  0.1923228E+03  0.7818608E-02  0.1156403E+00
         21   -1    0    0  503  502  0.00000000000E+00  0.00000000000E+00  0.78266095977E+02  0.78266095977E+02  0.00000000000E+00 0. -1.
         21   -1    0    0  501  503 -0.00000000000E+00 -0.00000000000E+00 -0.90373939453E+03  0.90373939453E+03  0.00000000000E+00 0. -1.
          6    2    1    2  501    0  0.84418694278E+02 -0.17835722785E+02 -0.75190985613E+03  0.77609372271E+03  0.17178010868E+03 0.  0.
         24    2    3    3    0    0  0.10916356141E+03 -0.39242397080E+02 -0.70065814002E+03  0.71510698188E+03  0.83663119003E+02 0.  0.
         -6    2    1    2    0  502 -0.84418694278E+02  0.17835722785E+02 -0.73563442422E+02  0.20591176779E+03  0.17188207325E+03 0.  0.
        -24    2    5    5    0    0 -0.61344419392E+02  0.23987122717E+02  0.24423205757E+02  0.10494773903E+03  0.77968038974E+02 0.  0.
          5    1    3    3  501    0 -0.24744867130E+02  0.21406674294E+02 -0.51251716102E+02  0.60986740830E+02  0.47000000000E+01 0. -1.
        -11    1    4    4    0    0  0.33135740484E+02  0.20599831555E+02 -0.11322216079E+03  0.11975636956E+03  0.00000000000E+00 0.  1.
         12    1    4    4    0    0  0.76027820924E+02 -0.59842228635E+02 -0.58743597924E+03  0.59535061232E+03  0.00000000000E+00 0. -1.
         -5    1    5    5    0  502 -0.23074274886E+02 -0.61513999320E+01 -0.97986648179E+02  0.10096402876E+03  0.47000000000E+01 0.  1.
         11    1    6    6    0    0 -0.53327321433E+02  0.47692725331E+02  0.23536927081E+01  0.71581695496E+02  0.00000000000E+00 0. -1.
        -12    1    6    6    0    0 -0.80170979591E+01 -0.23705602614E+02  0.22069513049E+02  0.33366043535E+02  0.00000000000E+00 0.  1.
</event>
<event>
12    1  0.8358445E-002  0.2124358E+03  0.7818608E-02  0.1143488E+00
         21   -1    0    0  501  502  0.00000000000E+00  0.00000000000E+00  0.13594016554E+03  0.13594016554E+03  0.00000000000E+00 0.  1.
         21   -1    0    0  502  503 -0.00000000000E+00 -0.00000000000E+00 -0.44819808579E+03  0.44819808579E+03  0.00000000000E+00 0.  1.
         -6    2    1    2    0  503  0.68862774063E+02  0.56785383630E+02 -0.32691309004E+03  0.38987324184E+03  0.19277529618E+03 0.  0.
        -24    2    3    3    0    0  0.12158878777E+03  0.59268720588E+02 -0.26785172970E+03  0.31052254071E+03  0.79894209017E+02 0.  0.
          6    2    1    2  501    0 -0.68862774063E+02 -0.56785383630E+02  0.14655169786E+02  0.19426500949E+03  0.17192282706E+03 0.  0.
         24    2    5    5    0    0 -0.58133215697E+02 -0.10501967842E+03  0.92729576595E+01  0.14433777420E+03  0.79616591832E+02 0.  0.
          5    1    5    5  501    0 -0.10729558366E+02  0.48234294785E+02  0.53822121267E+01  0.49927235288E+02  0.47000000000E+01 0. -1.
        -11    1    6    6    0    0 -0.36672151040E+02 -0.55967036419E+02  0.44398928575E+02  0.80302059040E+02  0.00000000000E+00 0.  1.
         12    1    6    6    0    0 -0.21461064657E+02 -0.49052641996E+02 -0.35125970916E+02  0.64035715158E+02  0.00000000000E+00 0. -1.
         -5    1    3    3    0  503 -0.52726013710E+02 -0.24833369577E+01 -0.59061360333E+02  0.79350701122E+02  0.47000000000E+01 0.  1.
         13    1    4    4    0    0  0.60030514600E+02  0.57620773940E+01 -0.51487989373E+02  0.79296136531E+02  0.00000000000E+00 0. -1.
        -14    1    4    4    0    0  0.61558273172E+02  0.53506643194E+02 -0.21636374033E+03  0.23122640418E+03  0.00000000000E+00 0.  1.
</event>
<event>
12    1  0.8358445E-002  0.1842507E+03  0.7818608E-02  0.1165037E+00
         21   -1    0    0  501  502  0.00000000000E+00  0.00000000000E+00  0.29678814600E+03  0.29678814600E+03  0.00000000000E+00 0. -1.
         21   -1    0    0  502  503 -0.00000000000E+00 -0.00000000000E+00 -0.63602770847E+03  0.63602770847E+03  0.00000000000E+00 0. -1.
         -6    2    1    2    0  503 -0.47272258089E+02 -0.31615983262E+02 -0.59290567546E+03  0.61929582286E+03  0.16957576313E+03 0.  0.
        -24    2    3    3    0    0 -0.28603341031E+02  0.13408540827E+02 -0.14471737200E+03  0.16844043409E+03  0.80194276547E+02 0.  0.
          6    2    1    2  501    0  0.47272258089E+02  0.31615983262E+02  0.25366611300E+03  0.31352003160E+03  0.17525431964E+03 0.  0.
         24    2    5    5    0    0 -0.31769792439E+02  0.53545410012E+02  0.12279717500E+03  0.15899717103E+03  0.79526873196E+02 0.  0.
          5    1    5    5  501    0  0.79042050528E+02 -0.21929426750E+02  0.13086893799E+03  0.15452286058E+03  0.47000000000E+01 0. -1.
        -11    1    6    6    0    0  0.30650443859E+01  0.45494087172E+02  0.19327164043E+02  0.49524193427E+02  0.00000000000E+00 0.  1.
         12    1    6    6    0    0 -0.34834836825E+02  0.80513228407E+01  0.10347001096E+03  0.10947297760E+03  0.00000000000E+00 0. -1.
         -5    1    3    3    0  503 -0.18668917058E+02 -0.45024524089E+02 -0.44818830346E+03  0.45085538878E+03  0.47000000000E+01 0.  1.
         11    1    4    4    0    0 -0.11658511045E+02 -0.15311149871E+02 -0.13096273657E+03  0.13236914505E+03  0.00000000000E+00 0. -1.
        -12    1    4    4    0    0 -0.16944829986E+02  0.28719690698E+02 -0.13754635427E+02  0.36071289036E+02  0.00000000000E+00 0.  1.
</event>
<event>
12    1  0.8358445E-002  0.2017456E+03  0.7818608E-02  0.1152313E+00
         21   -1    0    0  501  502  0.00000000000E+00  0.00000000000E+00  0.17979788679E+03  0.17979788679E+03  0.00000000000E+00 0. -1.
         21   -1    0    0  502  503 -0.00000000000E+00 -0.00000000000E+00 -0.25019022581E+03  0.25019022581E+03  0.00000000000E+00 0. -1.
         -6    2    1    2    0  503  0.46120164435E+01 -0.63163279501E+02  0.53488841350E+02  0.20871598625E+03  0.19154747765E+03 0.  0.
        -24    2    3    3    0    0 -0.21228421547E+02  0.40572946174E+02  0.61365421157E+01  0.91697769735E+02  0.79208673658E+02 0.  0.
          6    2    1    2  501    0 -0.46120164435E+01  0.63163279501E+02 -0.12388118036E+03  0.22127212635E+03  0.17205794512E+03 0.  0.
         24    2    5    5    0    0 -0.60188928836E+02  0.10508237075E+02 -0.38223410607E+02  0.10629086613E+03  0.78125468975E+02 0.  0.
          5    1    5    5  501    0  0.55576912393E+02  0.52655042426E+02 -0.85657769756E+02  0.11498126023E+03  0.47000000000E+01 0. -1.
        -11    1    6    6    0    0  0.12816304883E+02 -0.16268881646E+02 -0.13383721140E+02  0.24658835585E+02  0.00000000000E+00 0.  1.
         12    1    6    6    0    0 -0.73005233719E+02  0.26777118721E+02 -0.24839689466E+02  0.81632030541E+02  0.00000000000E+00 0. -1.
         -5    1    3    3    0  503  0.25840437991E+02 -0.10373622567E+03  0.47352299234E+02  0.11701821651E+03  0.47000000000E+01 0.  1.
         11    1    4    4    0    0  0.17240366440E+02 -0.14291912910E+02 -0.69021999658E+01  0.23433509638E+02  0.00000000000E+00 0. -1.
        -12    1    4    4    0    0 -0.38468787987E+02  0.54864859084E+02  0.13038742081E+02  0.68264260097E+02  0.00000000000E+00 0.  1.
</event>
<event>
12    1  0.8358445E-002  0.2269256E+03  0.7818608E-02  0.1129054E+00
         21   -1    0    0  501  502  0.00000000000E+00  0.00000000000E+00  0.52699822902E+03  0.52699822902E+03  0.00000000000E+00 0.  1.
         21   -1    0    0  502  503 -0.00000000000E+00 -0.00000000000E+00 -0.97383642704E+02  0.97383642704E+02  0.00000000000E+00 0.  1.
         -6    2    1    2    0  503 -0.14477861169E+03 -0.20178255579E+02  0.19922945416E+03  0.30100507872E+03  0.17188273215E+03 0.  0.
        -24    2    3    3    0    0 -0.36156919486E+02  0.12715866029E+02  0.23745357879E+02  0.91965720461E+02  0.80155072476E+02 0.  0.
          6    2    1    2  501    0  0.14477861169E+03  0.20178255579E+02  0.23038513216E+03  0.32337679301E+03  0.17357198143E+03 0.  0.
         24    2    5    5    0    0  0.39455907196E+02  0.33304880862E+02  0.18444818397E+03  0.20762933696E+03  0.80142531124E+02 0.  0.
          5    1    5    5  501    0  0.10532270449E+03 -0.13126625283E+02  0.45936948186E+02  0.11574745605E+03  0.47000000000E+01 0. -1.
        -13    1    6    6    0    0  0.21823775396E+02 -0.18651928017E+02  0.11807182666E+03  0.12151184239E+03  0.00000000000E+00 0.  1.
         14    1    6    6    0    0  0.17632131801E+02  0.51956808879E+02  0.66376357313E+02  0.86117494569E+02  0.00000000000E+00 0. -1.
         -5    1    3    3    0  503 -0.10862169220E+03 -0.32894121608E+02  0.17548409628E+03  0.20903935826E+03  0.47000000000E+01 0.  1.
         13    1    4    4    0    0 -0.18749218472E+01  0.53902572864E+01  0.48637438904E+02  0.48971120762E+02  0.00000000000E+00 0. -1.
        -14    1    4    4    0    0 -0.34281997638E+02  0.73256087427E+01 -0.24892081025E+02  0.42994599699E+02  0.00000000000E+00 0.  1.
</event>
<event>
12    1  0.8358445E-002  0.2949807E+03  0.7818608E-02  0.1087825E+00
         21   -1    0    0  501  502  0.00000000000E+00  0.00000000000E+00  0.38318407059E+03  0.38318407059E+03  0.00000000000E+00 0.  1.
         21   -1    0    0  502  503 -0.00000000000E+00 -0.00000000000E+00 -0.62654272308E+03  0.62654272308E+03  0.00000000000E+00 0. -1.
         -6    2    1    2    0  503  0.15685476135E+03  0.18064879282E+03 -0.52497626151E+03  0.60217411939E+03  0.17255779440E+03 0.  0.
        -24    2    3    3    0    0  0.17531901634E+03  0.18934980223E+03 -0.50726046884E+03  0.57474100825E+03  0.80149474246E+02 0.  0.
          6    2    1    2  501    0 -0.15685476135E+03 -0.18064879282E+03  0.28161760902E+03  0.40755267427E+03  0.17191073873E+03 0.  0.
         24    2    5    5    0    0 -0.89827110435E+02 -0.18941446748E+03  0.24005465040E+03  0.32805982825E+03  0.77783452448E+02 0.  0.
          5    1    5    5  501    0 -0.67027650918E+02  0.87656746558E+01  0.41562958618E+02  0.79492846023E+02  0.47000000000E+01 0. -1.
        -13    1    6    6    0    0 -0.52104128180E+02 -0.91927231906E+02  0.64666241350E+02  0.12388373142E+03  0.00000000000E+00 0.  1.
         14    1    6    6    0    0 -0.37722982255E+02 -0.97487235570E+02  0.17538840905E+03  0.20417609684E+03  0.00000000000E+00 0. -1.
         -5    1    3    3    0  503 -0.18464254988E+02 -0.87010094050E+01 -0.17715792668E+02  0.27433111139E+02  0.47000000000E+01 0.  1.
         13    1    4    4    0    0  0.10894064329E+03  0.16559336236E+03 -0.34624534481E+03  0.39896749770E+03  0.00000000000E+00 0. -1.
        -14    1    4    4    0    0  0.66378373054E+02  0.23756439861E+02 -0.16101512403E+03  0.17577351055E+03  0.00000000000E+00 0.  1.
</event>
<event>
12    1  0.8358445E-002  0.1868862E+03  0.7818608E-02  0.1161380E+00
         21   -1    0    0  503  502  0.00000000000E+00  0.00000000000E+00  0.11009840205E+03  0.11009840205E+03  0.00000000000E+00 0. -1.
         21   -1    0    0  501  503 -0.00000000000E+00 -0.00000000000E+00 -0.48308365707E+03  0.48308365707E+03  0.00000000000E+00 0.  1.
          6    2    1    2  501    0 -0.92862875769E+01  0.72752782319E+02 -0.36047001351E+03  0.40587730535E+03  0.17151837769E+03 0.  0.
         24    2    3    3    0    0 -0.79019067447E+01  0.67851348747E+02 -0.37469851011E+03  0.39005072400E+03  0.84109144336E+02 0.  0.
         -6    2    1    2    0  502  0.92862875769E+01 -0.72752782319E+02 -0.12515241513E+02  0.18730475377E+03  0.17189309772E+03 0.  0.
        -24    2    5    5    0    0 -0.40426700507E+02  0.73049910789E+00  0.17903063842E+02  0.93397687295E+02  0.82266375599E+02 0.  0.
          5    1    3    3  501    0 -0.13843808323E+01  0.49014335714E+01  0.14228496604E+02  0.15826581341E+02  0.47000000000E+01 0. -1.
        -13    1    4    4    0    0 -0.22474894991E+02  0.74897590372E+01 -0.24617818531E+03  0.24731541869E+03  0.00000000000E+00 0.  1.
         14    1    4    4    0    0  0.14572988247E+02  0.60361589710E+02 -0.12852032479E+03  0.14273530532E+03  0.00000000000E+00 0. -1.
         -5    1    5    5    0  502  0.49712988084E+02 -0.73483281426E+02 -0.30418305355E+02  0.93907066476E+02  0.47000000000E+01 0.  1.
         13    1    6    6    0    0  0.16695912220E+01  0.35052484026E+02 -0.29531482150E+01  0.35216264079E+02  0.00000000000E+00 0. -1.
        -14    1    6    6    0    0 -0.42096291729E+02 -0.34321984919E+02  0.20856212057E+02  0.58181423216E+02  0.00000000000E+00 0.  1.
</event>
<event>
12    1  0.8358445E-002  0.1865453E+03  0.7818608E-02  0.1161632E+00
         21   -1    0    0  501  502  0.00000000000E+00  0.00000000000E+00  0.50741345120E+02  0.50741345120E+02  0.00000000000E+00 0. -1.
         21   -1    0    0  502  503 -0.00000000000E+00 -0.00000000000E+00 -0.89528790209E+03  0.89528790209E+03  0.00000000000E+00 0. -1.
         -6    2    1    2    0  503  0.48549825972E+02  0.52086346587E+02 -0.65115870246E+03  0.67733238326E+03  0.17234102391E+03 0.  0.
        -24    2    3    3    0    0  0.48024022766E+02  0.16768445781E+02 -0.62783631896E+03  0.63474536460E+03  0.78331008806E+02 0.  0.
          6    2    1    2  501    0 -0.48549825972E+02 -0.52086346587E+02 -0.19338785451E+03  0.26869686394E+03  0.17242119742E+03 0.  0.
         24    2    5    5    0    0 -0.47591430072E+02 -0.81988253930E+02 -0.68976883658E+02  0.14065303452E+03  0.77707449081E+02 0.  0.
          5    1    5    5  501    0 -0.95839590036E+00  0.29901907343E+02 -0.12441097085E+03  0.12804382942E+03  0.47000000000E+01 0. -1.
        -11    1    6    6    0    0  0.13481022254E+02 -0.37001181012E+02 -0.47733523954E+02  0.61881456563E+02  0.00000000000E+00 0.  1.
         12    1    6    6    0    0 -0.61072452326E+02 -0.44987072918E+02 -0.21243359704E+02  0.78771577960E+02  0.00000000000E+00 0. -1.
         -5    1    3    3    0  503  0.52580320558E+00  0.35317900806E+02 -0.23322383504E+02  0.42587018664E+02  0.47000000000E+01 0.  1.
         11    1    4    4    0    0  0.62648363403E+02  0.25166313448E+02 -0.35338925043E+03  0.35978065969E+03  0.00000000000E+00 0. -1.
        -12    1    4    4    0    0 -0.14624340637E+02 -0.83978676672E+01 -0.27444706853E+03  0.27496470491E+03  0.00000000000E+00 0.  1.
</event>
<event>
12    1  0.8358445E-002  0.1764079E+03  0.7818608E-02  0.1171621E+00
         21   -1    0    0  503  502  0.00000000000E+00  0.00000000000E+00  0.37275960724E+03  0.37275960724E+03  0.00000000000E+00 0. -1.
         21   -1    0    0  501  503 -0.00000000000E+00 -0.00000000000E+00 -0.48653560885E+03  0.48653560885E+03  0.00000000000E+00 0. -1.
          6    2    1    2  501    0  0.33052357921E+02  0.11653077107E+02 -0.44817865557E+03  0.48121469685E+03  0.17168350122E+03 0.  0.
         24    2    3    3    0    0 -0.40517579437E+02 -0.10267689488E+02 -0.17422475154E+03  0.19666964379E+03  0.81102312223E+02 0.  0.
         -6    2    1    2    0  502 -0.33052357921E+02 -0.11653077107E+02  0.33440265396E+03  0.37808051924E+03  0.17289155990E+03 0.  0.
        -24    2    5    5    0    0 -0.17316224028E+02 -0.70364267985E+02  0.14695296510E+03  0.18096607102E+03  0.76828139926E+02 0.  0.
          5    1    3    3  501    0  0.73569937358E+02  0.21920766595E+02 -0.27395390402E+03  0.28454505306E+03  0.47000000000E+01 0. -1.
        -11    1    4    4    0    0 -0.15230663411E+02  0.88864046438E+00  0.44323038824E+01  0.15887356845E+02  0.00000000000E+00 0.  1.
         12    1    4    4    0    0 -0.25286916025E+02 -0.11156329952E+02 -0.17865705543E+03  0.18078228695E+03  0.00000000000E+00 0. -1.
         -5    1    5    5    0  502 -0.15736133894E+02  0.58711190878E+02  0.18744968886E+03  0.19711444822E+03  0.47000000000E+01 0.  1.
         11    1    6    6    0    0 -0.38012968679E+01 -0.34223696789E+02  0.13680077252E+03  0.14106793627E+03  0.00000000000E+00 0. -1.
        -12    1    6    6    0    0 -0.13514927160E+02 -0.36140571196E+02  0.10152192577E+02  0.39898134751E+02  0.00000000000E+00 0.  1.
</event>
<event>
12    1  0.8358445E-002  0.2675769E+03  0.7818608E-02  0.1102775E+00
         21   -1    0    0  503  502  0.00000000000E+00  0.00000000000E+00  0.22528165949E+03  0.22528165949E+03  0.00000000000E+00 0. -1.
         21   -1    0    0  501  503 -0.00000000000E+00 -0.00000000000E+00 -0.38202919075E+03  0.38202919075E+03  0.00000000000E+00 0.  1.
          6    2    1    2  501    0  0.19265319914E+03  0.67624499869E+02 -0.20375333020E+03  0.33632245199E+03  0.17294231416E+03 0.  0.
         24    2    3    3    0    0  0.37470919733E+02  0.67310674160E+02 -0.64241796485E+02  0.12759488705E+03  0.78858418091E+02 0.  0.
         -6    2    1    2    0  502 -0.19265319914E+03 -0.67624499869E+02  0.47005798941E+02  0.27098839825E+03  0.17186284861E+03 0.  0.
        -24    2    5    5    0    0 -0.77772270404E+02 -0.57863155982E+02  0.82636570075E+02  0.15022187361E+03  0.79631261034E+02 0.  0.
          5    1    3    3  501    0  0.15518227940E+03  0.31382570833E+00 -0.13951153371E+03  0.20872756494E+03  0.47000000000E+01 0. -1.
        -13    1    4    4    0    0  0.14564811760E+01  0.53946069303E+01 -0.55103204274E+02  0.55385794592E+02  0.00000000000E+00 0.  1.
         14    1    4    4    0    0  0.36014438557E+02  0.61916067230E+02 -0.91385922116E+01  0.72209092457E+02  0.00000000000E+00 0. -1.
         -5    1    5    5    0  502 -0.11488092873E+03 -0.97613438865E+01 -0.35630771134E+02  0.12076652464E+03  0.47000000000E+01 0.  1.
         13    1    6    6    0    0  0.11619959928E+02 -0.25252272458E+01 -0.54335379518E+01  0.13073774361E+02  0.00000000000E+00 0. -1.
        -14    1    6    6    0    0 -0.89392230331E+02 -0.55337928736E+02  0.88070108027E+02  0.13714809925E+03  0.00000000000E+00 0.  1.
</event>
<event>
12    1  0.8358445E-002  0.1833676E+03  0.7818608E-02  0.1164974E+00
         21   -1    0    0  501  502  0.00000000000E+00  0.00000000000E+00  0.13510571463E+03  0.13510571463E+03  0.00000000000E+00 0. -1.
         21   -1    0    0  502  503 -0.00000000000E+00 -0.00000000000E+00 -0.66380993194E+03  0.66380993194E+03  0.00000000000E+00 0. -1.
         -6    2    1    2    0  503 -0.55069344907E+02 -0.26158015824E+02 -0.58146428134E+03  0.60969203192E+03  0.17293579377E+03 0.  0.
        -24    2    3    3    0    0 -0.32076064597E+02  0.83650894749E+01 -0.55118426206E+03  0.55812164015E+03  0.81220846006E+02 0.  0.
          6    2    1    2  501    0  0.55069344907E+02  0.26158015824E+02  0.52760064031E+02  0.18922361465E+03  0.17118725842E+03 0.  0.
         24    2    5    5    0    0  0.22937395087E+02  0.14758417861E+01 -0.36830847551E+02  0.90784327003E+02  0.79730674747E+02 0.  0.
          5    1    5    5  501    0  0.32131949820E+02  0.24682174038E+02  0.89590911581E+02  0.98439287647E+02  0.47000000000E+01 0. -1.
        -13    1    6    6    0    0  0.27609986531E+02  0.35162304810E+02 -0.64272357842E+01  0.45166452104E+02  0.00000000000E+00 0.  1.
         14    1    6    6    0    0 -0.46725914441E+01 -0.33686463024E+02 -0.30403611766E+02  0.45617874899E+02  0.00000000000E+00 0. -1.
         -5    1    3    3    0  503 -0.22993280310E+02 -0.34523105299E+02 -0.30280019284E+02  0.51570391764E+02  0.47000000000E+01 0.  1.
         13    1    4    4    0    0  0.10525790990E+02  0.26113843763E+02 -0.82530589450E+02  0.87201051066E+02  0.00000000000E+00 0. -1.
        -14    1    4    4    0    0 -0.42601855587E+02 -0.17748754288E+02 -0.46865367261E+03  0.47092058909E+03  0.00000000000E+00 0.  1.
</event>
<event>
12    1  0.8358445E-002  0.2328919E+03  0.7818608E-02  0.1125040E+00
         21   -1    0    0  503  502  0.00000000000E+00  0.00000000000E+00  0.20491113419E+03  0.20491113419E+03  0.00000000000E+00 0.  1.
         21   -1    0    0  501  503 -0.00000000000E+00 -0.00000000000E+00 -0.59725682070E+03  0.59725682070E+03  0.00000000000E+00 0. -1.
          6    2    1    2  501    0  0.27028430083E+02 -0.15089503587E+03 -0.49713564718E+03  0.54898315574E+03  0.17532485764E+03 0.  0.
         24    2    3    3    0    0 -0.28228168237E+02 -0.92835231809E+02 -0.41452207563E+03  0.43378192003E+03  0.83204526400E+02 0.  0.
         -6    2    1    2    0  502 -0.27028430083E+02  0.15089503587E+03  0.10478996068E+03  0.25318479915E+03  0.17210972889E+03 0.  0.
        -24    2    5    5    0    0 -0.17217689764E+02  0.13980243226E+03  0.19186422346E+02  0.16618277471E+03  0.86066409836E+02 0.  0.
          5    1    3    3  501    0  0.55256598320E+02 -0.58059804060E+02 -0.82613571555E+02  0.11520123572E+03  0.47000000000E+01 0. -1.
        -11    1    4    4    0    0  0.26142645744E+02 -0.13638635722E+02 -0.66481236946E+02  0.72726921953E+02  0.00000000000E+00 0.  1.
         12    1    4    4    0    0 -0.54370813981E+02 -0.79196596087E+02 -0.34804083868E+03  0.36105499808E+03  0.00000000000E+00 0. -1.
         -5    1    5    5    0  502 -0.98107403186E+01  0.11092603610E+02  0.85603538334E+02  0.87002024435E+02  0.47000000000E+01 0.  1.
         11    1    6    6    0    0  0.34555727667E+02  0.65082761520E+02  0.22981920399E+01  0.73723441647E+02  0.00000000000E+00 0. -1.
        -12    1    6    6    0    0 -0.51773417431E+02  0.74719670740E+02  0.16888230306E+02  0.92459333065E+02  0.00000000000E+00 0.  1.
</event>
<event>
12    1  0.8358445E-002  0.1892710E+03  0.7818608E-02  0.1159167E+00
         21   -1    0    0  503  502  0.00000000000E+00  0.00000000000E+00  0.16530097936E+03  0.16530097936E+03  0.00000000000E+00 0. -1.
         21   -1    0    0  501  503 -0.00000000000E+00 -0.00000000000E+00 -0.40295023310E+03  0.40295023310E+03  0.00000000000E+00 0.  1.
          6    2    1    2  501    0  0.78495147479E+02 -0.32990501143E+01 -0.31213817335E+03  0.36503937768E+03  0.17219505244E+03 0.  0.
         24    2    3    3    0    0  0.17088185008E+02 -0.58795237866E+02 -0.21468072793E+03  0.23709139777E+03  0.79847541536E+02 0.  0.
         -6    2    1    2    0  502 -0.78495147479E+02  0.32990501143E+01  0.74488919616E+02  0.20321183477E+03  0.17197115670E+03 0.  0.
        -24    2    5    5    0    0 -0.41342517287E+02 -0.90226583826E+01  0.11533480049E+03  0.14644372387E+03  0.79705934268E+02 0.  0.
          5    1    3    3  501    0  0.61406962470E+02  0.55496187752E+02 -0.97457445420E+02  0.12794797991E+03  0.47000000000E+01 0. -1.
        -11    1    4    4    0    0 -0.25982387451E+02 -0.49732505502E+02 -0.13185553002E+03  0.14329789725E+03  0.00000000000E+00 0.  1.
         12    1    4    4    0    0  0.43070572459E+02 -0.90627323640E+01 -0.82825197919E+02  0.93793500522E+02  0.00000000000E+00 0. -1.
         -5    1    5    5    0  502 -0.37152630191E+02  0.12321708497E+02 -0.40845880876E+02  0.56768110899E+02  0.47000000000E+01 0.  1.
         11    1    6    6    0    0  0.12038279315E+02  0.31718373590E+01  0.80697420807E+02  0.81652032712E+02  0.00000000000E+00 0. -1.
        -12    1    6    6    0    0 -0.53380796602E+02 -0.12194495742E+02  0.34637379686E+02  0.64791691163E+02  0.00000000000E+00 0.  1.
</event>
<event>
12    1  0.8358445E-002  0.1910043E+03  0.7818608E-02  0.1157699E+00
         21   -1    0    0  501  502  0.00000000000E+00  0.00000000000E+00  0.74338718354E+03  0.74338718354E+03  0.00000000000E+00 0.  1.
         21   -1    0    0  502  503 -0.00000000000E+00 -0.00000000000E+00 -0.97570873385E+02  0.97570873385E+02  0.00000000000E+00 0.  1.
         -6    2    1    2    0  503 -0.59953093704E+02  0.58549954104E+02  0.26246473124E+02  0.19279912948E+03  0.17163961199E+03 0.  0.
        -24    2    3    3    0    0 -0.98189531039E+02  0.75525090762E+02  0.36694323715E+02  0.14942369880E+03  0.75071599353E+02 0.  0.
          6    2    1    2  501    0  0.59953093704E+02 -0.58549954104E+02  0.61956983703E+03  0.64815892745E+03  0.17094075495E+03 0.  0.
         24    2    5    5    0    0  0.49017677180E+02  0.26933022574E+01  0.49581376125E+03  0.50956608465E+03  0.10684719098E+03 0.  0.
          5    1    5    5  501    0  0.10935416524E+02 -0.61243256361E+02  0.12375607578E+03  0.13859284280E+03  0.47000000000E+01 0. -1.
        -13    1    6    6    0    0 -0.13145331299E+01  0.44067743832E+02  0.29937545137E+03  0.30260428769E+03  0.00000000000E+00 0.  1.
         14    1    6    6    0    0  0.50332210310E+02 -0.41374441575E+02  0.19643830988E+03  0.20696179696E+03  0.00000000000E+00 0. -1.
         -5    1    3    3    0  503  0.38236437335E+02 -0.16975136658E+02 -0.10447850591E+02  0.43375430679E+02  0.47000000000E+01 0.  1.
         11    1    4    4    0    0  0.36970294311E+01 -0.10714317950E+02  0.20694376377E+01  0.11521597454E+02  0.00000000000E+00 0. -1.
        -12    1    4    4    0    0 -0.10188656047E+03  0.86239408712E+02  0.34624886078E+02  0.13790210134E+03  0.00000000000E+00 0.  1.
</event>
<event>
12    1  0.8358445E-002  0.1911363E+03  0.7818608E-02  0.1157448E+00
         21   -1    0    0  503  502  0.00000000000E+00  0.00000000000E+00  0.41548950547E+03  0.41548950547E+03  0.00000000000E+00 0.  1.
         21   -1    0    0  501  503 -0.00000000000E+00 -0.00000000000E+00 -0.10228152344E+03  0.10228152344E+03  0.00000000000E+00 0.  1.
          6    2    1    2  501    0  0.33925054988E+02 -0.76315117445E+02  0.59556585477E+02  0.20016729377E+03  0.17188674212E+03 0.  0.
         24    2    3    3    0    0 -0.25150981999E+01 -0.11401522646E+03  0.32402495550E+02  0.14093370884E+03  0.76200990719E+02 0.  0.
         -6    2    1    2    0  502 -0.33925054988E+02  0.76315117445E+02  0.25365139655E+03  0.31760373515E+03  0.17192496939E+03 0.  0.
        -24    2    5    5    0    0 -0.59848198053E+02  0.50625105821E+02  0.73772530687E+02  0.13399958914E+03  0.79804733302E+02 0.  0.
          5    1    3    3  501    0  0.36440153188E+02  0.37700109014E+02  0.27154089927E+02  0.59233584931E+02  0.47000000000E+01 0. -1.
        -11    1    4    4    0    0 -0.33509847948E+02 -0.36030338204E+02  0.28635809771E+02  0.56930701575E+02  0.00000000000E+00 0.  1.
         12    1    4    4    0    0  0.30994749748E+02 -0.77984888255E+02  0.37666857796E+01  0.84003007266E+02  0.00000000000E+00 0. -1.
         -5    1    5    5    0  502  0.25923143064E+02  0.25690011624E+02  0.17987886587E+03  0.18360414600E+03  0.47000000000E+01 0.  1.
         13    1    6    6    0    0 -0.78965487755E+01 -0.16238630359E+02  0.38013590611E+02  0.42084221148E+02  0.00000000000E+00 0. -1.
        -14    1    6    6    0    0 -0.51951649277E+02  0.66863736179E+02  0.35758940075E+02  0.91915367996E+02  0.00000000000E+00 0.  1.
</event>
<event>
12    1  0.8358445E-002  0.2997906E+03  0.7818608E-02  0.1085471E+00
         21   -1    0    0  503  502  0.00000000000E+00  0.00000000000E+00  0.20234496827E+04  0.20234496827E+04  0.00000000000E+00 0.  1.
         21   -1    0    0  501  503 -0.00000000000E+00 -0.00000000000E+00 -0.79560898390E+02  0.79560898390E+02  0.00000000000E+00 0. -1.
          6    2    1    2  501    0  0.18471994701E+03  0.16128295988E+03  0.27251817766E+03  0.40514264528E+03  0.17245507792E+03 0.  0.
         24    2    3    3    0    0  0.11959144056E+03  0.35315108705E+02  0.19214496660E+03  0.24207344237E+03  0.78298108244E+02 0.  0.
         -6    2    1    2    0  502 -0.18471994701E+03 -0.16128295988E+03  0.16713706066E+04  0.16978679358E+04  0.17071078088E+03 0.  0.
        -24    2    5    5    0    0 -0.13990895192E+03 -0.14858696334E+03  0.94904872518E+03  0.97403079663E+03  0.79936909580E+02 0.  0.
          5    1    3    3  501    0  0.65128506450E+02  0.12596785117E+03  0.80373211061E+02  0.16306920291E+03  0.47000000000E+01 0. -1.
        -11    1    4    4    0    0  0.13322320173E+02  0.16361332169E+02 -0.65728590106E+00  0.21109463041E+02  0.00000000000E+00 0.  1.
         12    1    4    4    0    0  0.10626912038E+03  0.18953776536E+02  0.19280225250E+03  0.22096397933E+03  0.00000000000E+00 0. -1.
         -5    1    5    5    0  502 -0.44810995091E+02 -0.12695996537E+02  0.72232188144E+03  0.72383713915E+03  0.47000000000E+01 0.  1.
         13    1    6    6    0    0 -0.66723183217E+02 -0.27886490850E+02  0.22448482539E+03  0.23584545021E+03  0.00000000000E+00 0. -1.
        -14    1    6    6    0    0 -0.73185768698E+02 -0.12070047249E+03  0.72456389979E+03  0.73818534643E+03  0.00000000000E+00 0.  1.
</event>
<event>
12    1  0.8358445E-002  0.2001051E+03  0.7818608E-02  0.1150103E+00
         21   -1    0    0  503  502  0.00000000000E+00  0.00000000000E+00  0.10553404042E+03  0.10553404042E+03  0.00000000000E+00 0.  1.
         21   -1    0    0  501  503 -0.00000000000E+00 -0.00000000000E+00 -0.46080252705E+03  0.46080252705E+03  0.00000000000E+00 0.  1.
          6    2    1    2  501    0 -0.98173910383E+02  0.17565954141E+01 -0.30032536584E+03  0.36088413237E+03  0.17435833598E+03 0.  0.
         24    2    3    3    0    0 -0.57235016350E+02  0.60351211207E+02 -0.12622969221E+03  0.17262708571E+03  0.83355022243E+02 0.  0.
         -6    2    1    2    0  502  0.98173910383E+02 -0.17565954141E+01 -0.54943120798E+02  0.20545243510E+03  0.17190332824E+03 0.  0.
        -24    2    5    5    0    0  0.40251617343E+02  0.15618286870E+02 -0.95963928854E+02  0.13222897398E+03  0.80070608434E+02 0.  0.
          5    1    3    3  501    0 -0.40938894034E+02 -0.58594615793E+02 -0.17409567362E+03  0.18825704666E+03  0.47000000000E+01 0. -1.
        -13    1    4    4    0    0 -0.11945724970E+02 -0.20731629914E+02 -0.35347991599E+02  0.42684673292E+02  0.00000000000E+00 0.  1.
         14    1    4    4    0    0 -0.45289291379E+02  0.81082841121E+02 -0.90881700616E+02  0.12994241242E+03  0.00000000000E+00 0. -1.
         -5    1    5    5    0  502  0.57922293040E+02 -0.17374882284E+02  0.41020808056E+02  0.73223461124E+02  0.47000000000E+01 0.  1.
         11    1    6    6    0    0 -0.18007299112E+02 -0.42642543382E+01 -0.34530558693E+00  0.18508536471E+02  0.00000000000E+00 0. -1.
        -12    1    6    6    0    0  0.58258916455E+02  0.19882541208E+02 -0.95618623267E+02  0.11372043751E+03  0.00000000000E+00 0.  1.
</event>
<event>
12    1  0.8358445E-002  0.1794728E+03  0.7818608E-02  0.1169080E+00
         21   -1    0    0  501  502  0.00000000000E+00  0.00000000000E+00  0.65544927981E+02  0.65544927981E+02  0.00000000000E+00 0.  1.
         21   -1    0    0  502  503 -0.00000000000E+00 -0.00000000000E+00 -0.81446791748E+03  0.81446791748E+03  0.00000000000E+00 0.  1.
         -6    2    1    2    0  503 -0.16175663845E+02 -0.39186828091E+02 -0.65714444932E+03  0.68121163836E+03  0.17439383410E+03 0.  0.
        -24    2    3    3    0    0  0.50615388355E+02  0.95949647591E+01 -0.32966776925E+03  0.34341913703E+03  0.81251982796E+02 0.  0.
          6    2    1    2  501    0  0.16175663845E+02  0.39186828091E+02 -0.91778540174E+02  0.19880120709E+03  0.17117639998E+03 0.  0.
         24    2    5    5    0    0  0.63592654710E+02 -0.13715620231E+02 -0.38027508432E+02  0.10959188317E+03  0.79574779224E+02 0.  0.
          5    1    5    5  501    0 -0.47416990864E+02  0.52902448322E+02 -0.53751031741E+02  0.89209323920E+02  0.47000000000E+01 0. -1.
        -13    1    6    6    0    0  0.37347164384E+02  0.32041430551E+02 -0.25287027812E+02  0.55325380566E+02  0.00000000000E+00 0.  1.
         14    1    6    6    0    0  0.26245490326E+02 -0.45757050782E+02 -0.12740480621E+02  0.54266502607E+02  0.00000000000E+00 0. -1.
         -5    1    3    3    0  503 -0.66791052201E+02 -0.48781792850E+02 -0.32747668007E+03  0.33779250134E+03  0.47000000000E+01 0.  1.
         13    1    4    4    0    0  0.45231431001E+02  0.40644556324E+02 -0.16699716424E+03  0.17772426726E+03  0.00000000000E+00 0. -1.
        -14    1    4    4    0    0  0.53839573540E+01 -0.31049591565E+02 -0.16267060501E+03  0.16569486977E+03  0.00000000000E+00 0.  1.
</event>
<event>
12    1  0.8358445E-002  0.2234556E+03  0.7818608E-02  0.1131462E+00
         21   -1    0    0  503  502  0.00000000000E+00  0.00000000000E+00  0.77312646334E+02  0.77312646334E+02  0.00000000000E+00 0. -1.
         21   -1    0    0  501  503 -0.00000000000E+00 -0.00000000000E+00 -0.77563574740E+03  0.77563574740E+03  0.00000000000E+00 0. -1.
          6    2    1    2  501    0  0.38123261423E+02  0.13648176100E+03 -0.52544335528E+03  0.57098436337E+03  0.17277664616E+03 0.  0.
         24    2    3    3    0    0 -0.49681779288E+01  0.12995971974E+03 -0.27424212275E+03  0.31598719007E+03  0.87891699537E+02 0.  0.
         -6    2    1    2    0  502 -0.38123261423E+02 -0.13648176100E+03 -0.17287974579E+03  0.28196403037E+03  0.17185940117E+03 0.  0.
        -24    2    5    5    0    0 -0.40231452284E+02 -0.40595813651E+01 -0.64528097391E+02  0.11078503680E+03  0.80463650629E+02 0.  0.
          5    1    3    3  501    0  0.43091439352E+02  0.65220412544E+01 -0.25120123253E+03  0.25499717331E+03  0.47000000000E+01 0. -1.
        -11    1    4    4    0    0 -0.29813150966E+02  0.23927382830E+02 -0.30095242100E+02  0.48652515009E+02  0.00000000000E+00 0.  1.
         12    1    4    4    0    0  0.24844973038E+02  0.10603233691E+03 -0.24414688065E+03  0.26733467506E+03  0.00000000000E+00 0. -1.
         -5    1    5    5    0  502  0.21081908617E+01 -0.13242217963E+03 -0.10835164839E+03  0.17117899356E+03  0.47000000000E+01 0.  1.
         11    1    6    6    0    0 -0.26759803645E+02 -0.78846143986E+01  0.13863729259E+02  0.31152162434E+02  0.00000000000E+00 0. -1.
        -12    1    6    6    0    0 -0.13471648639E+02  0.38250330335E+01 -0.78391826649E+02  0.79632874368E+02  0.00000000000E+00 0.  1.
</event>
<event>
12    1  0.8358445E-002  0.1885025E+03  0.7818608E-02  0.1160328E+00
         21   -1    0    0  501  502  0.00000000000E+00  0.00000000000E+00  0.58115747588E+03  0.58115747588E+03  0.00000000000E+00 0.  1.
         21   -1    0    0  502  503 -0.00000000000E+00 -0.00000000000E+00 -0.60554594225E+02  0.60554594225E+02  0.00000000000E+00 0.  1.
         -6    2    1    2    0  503  0.54414185269E+02 -0.48029587499E+02  0.24382678881E+03  0.30684165907E+03  0.17155919086E+03 0.  0.
        -24    2    3    3    0    0  0.51065252258E+02  0.20901733626E+01  0.87618317987E+02  0.14268812686E+03  0.10035388925E+03 0.  0.
          6    2    1    2  501    0 -0.54414185269E+02  0.48029587499E+02  0.27677609284E+03  0.33487041103E+03  0.17396965765E+03 0.  0.
         24    2    5    5    0    0 -0.13898204903E+02 -0.15557232831E+02  0.23438213777E+03  0.24824382267E+03  0.79087428805E+02 0.  0.
          5    1    5    5  501    0 -0.40515980366E+02  0.63586820330E+02  0.42393955073E+02  0.86626588363E+02  0.47000000000E+01 0. -1.
        -13    1    6    6    0    0 -0.26605885353E+00  0.27610378981E+02  0.14966122703E+03  0.15218701223E+03  0.00000000000E+00 0.  1.
         14    1    6    6    0    0 -0.13632146050E+02 -0.43167611812E+02  0.84720910739E+02  0.96056810440E+02  0.00000000000E+00 0. -1.
         -5    1    3    3    0  503  0.33489330111E+01 -0.50119760861E+02  0.15620847083E+03  0.16415353222E+03  0.47000000000E+01 0.  1.
         11    1    4    4    0    0  0.27327461883E+02  0.46644796522E+02  0.71615000514E+02  0.89728677212E+02  0.00000000000E+00 0. -1.
        -12    1    4    4    0    0  0.23737790375E+02 -0.44554623160E+02  0.16003317473E+02  0.52959449647E+02  0.00000000000E+00 0.  1.
</event>
<event>
12    1  0.8358445E-002  0.2721083E+03  0.7818608E-02  0.1100114E+00
         21   -1    0    0  501  502  0.00000000000E+00  0.00000000000E+00  0.86095050521E+02  0.86095050521E+02  0.00000000000E+00 0.  1.
         21   -1    0    0  502  503 -0.00000000000E+00 -0.00000000000E+00 -0.86235651401E+03  0.86235651401E+03  0.00000000000E+00 0.  1.
         -6    2    1    2    0  503 -0.34014963245E+02 -0.20837363452E+03 -0.41683530474E+03  0.49778973324E+03  0.17165767664E+03 0.  0.
        -24    2    3    3    0    0  0.61344998218E+01 -0.14997709595E+03 -0.38541482307E+03  0.42012718261E+03  0.73698726791E+02 0.  0.
          6    2    1    2  501    0  0.34014963245E+02  0.20837363452E+03 -0.35942615874E+03  0.45066183129E+03  0.17126684824E+03 0.  0.
         24    2    5    5    0    0  0.70238412520E+02  0.20720311603E+03 -0.28852924632E+03  0.37089986929E+03  0.80318249315E+02 0.  0.
          5    1    5    5  501    0 -0.36223449275E+02  0.11705184923E+01 -0.70896912425E+02  0.79761962001E+02  0.47000000000E+01 0. -1.
        -13    1    6    6    0    0  0.66241995664E+02  0.12749724007E+03 -0.13157687344E+03  0.19482305264E+03  0.00000000000E+00 0.  1.
         14    1    6    6    0    0  0.39964168561E+01  0.79705875955E+02 -0.15695237288E+03  0.17607681665E+03  0.00000000000E+00 0. -1.
         -5    1    3    3    0  503 -0.40149463067E+02 -0.58396538566E+02 -0.31420481676E+02  0.77662550626E+02  0.47000000000E+01 0.  1.
         11    1    4    4    0    0  0.10863599347E+01  0.72829234261E+01 -0.64182226278E+01  0.97680465416E+01  0.00000000000E+00 0. -1.
        -12    1    4    4    0    0  0.50481398871E+01 -0.15726001938E+03 -0.37899660044E+03  0.41035913607E+03  0.00000000000E+00 0.  1.
</event>
<event>
12    1  0.8358445E-002  0.2469379E+03  0.7818608E-02  0.1115404E+00
         21   -1    0    0  503  502  0.00000000000E+00  0.00000000000E+00  0.10172397515E+03  0.10172397515E+03  0.00000000000E+00 0. -1.
         21   -1    0    0  501  503 -0.00000000000E+00 -0.00000000000E+00 -0.74587691794E+03  0.74587691794E+03  0.00000000000E+00 0.  1.
          6    2    1    2  501    0 -0.97991661100E+02 -0.14328336287E+03 -0.51176930869E+03  0.56823070534E+03  0.17562978521E+03 0.  0.
         24    2    3    3    0    0 -0.12322332262E+03 -0.80917239328E+02 -0.27507591193E+03  0.32211686140E+03  0.79755427517E+02 0.  0.
         -6    2    1    2    0  502  0.97991661100E+02  0.14328336287E+03 -0.13238363410E+03  0.27937018775E+03  0.17432666895E+03 0.  0.
        -24    2    5    5    0    0  0.11386593174E+03  0.47652767804E+02 -0.62295544762E+02  0.15965538730E+03  0.79830264340E+02 0.  0.
          5    1    3    3  501    0  0.25231661516E+02 -0.62366123540E+02 -0.23669339676E+03  0.24611384394E+03  0.47000000000E+01 0. -1.
        -13    1    4    4    0    0 -0.14893702587E+02 -0.47576009811E+02 -0.52837190766E+02  0.72643429258E+02  0.00000000000E+00 0.  1.
         14    1    4    4    0    0 -0.10832962003E+03 -0.33341229517E+02 -0.22223872116E+03  0.24947343214E+03  0.00000000000E+00 0. -1.
         -5    1    5    5    0  502 -0.15874270641E+02  0.95630595064E+02 -0.70088089341E+02  0.11971480046E+03  0.47000000000E+01 0.  1.
         11    1    6    6    0    0  0.99824589677E+02  0.65213223392E+02 -0.66872815592E+02  0.13671022886E+03  0.00000000000E+00 0. -1.
        -12    1    6    6    0    0  0.14041342065E+02 -0.17560455588E+02  0.45772708304E+01  0.22945158437E+02  0.00000000000E+00 0.  1.
</event>
<event>
12    1  0.8358445E-002  0.1880650E+03  0.7818608E-02  0.1160712E+00
         21   -1    0    0  503  502  0.00000000000E+00  0.00000000000E+00  0.73040948962E+03  0.73040948962E+03  0.00000000000E+00 0. -1.
         21   -1    0    0  501  503 -0.00000000000E+00 -0.00000000000E+00 -0.54218706894E+02  0.54218706894E+02  0.00000000000E+00 0. -1.
          6    2    1    2  501    0 -0.34631517376E+02  0.65689612980E+02  0.47060997571E+03  0.50600312545E+03  0.17044338202E+03 0.  0.
         24    2    3    3    0    0 -0.20369350161E+02  0.67111192222E+02  0.14108173900E+03  0.17612984813E+03  0.78732736357E+02 0.  0.
         -6    2    1    2    0  502  0.34631517376E+02 -0.65689612980E+02  0.20558080701E+03  0.27862507106E+03  0.17278308587E+03 0.  0.
        -24    2    5    5    0    0  0.28743767671E+02 -0.10440743445E+03  0.10786089613E+03  0.17324477746E+03  0.81563861215E+02 0.  0.
          5    1    3    3  501    0 -0.14262167215E+02 -0.14215792415E+01  0.32952823671E+03  0.32987327732E+03  0.47000000000E+01 0. -1.
        -11    1    4    4    0    0  0.15800718942E+02 -0.89025292754E+01  0.44251378631E+02  0.47823657925E+02  0.00000000000E+00 0.  1.
         12    1    4    4    0    0 -0.36170069103E+02  0.76013721497E+02  0.96830360371E+02  0.12830619020E+03  0.00000000000E+00 0. -1.
         -5    1    5    5    0  502  0.58877497053E+01  0.38717821470E+02  0.97719910886E+02  0.10538029360E+03  0.47000000000E+01 0.  1.
         11    1    6    6    0    0  0.68810417024E+01 -0.10610371462E+01  0.54417851742E+02  0.54861435663E+02  0.00000000000E+00 0. -1.
        -12    1    6    6    0    0  0.21862725968E+02 -0.10334639730E+03  0.53443044384E+02  0.11838334180E+03  0.00000000000E+00 0.  1.
</event>
<event>
12    1  0.8358445E-002  0.2073982E+03  0.7818608E-02  0.1144011E+00
         21   -1    0    0  503  502  0.00000000000E+00  0.00000000000E+00  0.45530720901E+03  0.45530720901E+03  0.00000000000E+00 0.  1.
         21   -1    0    0  501  503 -0.00000000000E+00 -0.00000000000E+00 -0.93722174566E+02  0.93722174566E+02  0.00000000000E+00 0. -1.
          6    2    1    2  501    0 -0.76103044708E+02 -0.83848331070E+02  0.18789627997E+03  0.27850800795E+03  0.17157937646E+03 0.  0.
         24    2    3    3    0    0 -0.74479442556E+02  0.95359628281E+01  0.12358805139E+03  0.16501395218E+03  0.79482551653E+02 0.  0.
         -6    2    1    2    0  502  0.76103044708E+02  0.83848331070E+02  0.17368875447E+03  0.27052137563E+03  0.17375792128E+03 0.  0.
        -24    2    5    5    0    0 -0.17736991107E+02  0.10572590943E+02  0.39710502944E+02  0.91224001709E+02  0.79489080451E+02 0.  0.
          5    1    3    3  501    0 -0.16236021521E+01 -0.93384293899E+02  0.64308228586E+02  0.11349405577E+03  0.47000000000E+01 0. -1.
        -11    1    4    4    0    0 -0.53804524633E+02 -0.23335072307E+02  0.35020406329E+02  0.68307256788E+02  0.00000000000E+00 0.  1.
         12    1    4    4    0    0 -0.20674917923E+02  0.32871035135E+02  0.88567645059E+02  0.96706695390E+02  0.00000000000E+00 0. -1.
         -5    1    5    5    0  502  0.93840035815E+02  0.73275740127E+02  0.13397825153E+03  0.17929737392E+03  0.47000000000E+01 0.  1.
         11    1    6    6    0    0  0.88917157452E+01  0.30063710881E+02 -0.87913587975E+01  0.32560364100E+02  0.00000000000E+00 0. -1.
        -12    1    6    6    0    0 -0.26628706852E+02 -0.19491119938E+02  0.48501861742E+02  0.58663637609E+02  0.00000000000E+00 0.  1.
</event>
<event>
12    1  0.8358445E-002  0.2305803E+03  0.7818608E-02  0.1126252E+00
         21   -1    0    0  503  502  0.00000000000E+00  0.00000000000E+00  0.21425604125E+03  0.21425604125E+03  0.00000000000E+00 0. -1.
         21   -1    0    0  501  503 -0.00000000000E+00 -0.00000000000E+00 -0.26292715502E+03  0.26292715502E+03  0.00000000000E+00 0. -1.
          6    2    1    2  501    0  0.79598968142E+02  0.13076926147E+03 -0.81127980229E+02  0.24432973023E+03  0.17227499071E+03 0.  0.
         24    2    3    3    0    0  0.36335174583E+02  0.12321184216E+03  0.58330720273E+00  0.15144434434E+03  0.80210013241E+02 0.  0.
         -6    2    1    2    0  502 -0.79598968142E+02 -0.13076926147E+03  0.32456866461E+02  0.23285346604E+03  0.17242590580E+03 0.  0.
        -24    2    5    5    0    0 -0.39702868703E+02 -0.10131589275E+03 -0.44089642567E+02  0.14152626459E+03  0.79022522627E+02 0.  0.
          5    1    3    3  501    0  0.43263793559E+02  0.75574193136E+01 -0.81711287432E+02  0.92885385899E+02  0.47000000000E+01 0. -1.
        -11    1    4    4    0    0  0.29094038750E+02  0.10703723033E+03 -0.31050453263E+02  0.11518490533E+03  0.00000000000E+00 0.  1.
         12    1    4    4    0    0  0.72411358327E+01  0.16174611827E+02  0.31633760466E+02  0.36259439007E+02  0.00000000000E+00 0. -1.
         -5    1    5    5    0  502 -0.39896099438E+02 -0.29453368726E+02  0.76546509028E+02  0.91327201447E+02  0.47000000000E+01 0.  1.
         13    1    6    6    0    0 -0.60699492252E+02 -0.50770010185E+02 -0.19367404624E+02  0.81468513278E+02  0.00000000000E+00 0. -1.
        -14    1    6    6    0    0  0.20996623549E+02 -0.50545882561E+02 -0.24722237943E+02  0.60057751317E+02  0.00000000000E+00 0.  1.
</event>
<event>
12    1  0.8358445E-002  0.2654355E+03  0.7818608E-02  0.1104026E+00
         21   -1    0    0  503  502  0.00000000000E+00  0.00000000000E+00  0.49720213145E+02  0.49720213145E+02  0.00000000000E+00 0. -1.
         21   -1    0    0  501  503 -0.00000000000E+00 -0.00000000000E+00 -0.15166751821E+04  0.15166751821E+04  0.00000000000E+00 0.  1.
          6    2    1    2  501    0  0.13200756380E+03 -0.15268410778E+03 -0.93897313237E+03  0.97576971902E+03  0.17238784059E+03 0.  0.
         24    2    3    3    0    0  0.34207866129E+02 -0.85600449054E+02 -0.67939437961E+03  0.69034334145E+03  0.80620041265E+02 0.  0.
         -6    2    1    2    0  502 -0.13200756380E+03  0.15268410778E+03 -0.52798183657E+03  0.59062567621E+03  0.17127590601E+03 0.  0.
        -24    2    5    5    0    0 -0.11437277544E+03  0.14389106891E+03 -0.29445546440E+03  0.35622226370E+03  0.80028177355E+02 0.  0.
          5    1    3    3  501    0  0.97799697667E+02 -0.67083658724E+02 -0.25957875276E+03  0.28542637757E+03  0.47000000000E+01 0. -1.
        -13    1    4    4    0    0  0.67086073446E+01 -0.55689334253E+02 -0.16355364436E+03  0.17290489277E+03  0.00000000000E+00 0.  1.
         14    1    4    4    0    0  0.27499258784E+02 -0.29911114800E+02 -0.51584073526E+03  0.51743844868E+03  0.00000000000E+00 0. -1.
         -5    1    5    5    0  502 -0.17634788351E+02  0.87930388720E+01 -0.23352637218E+03  0.23440341251E+03  0.47000000000E+01 0.  1.
         11    1    6    6    0    0 -0.10253992166E+03  0.14482519087E+03 -0.29509025281E+03  0.34433563387E+03  0.00000000000E+00 0. -1.
        -12    1    6    6    0    0 -0.11832853787E+02 -0.93412196877E+00  0.63478841310E+00  0.11886629838E+02  0.00000000000E+00 0.  1.
</event>
<event>
12    1  0.8358445E-002  0.2715182E+03  0.7818608E-02  0.1100439E+00
         21   -1    0    0  503  502  0.00000000000E+00  0.00000000000E+00  0.64605026482E+02  0.64605026482E+02  0.00000000000E+00 0. -1.
         21   -1    0    0  501  503 -0.00000000000E+00 -0.00000000000E+00 -0.18311525982E+04  0.18311525982E+04  0.00000000000E+00 0. -1.
          6    2    1    2  501    0  0.19382765329E+03 -0.81727578627E+02 -0.14652775062E+04  0.14901891487E+04  0.17139711863E+03 0.  0.
         24    2    3    3    0    0  0.13889288286E+03 -0.10083666766E+03 -0.81731795033E+03  0.83960736107E+03  0.86444331041E+02 0.  0.
         -6    2    1    2    0  502 -0.19382765329E+03  0.81727578627E+02 -0.30127006548E+03  0.40556847600E+03  0.17167871179E+03 0.  0.
        -24    2    5    5    0    0 -0.38008753955E+02 -0.43093749672E+01 -0.65996864839E+02  0.11051347144E+03  0.79965024307E+02 0.  0.
          5    1    3    3  501    0  0.54934770428E+02  0.19109089034E+02 -0.64795955590E+03  0.65058178760E+03  0.47000000000E+01 0. -1.
        -11    1    4    4    0    0  0.17854729040E+02  0.12404796066E+02 -0.48891807290E+02  0.53507748361E+02  0.00000000000E+00 0.  1.
         12    1    4    4    0    0  0.12103815382E+03 -0.11324146373E+03 -0.76842614304E+03  0.78609961271E+03  0.00000000000E+00 0. -1.
         -5    1    5    5    0  502 -0.15581889933E+03  0.86036953594E+02 -0.23527320064E+03  0.29505500455E+03  0.47000000000E+01 0.  1.
         13    1    6    6    0    0 -0.57488308153E+02  0.50875568395E+01 -0.22513990017E+02  0.61948918920E+02  0.00000000000E+00 0. -1.
        -14    1    6    6    0    0  0.19479554198E+02 -0.93969318067E+01 -0.43482874822E+02  0.48564552525E+02  0.00000000000E+00 0.  1.
</event>
<event>
12    1  0.8358445E-002  0.1864854E+03  0.7818608E-02  0.1161938E+00
         21   -1    0    0  503  502  0.00000000000E+00  0.00000000000E+00  0.42801986279E+03  0.42801986279E+03  0.00000000000E+00 0.  1.
         21   -1    0    0  501  503 -0.00000000000E+00 -0.00000000000E+00 -0.16273124161E+03  0.16273124161E+03  0.00000000000E+00 0.  1.
          6    2    1    2  501    0  0.62636190944E+02  0.25360545155E+02 -0.76804285542E+02  0.20168217717E+03  0.17381125580E+03 0.  0.
         24    2    3    3    0    0  0.10926614345E+03  0.16711990138E+02 -0.70638327719E+02  0.15362742703E+03  0.79957690515E+02 0.  0.
         -6    2    1    2    0  502 -0.62636190944E+02 -0.25360545155E+02  0.34209290672E+03  0.38906892723E+03  0.17257063377E+03 0.  0.
        -24    2    5    5    0    0  0.91099439752E+01 -0.55918760087E+02  0.25299022633E+03  0.27056707059E+03  0.77411796624E+02 0.  0.
          5    1    3    3  501    0 -0.46629952510E+02  0.86485550167E+01 -0.61659578232E+01  0.48054750139E+02  0.47000000000E+01 0. -1.
        -13    1    4    4    0    0  0.30142189924E+02 -0.29209928346E+02 -0.79348889663E+01  0.42716905205E+02  0.00000000000E+00 0.  1.
         14    1    4    4    0    0  0.79123953530E+02  0.45921918485E+02 -0.62703438753E+02  0.11091052182E+03  0.00000000000E+00 0. -1.
         -5    1    5    5    0  502 -0.71746134919E+02  0.30558214932E+02  0.89102680388E+02  0.11850185664E+03  0.47000000000E+01 0.  1.
         13    1    6    6    0    0 -0.36495629734E+01 -0.54854331398E+02  0.79798009300E+02  0.96902214997E+02  0.00000000000E+00 0. -1.
        -14    1    6    6    0    0  0.12759506949E+02 -0.10644286887E+01  0.17319221703E+03  0.17366485559E+03  0.00000000000E+00 0.  1.
</event>
<event>
12    1  0.8358445E-002  0.2364651E+03  0.7818608E-02  0.1122444E+00
         21   -1    0    0  501  502  0.00000000000E+00  0.00000000000E+00  0.34124767211E+03  0.34124767211E+03  0.00000000000E+00 0. -1.
         21   -1    0    0  502  503 -0.00000000000E+00 -0.00000000000E+00 -0.16311834253E+03  0.16311834253E+03  0.00000000000E+00 0.  1.
         -6    2    1    2    0  503  0.34139302993E+02  0.15593083522E+03  0.76707581442E+02  0.24706831433E+03  0.17227530733E+03 0.  0.
        -24    2    3    3    0    0  0.64629600359E+02  0.52587742480E+02  0.71881677731E+02  0.13911076528E+03  0.85102135822E+02 0.  0.
          6    2    1    2  501    0 -0.34139302993E+02 -0.15593083522E+03  0.10142174814E+03  0.25729770031E+03  0.17445864326E+03 0.  0.
         24    2    5    5    0    0  0.34212327035E+02 -0.12859001083E+03  0.38172094134E+02  0.16012736154E+03  0.80484712429E+02 0.  0.
          5    1    5    5  501    0 -0.68351630028E+02 -0.27340824386E+02  0.63249654005E+02  0.97170338774E+02  0.47000000000E+01 0. -1.
        -13    1    6    6    0    0 -0.79012500733E+01 -0.81426863927E+02 -0.74643776866E+01  0.82149137889E+02  0.00000000000E+00 0.  1.
         14    1    6    6    0    0  0.42113577109E+02 -0.47163146907E+02  0.45636471821E+02  0.77978223648E+02  0.00000000000E+00 0. -1.
         -5    1    3    3    0  503 -0.30490297367E+02  0.10334309274E+03  0.48259037108E+01  0.10795754905E+03  0.47000000000E+01 0.  1.
         11    1    4    4    0    0  0.48575343589E+02  0.71079380548E+02  0.75310916158E+02  0.11438346225E+03  0.00000000000E+00 0. -1.
        -12    1    4    4    0    0  0.16054256771E+02 -0.18491638068E+02 -0.34292384270E+01  0.24727303029E+02  0.00000000000E+00 0.  1.
</event>
<event>
12    1  0.8358445E-002  0.1893115E+03  0.7818608E-02  0.1159562E+00
         21   -1    0    0  501  502  0.00000000000E+00  0.00000000000E+00  0.83919283409E+02  0.83919283409E+02  0.00000000000E+00 0. -1.
         21   -1    0    0  502  503 -0.00000000000E+00 -0.00000000000E+00 -0.62193667433E+03  0.62193667433E+03  0.00000000000E+00 0. -1.
         -6    2    1    2    0  503  0.67079246804E+02  0.30178033037E+02 -0.46792364853E+03  0.50398478794E+03  0.17215628536E+03 0.  0.
        -24    2    3    3    0    0 -0.43437120370E+01 -0.37201153665E+02 -0.22010048441E+03  0.23737720267E+03  0.80628279402E+02 0.  0.
          6    2    1    2  501    0 -0.67079246804E+02 -0.30178033037E+02 -0.70093742386E+02  0.20187116980E+03  0.17443766062E+03 0.  0.
         24    2    5    5    0    0  0.29728813516E+00 -0.25336757603E+02 -0.10018415682E+03  0.12777286719E+03  0.75146527836E+02 0.  0.
          5    1    5    5  501    0 -0.67376534940E+02 -0.48412754334E+01  0.30090414435E+02  0.74098302606E+02  0.47000000000E+01 0. -1.
        -13    1    6    6    0    0  0.25155911965E+02  0.16720651727E+02 -0.43204582511E+02  0.52716563345E+02  0.00000000000E+00 0.  1.
         14    1    6    6    0    0 -0.24858623830E+02 -0.42057409330E+02 -0.56979574310E+02  0.75056303844E+02  0.00000000000E+00 0. -1.
         -5    1    3    3    0  503  0.71422958841E+02  0.67379186702E+02 -0.24782316412E+03  0.26660758527E+03  0.47000000000E+01 0.  1.
         11    1    4    4    0    0  0.24055793348E+02  0.73620057185E+01 -0.13409863976E+03  0.13643799144E+03  0.00000000000E+00 0. -1.
        -12    1    4    4    0    0 -0.28399505385E+02 -0.44563159384E+02 -0.86001844655E+02  0.10093921123E+03  0.00000000000E+00 0.  1.
</event>
<event>
12    1  0.8358445E-002  0.2467031E+03  0.7818608E-02  0.1115510E+00
         21   -1    0    0  501  502  0.00000000000E+00  0.00000000000E+00  0.80481962814E+03  0.80481962814E+03  0.00000000000E+00 0.  1.
         21   -1    0    0  502  503 -0.00000000000E+00 -0.00000000000E+00 -0.10942380624E+03  0.10942380624E+03  0.00000000000E+00 0. -1.
         -6    2    1    2    0  503 -0.14930990405E+01 -0.17600943349E+03  0.93207876624E+02  0.26372354582E+03  0.17286078310E+03 0.  0.
        -24    2    3    3    0    0 -0.35002074848E+02 -0.31131654054E+02  0.63119703397E+02  0.11193484202E+03  0.79693078573E+02 0.  0.
          6    2    1    2  501    0  0.14930990405E+01  0.17600943349E+03  0.60218794528E+03  0.65051988856E+03  0.17194258910E+03 0.  0.
         24    2    5    5    0    0 -0.51379830424E+02  0.12632985867E+03  0.28811967316E+03  0.32814653920E+03  0.77897913710E+02 0.  0.
          5    1    5    5  501    0  0.52872929464E+02  0.49679574824E+02  0.31406827212E+03  0.32237334936E+03  0.47000000000E+01 0. -1.
        -13    1    6    6    0    0 -0.42338226510E+02  0.47052221313E+02  0.19754747085E+03  0.20744020872E+03  0.00000000000E+00 0.  1.
         14    1    6    6    0    0 -0.90416039141E+01  0.79277637356E+02  0.90572202306E+02  0.12070633047E+03  0.00000000000E+00 0. -1.
         -5    1    3    3    0  503  0.33508975808E+02 -0.14487777944E+03  0.30088173227E+02  0.15178870380E+03  0.47000000000E+01 0.  1.
         11    1    4    4    0    0 -0.34703900503E+02 -0.51353616103E+02  0.21398404577E+02  0.65570163302E+02  0.00000000000E+00 0. -1.
        -12    1    4    4    0    0 -0.29817434559E+00  0.20221962050E+02  0.41721298819E+02  0.46364678714E+02  0.00000000000E+00 0.  1.
</event>
<event>
12    1  0.8358445E-002  0.2532165E+03  0.7818608E-02  0.1111465E+00
         21   -1    0    0  501  502  0.00000000000E+00  0.00000000000E+00  0.41010972092E+03  0.41010972092E+03  0.00000000000E+00 0. -1.
         21   -1    0    0  502  503 -0.00000000000E+00 -0.00000000000E+00 -0.19065656471E+03  0.19065656471E+03  0.00000000000E+00 0. -1.
         -6    2    1    2    0  503 -0.71828757856E+02 -0.17040498722E+03 -0.18788862319E+02  0.25391266556E+03  0.17297800513E+03 0.  0.
        -24    2    3    3    0    0 -0.35968488408E+02 -0.18033217116E+03 -0.49973415752E+02  0.20513691053E+03  0.75963054624E+02 0.  0.
          6    2    1    2  501    0  0.71828757856E+02  0.17040498722E+03  0.23824201853E+03  0.34685362006E+03  0.17132117275E+03 0.  0.
         24    2    5    5    0    0 -0.19721126790E+02  0.54568399635E+02  0.60511030459E+02  0.11574782065E+03  0.79808145557E+02 0.  0.
          5    1    5    5  501    0  0.91549884646E+02  0.11583658759E+03  0.17773098807E+03  0.23110579941E+03  0.47000000000E+01 0. -1.
        -13    1    6    6    0    0 -0.51812332238E+01  0.50406180661E+02 -0.27088106690E+01  0.50744121647E+02  0.00000000000E+00 0.  1.
         14    1    6    6    0    0 -0.14539893566E+02  0.41622189748E+01  0.63219841128E+02  0.65003699002E+02  0.00000000000E+00 0. -1.
         -5    1    3    3    0  503 -0.35860269448E+02  0.99271839379E+01  0.31184553433E+02  0.48775755029E+02  0.47000000000E+01 0.  1.
         11    1    4    4    0    0 -0.28172597017E+02 -0.30541397986E+02 -0.35128983182E+02  0.54410639337E+02  0.00000000000E+00 0. -1.
        -12    1    4    4    0    0 -0.77958913902E+01 -0.14979077317E+03 -0.14844432570E+02  0.15072627120E+03  0.00000000000E+00 0.  1.
</event>
<event>
12    1  0.8358445E-002  0.3551858E+03  0.7818608E-02  0.1060552E+00
         21   -1    0    0  503  502  0.00000000000E+00  0.00000000000E+00  0.12259647984E+04  0.12259647984E+04  0.00000000000E+00 0.  1.
         21   -1    0    0  501  503 -0.00000000000E+00 -0.00000000000E+00 -0.37266687725E+03  0.37266687725E+03  0.00000000000E+00 0. -1.
          6    2    1    2  501    0  0.25544385221E+03 -0.17677041027E+03 -0.25350327730E+03  0.43637238342E+03  0.17221383750E+03 0.  0.
         24    2    3    3    0    0  0.83862483426E+02 -0.77158763823E+02 -0.38713533306E+02  0.14393543235E+03  0.78944791244E+02 0.  0.
         -6    2    1    2    0  502 -0.25544385221E+03  0.17677041027E+03  0.11068011985E+04  0.11622592923E+04  0.17128464580E+03 0.  0.
        -24    2    5    5    0    0 -0.23332563274E+03  0.12504354336E+03  0.10257409812E+04  0.10634780531E+04  0.93617680929E+02 0.  0.
          5    1    3    3  501    0  0.17158136878E+03 -0.99611646444E+02 -0.21478974400E+03  0.29243695106E+03  0.47000000000E+01 0. -1.
        -11    1    4    4    0    0  0.39166133526E+02  0.10224462684E+02 -0.10965969847E+02  0.41937789012E+02  0.00000000000E+00 0.  1.
         12    1    4    4    0    0  0.44696349900E+02 -0.87383226507E+02 -0.27747563459E+02  0.10199764334E+03  0.00000000000E+00 0. -1.
         -5    1    5    5    0  502 -0.22118219475E+02  0.51726866907E+02  0.81060217305E+02  0.98781239222E+02  0.47000000000E+01 0.  1.
         11    1    6    6    0    0 -0.32160926940E+02  0.49525469396E+02  0.13801475545E+03  0.15011718776E+03  0.00000000000E+00 0. -1.
        -12    1    6    6    0    0 -0.20116470580E+03  0.75518073964E+02  0.88772622575E+03  0.91336086529E+03  0.00000000000E+00 0.  1.
</event>
<event>
12    1  0.8358445E-002  0.2483609E+03  0.7818608E-02  0.1114695E+00
         21   -1    0    0  503  502  0.00000000000E+00  0.00000000000E+00  0.10612608708E+03  0.10612608708E+03  0.00000000000E+00 0. -1.
         21   -1    0    0  501  503 -0.00000000000E+00 -0.00000000000E+00 -0.57842535644E+03  0.57842535644E+03  0.00000000000E+00 0.  1.
          6    2    1    2  501    0  0.54740415930E+02  0.16693197655E+03 -0.25876396514E+03  0.35866684434E+03  0.17555716347E+03 0.  0.
         24    2    3    3    0    0  0.24305518978E+02  0.18493736088E+03 -0.17630026361E+03  0.26881792177E+03  0.79929383917E+02 0.  0.
         -6    2    1    2    0  502 -0.54740415930E+02 -0.16693197655E+03 -0.21353530423E+03  0.32588459918E+03  0.17245477059E+03 0.  0.
        -24    2    5    5    0    0 -0.40042131302E+02 -0.16318512518E+03 -0.23459882679E+03  0.29950581132E+03  0.80214488236E+02 0.  0.
          5    1    3    3  501    0  0.30434896952E+02 -0.18005384332E+02 -0.82463701531E+02  0.89848922573E+02  0.47000000000E+01 0. -1.
        -13    1    4    4    0    0 -0.84273368032E+01  0.15612134233E+01 -0.32173665066E+02  0.33295677147E+02  0.00000000000E+00 0.  1.
         14    1    4    4    0    0  0.32732855781E+02  0.18337614746E+03 -0.14412659854E+03  0.23552224462E+03  0.00000000000E+00 0. -1.
         -5    1    5    5    0  502 -0.14698284627E+02 -0.37468513658E+01  0.21063522563E+02  0.26378787859E+02  0.47000000000E+01 0.  1.
         11    1    6    6    0    0 -0.38156335998E+02 -0.45709462406E+02 -0.38503337615E+02  0.70906755234E+02  0.00000000000E+00 0. -1.
        -12    1    6    6    0    0 -0.18857953038E+01 -0.11747566278E+03 -0.19609548917E+03  0.22859905608E+03  0.00000000000E+00 0.  1.
</event>
<event>
12    1  0.8358445E-002  0.2059215E+03  0.7818608E-02  0.1144905E+00
         21   -1    0    0  503  502  0.00000000000E+00  0.00000000000E+00  0.10019308969E+03  0.10019308969E+03  0.00000000000E+00 0. -1.
         21   -1    0    0  501  503 -0.00000000000E+00 -0.00000000000E+00 -0.10375730429E+04  0.10375730429E+04  0.00000000000E+00 0.  1.
          6    2    1    2  501    0  0.33376476214E+02 -0.10734992913E+03 -0.90683923611E+03  0.92992530079E+03  0.17252729767E+03 0.  0.
         24    2    3    3    0    0  0.61751751741E+02 -0.46241680441E+02 -0.76616634938E+03  0.77387939286E+03  0.76986154055E+02 0.  0.
         -6    2    1    2    0  502 -0.33376476214E+02  0.10734992913E+03 -0.30540717067E+02  0.20784083177E+03  0.17212518555E+03 0.  0.
        -24    2    5    5    0    0 -0.37971051113E+02  0.13624295131E+03  0.31983193572E+01  0.16293727480E+03  0.80835535313E+02 0.  0.
          5    1    3    3  501    0 -0.28375275527E+02 -0.61108248688E+02 -0.14067288673E+03  0.15604590792E+03  0.47000000000E+01 0. -1.
        -11    1    4    4    0    0  0.31475098123E+02 -0.38780607308E+02 -0.17765313470E+03  0.18454065562E+03  0.00000000000E+00 0.  1.
         12    1    4    4    0    0  0.30276653618E+02 -0.74610731329E+01 -0.58851321468E+03  0.58933873725E+03  0.00000000000E+00 0. -1.
         -5    1    5    5    0  502  0.45945748988E+01 -0.28893022179E+02 -0.33739036424E+02  0.44903556963E+02  0.47000000000E+01 0.  1.
         13    1    6    6    0    0  0.90607095767E+01  0.10247360596E+02  0.23238014628E+02  0.26964980643E+02  0.00000000000E+00 0. -1.
        -14    1    6    6    0    0 -0.47031760690E+02  0.12599559071E+03 -0.20039695271E+02  0.13597229416E+03  0.00000000000E+00 0.  1.
</event>
<event>
12    1  0.8358445E-002  0.2320391E+03  0.7818608E-02  0.1126733E+00
         21   -1    0    0  501  502  0.00000000000E+00  0.00000000000E+00  0.31782074016E+03  0.31782074016E+03  0.00000000000E+00 0.  1.
         21   -1    0    0  502  503 -0.00000000000E+00 -0.00000000000E+00 -0.47201388708E+03  0.47201388708E+03  0.00000000000E+00 0.  1.
         -6    2    1    2    0  503  0.34935028321E+02 -0.15175371296E+03 -0.39700260199E+03  0.45984040991E+03  0.17202468136E+03 0.  0.
        -24    2    3    3    0    0  0.22195192132E+02 -0.55355330288E+02 -0.32156361488E+03  0.33668164090E+03  0.79965803677E+02 0.  0.
          6    2    1    2  501    0 -0.34935028321E+02  0.15175371296E+03  0.24280945507E+03  0.32999421733E+03  0.16028133516E+03 0.  0.
         24    2    5    5    0    0 -0.31180935853E+02  0.17724448123E+03  0.21867512194E+03  0.29437921329E+03  0.80327177065E+02 0.  0.
          5    1    5    5  501    0 -0.37540924683E+01 -0.25490768271E+02  0.24134333129E+02  0.35615004041E+02  0.47000000000E+01 0. -1.
        -13    1    6    6    0    0 -0.33486764982E+02  0.64729336865E+02  0.39775050117E+02  0.83025930237E+02  0.00000000000E+00 0.  1.
         14    1    6    6    0    0  0.23058291292E+01  0.11251514437E+03  0.17890007182E+03  0.21135328306E+03  0.00000000000E+00 0. -1.
         -5    1    3    3    0  503  0.12739836188E+02 -0.96398382674E+02 -0.75438987111E+02  0.12315876901E+03  0.47000000000E+01 0.  1.
         13    1    4    4    0    0 -0.76999731155E+01 -0.65838975905E+02 -0.24532530002E+03  0.25412312600E+03  0.00000000000E+00 0. -1.
        -14    1    4    4    0    0  0.29895165248E+02  0.10483645617E+02 -0.76238314857E+02  0.82558514903E+02  0.00000000000E+00 0.  1.
</event>
<event>
12    1  0.8358445E-002  0.2371851E+03  0.7818608E-02  0.1122014E+00
         21   -1    0    0  503  502  0.00000000000E+00  0.00000000000E+00  0.13113720379E+04  0.13113720379E+04  0.00000000000E+00 0. -1.
         21   -1    0    0  501  503 -0.00000000000E+00 -0.00000000000E+00 -0.56186462465E+02  0.56186462465E+02  0.00000000000E+00 0. -1.
          6    2    1    2  501    0  0.16159727264E+03  0.17457948241E+02  0.28873133111E+03  0.37242504339E+03  0.17004756070E+03 0.  0.
         24    2    3    3    0    0  0.70391162362E+02  0.65227025674E+02  0.20437608362E+03  0.23923969476E+03  0.79098466333E+02 0.  0.
         -6    2    1    2    0  502 -0.16159727264E+03 -0.17457948241E+02  0.96645424432E+03  0.99513345697E+03  0.17273775593E+03 0.  0.
        -24    2    5    5    0    0 -0.89881049488E+02  0.57407653228E+02  0.53357377634E+03  0.54998666713E+03  0.80063209471E+02 0.  0.
          5    1    3    3  501    0  0.91206110282E+02 -0.47769077433E+02  0.84355247491E+02  0.13318534863E+03  0.47000000000E+01 0. -1.
        -11    1    4    4    0    0 -0.38245291854E+01 -0.13821829891E+02  0.38348018798E+02  0.40941916794E+02  0.00000000000E+00 0.  1.
         12    1    4    4    0    0  0.74215691547E+02  0.79048855565E+02  0.16602806482E+03  0.19829777796E+03  0.00000000000E+00 0. -1.
         -5    1    5    5    0  502 -0.71716223156E+02 -0.74865601469E+02  0.43288046798E+03  0.44514678984E+03  0.47000000000E+01 0.  1.
         13    1    6    6    0    0 -0.32793055164E+02  0.36831368335E+01  0.33310313363E+03  0.33473369654E+03  0.00000000000E+00 0. -1.
        -14    1    6    6    0    0 -0.57087994324E+02  0.53724516395E+02  0.20047064271E+03  0.21525297059E+03  0.00000000000E+00 0.  1.
</event>
<event>
12    1  0.8358445E-002  0.1733808E+03  0.7818608E-02  0.1174526E+00
         21   -1    0    0  501  502  0.00000000000E+00  0.00000000000E+00  0.27775116979E+02  0.27775116979E+02  0.00000000000E+00 0. -1.
         21   -1    0    0  502  503 -0.00000000000E+00 -0.00000000000E+00 -0.10784365036E+04  0.10784365036E+04  0.00000000000E+00 0. -1.
         -6    2    1    2    0  503 -0.15646049393E+02 -0.90743697384E+00 -0.52927002386E+03  0.55694493030E+03  0.17267100198E+03 0.  0.
        -24    2    3    3    0    0 -0.68887312997E+02  0.88007822405E+00 -0.22720224850E+03  0.25017977864E+03  0.78884874892E+02 0.  0.
          6    2    1    2  501    0  0.15646049393E+02  0.90743697384E+00 -0.52139136272E+03  0.54926669024E+03  0.17204453373E+03 0.  0.
         24    2    5    5    0    0 -0.35626657564E+02  0.12627335755E+02 -0.15263123949E+03  0.17674506000E+03  0.80708194327E+02 0.  0.
          5    1    5    5  501    0  0.51272706957E+02 -0.11719898781E+02 -0.36876012323E+03  0.37252163024E+03  0.47000000000E+01 0. -1.
        -13    1    6    6    0    0 -0.41940247062E+02 -0.22790678911E+02 -0.11583282979E+03  0.12528225663E+03  0.00000000000E+00 0.  1.
         14    1    6    6    0    0  0.63135894978E+01  0.35418014665E+02 -0.36798409698E+02  0.51462803378E+02  0.00000000000E+00 0. -1.
         -5    1    3    3    0  503  0.53241263605E+02 -0.17875151979E+01 -0.30206777536E+03  0.30676515166E+03  0.47000000000E+01 0.  1.
         13    1    4    4    0    0 -0.49055822086E+02  0.36469086396E+02 -0.10660427500E+03  0.12288587955E+03  0.00000000000E+00 0. -1.
        -14    1    4    4    0    0 -0.19831490911E+02 -0.35589008172E+02 -0.12059797350E+03  0.12729389909E+03  0.00000000000E+00 0.  1.
</event>
<event>
12    1  0.8358445E-002  0.1747736E+03  0.7818608E-02  0.1173222E+00
         21   -1    0    0  503  502  0.00000000000E+00  0.00000000000E+00  0.31666290634E+03  0.31666290634E+03  0.00000000000E+00 0.  1.
         21   -1    0    0  501  503 -0.00000000000E+00 -0.00000000000E+00 -0.10449109986E+03  0.10449109986E+03  0.00000000000E+00 0.  1.
          6    2    1    2  501    0 -0.28458211910E+02  0.35936838816E+01  0.45367201896E+02  0.17955601702E+03  0.17134583698E+03 0.  0.
         24    2    3    3    0    0 -0.20535286345E+02  0.57032918231E+02 -0.63473798818E+01  0.10462263003E+03  0.85036190740E+02 0.  0.
         -6    2    1    2    0  502  0.28458211910E+02 -0.35936838816E+01  0.16680460458E+03  0.24159798918E+03  0.17240367709E+03 0.  0.
        -24    2    5    5    0    0  0.30259370432E+02 -0.66463311798E+02  0.12806645209E+03  0.16758063483E+03  0.79682191892E+02 0.  0.
          5    1    3    3  501    0 -0.79229255649E+01 -0.53439234349E+02  0.51714581777E+02  0.74933386990E+02  0.47000000000E+01 0. -1.
        -11    1    4    4    0    0 -0.26878449860E+02  0.23213256622E+02  0.35655306471E+02  0.50325015941E+02  0.00000000000E+00 0.  1.
         12    1    4    4    0    0  0.63431635152E+01  0.33819661609E+02 -0.42002686353E+02  0.54297614088E+02  0.00000000000E+00 0. -1.
         -5    1    5    5    0  502 -0.18011585218E+01  0.62869627916E+02  0.38738152494E+02  0.74017354350E+02  0.47000000000E+01 0.  1.
         13    1    6    6    0    0 -0.15030475885E+02 -0.10213891602E+02 -0.25295208818E+01  0.18347677316E+02  0.00000000000E+00 0. -1.
        -14    1    6    6    0    0  0.45289846317E+02 -0.56249420195E+02  0.13059597297E+03  0.14923295751E+03  0.00000000000E+00 0.  1.
</event>
<event>
12    1  0.8358445E-002  0.1865178E+03  0.7818608E-02  0.1161984E+00
         21   -1    0    0  503  502  0.00000000000E+00  0.00000000000E+00  0.50275249908E+02  0.50275249908E+02  0.00000000000E+00 0. -1.
         21   -1    0    0  501  503 -0.00000000000E+00 -0.00000000000E+00 -0.69532075360E+03  0.69532075360E+03  0.00000000000E+00 0. -1.
          6    2    1    2  501    0  0.71022371693E+02  0.12755839767E+02 -0.27920995903E+03  0.33495683098E+03  0.17038482524E+03 0.  0.
         24    2    3    3    0    0 -0.26416411898E+00 -0.38325853863E+02 -0.19281700236E+03  0.21176209662E+03  0.78713711073E+02 0.  0.
         -6    2    1    2    0  502 -0.71022371693E+02 -0.12755839767E+02 -0.36583554466E+03  0.41063917252E+03  0.17199417299E+03 0.  0.
        -24    2    5    5    0    0 -0.39762838271E+01 -0.52906376223E+02 -0.13488571532E+03  0.16678028474E+03  0.82502192112E+02 0.  0.
          5    1    3    3  501    0  0.71286535812E+02  0.51081693630E+02 -0.86392956671E+02  0.12319473436E+03  0.47000000000E+01 0. -1.
        -11    1    4    4    0    0  0.18762670470E+02 -0.12007966159E+02 -0.17144284468E+03  0.17288400171E+03  0.00000000000E+00 0.  1.
         12    1    4    4    0    0 -0.19026834589E+02 -0.26317887704E+02 -0.21374157674E+02  0.38878094912E+02  0.00000000000E+00 0. -1.
         -5    1    5    5    0  502 -0.67046087866E+02  0.40150536456E+02 -0.23094982934E+03  0.24385888778E+03  0.47000000000E+01 0.  1.
         11    1    6    6    0    0  0.28190471713E+02  0.72559342186E+01 -0.31267946661E+02  0.42720437324E+02  0.00000000000E+00 0. -1.
        -12    1    6    6    0    0 -0.32166755540E+02 -0.60162310441E+02 -0.10361776866E+03  0.12405984742E+03  0.00000000000E+00 0.  1.
</event>
<event>
12    1  0.8358445E-002  0.1781256E+03  0.7818608E-02  0.1170449E+00
         21   -1    0    0  501  502  0.00000000000E+00  0.00000000000E+00  0.27455249356E+02  0.27455249356E+02  0.00000000000E+00 0.  1.
         21   -1    0    0  502  503 -0.00000000000E+00 -0.00000000000E+00 -0.16364014644E+04  0.16364014644E+04  0.00000000000E+00 0.  1.
         -6    2    1    2    0  503  0.91811963562E+01 -0.44957907630E+02 -0.12705196226E+04  0.12829453763E+04  0.17211397185E+03 0.  0.
        -24    2    3    3    0    0 -0.80671990525E+00  0.17802782376E+02 -0.10573781797E+04  0.10604818347E+04  0.79091825365E+02 0.  0.
          6    2    1    2  501    0 -0.91811963562E+01  0.44957907630E+02 -0.33842659244E+03  0.38091133746E+03  0.16868722747E+03 0.  0.
         24    2    5    5    0    0  0.14072052529E+02 -0.18686743380E+02 -0.27354443674E+03  0.28697977028E+03  0.83568012034E+02 0.  0.
          5    1    5    5  501    0 -0.23253248886E+02  0.63644651009E+02 -0.64882155698E+02  0.93931567185E+02  0.47000000000E+01 0. -1.
        -13    1    6    6    0    0  0.62844229918E+01  0.19500359822E+02 -0.14695704192E+02  0.25213522706E+02  0.00000000000E+00 0.  1.
         14    1    6    6    0    0  0.77876295376E+01 -0.38187103202E+02 -0.25884873255E+03  0.26176624757E+03  0.00000000000E+00 0. -1.
         -5    1    3    3    0  503  0.99879162615E+01 -0.62760690006E+02 -0.21314144288E+03  0.22246354163E+03  0.47000000000E+01 0.  1.
         13    1    4    4    0    0  0.26122227938E+02  0.28583677547E+02 -0.29226155301E+03  0.29481555722E+03  0.00000000000E+00 0. -1.
        -14    1    4    4    0    0 -0.26928947843E+02 -0.10780895171E+02 -0.76511662673E+03  0.76566627746E+03  0.00000000000E+00 0.  1.
</event>
<event>
12    1  0.8358445E-002  0.2765925E+03  0.7818608E-02  0.1097858E+00
         21   -1    0    0  501  502  0.00000000000E+00  0.00000000000E+00  0.29614106302E+03  0.29614106302E+03  0.00000000000E+00 0.  1.
         21   -1    0    0  502  503 -0.00000000000E+00 -0.00000000000E+00 -0.42493197989E+03  0.42493197989E+03  0.00000000000E+00 0.  1.
         -6    2    1    2    0  503  0.13901108399E+03 -0.16200407631E+03 -0.29161919415E+03  0.40192684174E+03  0.17588072520E+03 0.  0.
        -24    2    3    3    0    0  0.12420280914E+03 -0.65943501871E+02 -0.24583304474E+03  0.29438438294E+03  0.80333030541E+02 0.  0.
          6    2    1    2  501    0 -0.13901108399E+03  0.16200407631E+03  0.16282827729E+03  0.31914620117E+03  0.17254520458E+03 0.  0.
         24    2    5    5    0    0 -0.16103877520E+03  0.97827439530E+02  0.13337074674E+03  0.24502673008E+03  0.82137977375E+02 0.  0.
          5    1    5    5  501    0  0.22027691207E+02  0.64176636782E+02  0.29457530553E+02  0.74119471091E+02  0.47000000000E+01 0. -1.
        -13    1    6    6    0    0 -0.45049164593E+02  0.73311267553E+02  0.44569206116E+02  0.96903990190E+02  0.00000000000E+00 0.  1.
         14    1    6    6    0    0 -0.11598961061E+03  0.24516171977E+02  0.88801540620E+02  0.14812273989E+03  0.00000000000E+00 0. -1.
         -5    1    3    3    0  503  0.14808274852E+02 -0.96060574441E+02 -0.45786149412E+02  0.10754245880E+03  0.47000000000E+01 0.  1.
         13    1    4    4    0    0  0.86861309038E+02 -0.18803013065E+02 -0.19972114157E+03  0.21860232089E+03  0.00000000000E+00 0. -1.
        -14    1    4    4    0    0  0.37341500102E+02 -0.47140488806E+02 -0.46111903169E+02  0.75782062051E+02  0.00000000000E+00 0.  1.
</event>
<event>
12    1  0.8358445E-002  0.1769027E+03  0.7818608E-02  0.1175504E+00
         21   -1    0    0  503  502  0.00000000000E+00  0.00000000000E+00  0.82438515401E+03  0.82438515401E+03  0.00000000000E+00 0. -1.
         21   -1    0    0  501  503 -0.00000000000E+00 -0.00000000000E+00 -0.69606006571E+02  0.69606006571E+02  0.00000000000E+00 0. -1.
          6    2    1    2  501    0  0.37240627446E+02 -0.16214439012E+02  0.68802195659E+02  0.18981122972E+03  0.17217661989E+03 0.  0.
         24    2    3    3    0    0  0.31484731710E+02 -0.39001908593E+02  0.10821891997E+03  0.14367916645E+03  0.80124472092E+02 0.  0.
         -6    2    1    2    0  502 -0.37240627446E+02  0.16214439012E+02  0.68597695178E+03  0.70417993086E+03  0.15380254969E+03 0.  0.
        -24    2    5    5    0    0 -0.47317768943E+02 -0.33811357611E+02  0.55545318917E+03  0.56395628195E+03  0.78334305578E+02 0.  0.
          5    1    3    3  501    0  0.57558957361E+01  0.22787469581E+02 -0.39416724313E+02  0.46132063266E+02  0.47000000000E+01 0. -1.
        -11    1    4    4    0    0 -0.13538895562E+02  0.13136443890E+02  0.50153830021E+02  0.53584274903E+02  0.00000000000E+00 0.  1.
         12    1    4    4    0    0  0.45023627272E+02 -0.52138352483E+02  0.58065089952E+02  0.90094891551E+02  0.00000000000E+00 0. -1.
         -5    1    5    5    0  502  0.10077141496E+02  0.50025796623E+02  0.13052376261E+03  0.14022364891E+03  0.47000000000E+01 0.  1.
         13    1    6    6    0    0 -0.62386684685E+02 -0.22423331445E+02  0.51570471505E+03  0.51994832180E+03  0.00000000000E+00 0. -1.
        -14    1    6    6    0    0  0.15068915742E+02 -0.11388026166E+02  0.39748474121E+02  0.44007960150E+02  0.00000000000E+00 0.  1.
</event>
<event>
12    1  0.8358445E-002  0.2095492E+03  0.7818608E-02  0.1142098E+00
         21   -1    0    0  501  502  0.00000000000E+00  0.00000000000E+00  0.16454073531E+03  0.16454073531E+03  0.00000000000E+00 0.  1.
         21   -1    0    0  502  503 -0.00000000000E+00 -0.00000000000E+00 -0.27464267954E+03  0.27464267954E+03  0.00000000000E+00 0.  1.
         -6    2    1    2    0  503 -0.49082367057E+01  0.11808628600E+03 -0.94439889150E+02  0.22904977319E+03  0.17197803408E+03 0.  0.
        -24    2    3    3    0    0 -0.67689522927E+02  0.50914082097E+02 -0.47412205377E+02  0.12567043329E+03  0.79818702790E+02 0.  0.
          6    2    1    2  501    0  0.49082367057E+01 -0.11808628600E+03 -0.15662055084E+02  0.21013364165E+03  0.17303868255E+03 0.  0.
         24    2    5    5    0    0  0.64934712086E+02 -0.69990587917E+02  0.20494145289E+02  0.12501175994E+03  0.78055947260E+02 0.  0.
          5    1    5    5  501    0 -0.60026475380E+02 -0.48095698082E+02 -0.36156200372E+02  0.85121881710E+02  0.47000000000E+01 0. -1.
        -13    1    6    6    0    0 -0.21797615259E+01 -0.44567907425E+02  0.28271339950E+02  0.52823464436E+02  0.00000000000E+00 0.  1.
         14    1    6    6    0    0  0.67114473612E+02 -0.25422680492E+02 -0.77771946610E+01  0.72188295508E+02  0.00000000000E+00 0. -1.
         -5    1    3    3    0  503  0.62781286221E+02  0.67172203902E+02 -0.47027683773E+02  0.10337933990E+03  0.47000000000E+01 0.  1.
         11    1    4    4    0    0 -0.31240833270E+02  0.66991140524E+02 -0.43189457167E+02  0.85610348571E+02  0.00000000000E+00 0. -1.
        -12    1    4    4    0    0 -0.36448689656E+02 -0.16077058427E+02 -0.42227482108E+01  0.40060084720E+02  0.00000000000E+00 0.  1.
</event>
<event>
12    1  0.8358445E-002  0.1805516E+03  0.7818608E-02  0.1167953E+00
         21   -1    0    0  503  502  0.00000000000E+00  0.00000000000E+00  0.10182753374E+03  0.10182753374E+03  0.00000000000E+00 0. -1.
         21   -1    0    0  501  503 -0.00000000000E+00 -0.00000000000E+00 -0.54660679584E+03  0.54660679584E+03  0.00000000000E+00 0. -1.
          6    2    1    2  501    0 -0.48542584306E+02 -0.23202512743E+02 -0.10425256163E+02  0.17804909181E+03  0.16940500005E+03 0.  0.
         24    2    3    3    0    0  0.10381422001E+02 -0.37070330368E+02 -0.64595398731E+02  0.96680490801E+02  0.60766507616E+02 0.  0.
         -6    2    1    2    0  502  0.48542584306E+02  0.23202512743E+02 -0.43435400594E+03  0.47038523777E+03  0.17234886235E+03 0.  0.
        -24    2    5    5    0    0  0.96108099324E+02  0.66953666406E+01 -0.25335436119E+03  0.28245459767E+03  0.79439113296E+02 0.  0.
          5    1    3    3  501    0 -0.58924006307E+02  0.13867817626E+02  0.54170142568E+02  0.81368601013E+02  0.47000000000E+01 0. -1.
        -13    1    4    4    0    0  0.34727257591E+02 -0.21284240958E+02 -0.49070578529E+02  0.63772431427E+02  0.00000000000E+00 0.  1.
         14    1    4    4    0    0 -0.24345835590E+02 -0.15786089411E+02 -0.15524820202E+02  0.32908059374E+02  0.00000000000E+00 0. -1.
         -5    1    5    5    0  502 -0.47565515018E+02  0.16507146102E+02 -0.18099964474E+03  0.18793064010E+03  0.47000000000E+01 0.  1.
         11    1    6    6    0    0  0.63178152689E+02  0.30274453569E+02 -0.89443625159E+02  0.11361418748E+03  0.00000000000E+00 0. -1.
        -12    1    6    6    0    0  0.32929946636E+02 -0.23579086929E+02 -0.16391073603E+03  0.16884041019E+03  0.00000000000E+00 0.  1.
</event>
<event>
12    1  0.8358445E-002  0.1813234E+03  0.7818608E-02  0.1167315E+00
         21   -1    0    0  503  502  0.00000000000E+00  0.00000000000E+00  0.44852156767E+03  0.44852156767E+03  0.00000000000E+00 0. -1.
         21   -1    0    0  501  503 -0.00000000000E+00 -0.00000000000E+00 -0.33380336158E+03  0.33380336158E+03  0.00000000000E+00 0. -1.
          6    2    1    2  501    0  0.49978140332E+02 -0.14310448664E+02 -0.28894632785E+03  0.34112775072E+03  0.17371113516E+03 0.  0.
         24    2    3    3    0    0  0.40534619816E+02  0.64930426914E+02 -0.12141928305E+03  0.15550529199E+03  0.59835088361E+02 0.  0.
         -6    2    1    2    0  502 -0.49978140332E+02  0.14310448664E+02  0.40366453394E+03  0.44119717853E+03  0.17031526923E+03 0.  0.
        -24    2    5    5    0    0 -0.20537319320E+02  0.75252167678E+02  0.23876523400E+03  0.26288698763E+03  0.77563271428E+02 0.  0.
          5    1    3    3  501    0  0.94435205166E+01 -0.79240875577E+02 -0.16752704480E+03  0.18562245872E+03  0.47000000000E+01 0. -1.
        -11    1    4    4    0    0  0.35282778905E+02  0.20283971421E+02 -0.21700371942E+02  0.46121796651E+02  0.00000000000E+00 0.  1.
         12    1    4    4    0    0  0.52518409104E+01  0.44646455493E+02 -0.99718911109E+02  0.10938349534E+03  0.00000000000E+00 0. -1.
         -5    1    5    5    0  502 -0.29440821012E+02 -0.60941719015E+02  0.16489929994E+03  0.17831019090E+03  0.47000000000E+01 0.  1.
         13    1    6    6    0    0  0.24807792034E+02  0.42815973959E+01  0.44005595404E+02  0.50697643424E+02  0.00000000000E+00 0. -1.
        -14    1    6    6    0    0 -0.45345111354E+02  0.70970570282E+02  0.19475963859E+03  0.21218934420E+03  0.00000000000E+00 0.  1.
</event>
<event>
12    1  0.8358445E-002  0.2195027E+03  0.7818608E-02  0.1134513E+00
         21   -1    0    0  501  502  0.00000000000E+00  0.00000000000E+00  0.27819523884E+03  0.27819523884E+03  0.00000000000E+00 0. -1.
         21   -1    0    0  502  503 -0.00000000000E+00 -0.00000000000E+00 -0.22629719298E+03  0.22629719298E+03  0.00000000000E+00 0. -1.
         -6    2    1    2    0  503  0.43476215426E+02  0.12823474756E+03 -0.97550883361E+02  0.23894313729E+03  0.17100677245E+03 0.  0.
        -24    2    3    3    0    0  0.77733406587E+02  0.12950035226E+03 -0.10968383307E+03  0.20227632164E+03  0.77925241901E+02 0.  0.
          6    2    1    2  501    0 -0.43476215426E+02 -0.12823474756E+03  0.14944892922E+03  0.26554929453E+03  0.17276317197E+03 0.  0.
         24    2    5    5    0    0 -0.13007617255E+01 -0.34707528073E+01  0.35221829154E+02  0.91151061536E+02  0.83989288984E+02 0.  0.
          5    1    5    5  501    0 -0.42175453701E+02 -0.12476399475E+03  0.11422710006E+03  0.17439823299E+03  0.47000000000E+01 0. -1.
        -11    1    6    6    0    0 -0.35802500627E+02 -0.17297516361E+02 -0.26321494347E+00  0.39762952676E+02  0.00000000000E+00 0.  1.
         12    1    6    6    0    0  0.34501738901E+02  0.13826763554E+02  0.35485044098E+02  0.51388108860E+02  0.00000000000E+00 0. -1.
         -5    1    3    3    0  503 -0.34257191161E+02 -0.12656046944E+01  0.12132949707E+02  0.36666815652E+02  0.47000000000E+01 0.  1.
         11    1    4    4    0    0  0.50597262780E+02  0.21717911228E+02 -0.17201142371E+02  0.57685613178E+02  0.00000000000E+00 0. -1.
        -12    1    4    4    0    0  0.27136143807E+02  0.10778244103E+03 -0.92482690696E+02  0.14459070846E+03  0.00000000000E+00 0.  1.
</event>
<event>
12    1  0.8358445E-002  0.1785403E+03  0.7818608E-02  0.1169285E+00
         21   -1    0    0  503  502  0.00000000000E+00  0.00000000000E+00  0.45343428020E+02  0.45343428020E+02  0.00000000000E+00 0. -1.
         21   -1    0    0  501  503 -0.00000000000E+00 -0.00000000000E+00 -0.74724413283E+03  0.74724413283E+03  0.00000000000E+00 0. -1.
          6    2    1    2  501    0  0.34657339882E+02 -0.32093454297E+02 -0.44821844298E+03  0.48237580843E+03  0.17191720949E+03 0.  0.
         24    2    3    3    0    0 -0.36272395658E+02 -0.59177452294E+02 -0.26151403183E+03  0.28076926719E+03  0.74994233151E+02 0.  0.
         -6    2    1    2    0  502 -0.34657339882E+02  0.32093454297E+02 -0.25368226184E+03  0.31021175242E+03  0.17217874536E+03 0.  0.
        -24    2    5    5    0    0  0.10439691835E+01 -0.20582432521E+02 -0.22432347143E+03  0.23997386311E+03  0.82714622286E+02 0.  0.
          5    1    3    3  501    0  0.70929735540E+02  0.27083997997E+02 -0.18670441115E+03  0.20160654125E+03  0.47000000000E+01 0. -1.
        -13    1    4    4    0    0 -0.85045454471E+00  0.14141135749E+02 -0.87585290303E+02  0.88723604924E+02  0.00000000000E+00 0.  1.
         14    1    4    4    0    0 -0.35421941113E+02 -0.73318588043E+02 -0.17392874153E+03  0.19204566226E+03  0.00000000000E+00 0. -1.
         -5    1    5    5    0  502 -0.35701309065E+02  0.52675886817E+02 -0.29358790404E+02  0.70237889312E+02  0.47000000000E+01 0.  1.
         13    1    6    6    0    0 -0.10516057601E+02  0.24722289329E+02 -0.30747648736E+02  0.40831323269E+02  0.00000000000E+00 0. -1.
        -14    1    6    6    0    0  0.11560026784E+02 -0.45304721850E+02 -0.19357582270E+03  0.19914253984E+03  0.00000000000E+00 0.  1.
</event>
<event>
12    1  0.8358445E-002  0.1753230E+03  0.7818608E-02  0.1172885E+00
         21   -1    0    0  503  502  0.00000000000E+00  0.00000000000E+00  0.12210939081E+03  0.12210939081E+03  0.00000000000E+00 0.  1.
         21   -1    0    0  501  503 -0.00000000000E+00 -0.00000000000E+00 -0.53070533427E+03  0.53070533427E+03  0.00000000000E+00 0.  1.
          6    2    1    2  501    0  0.18067288779E+02 -0.15604394530E+02 -0.44262180406E+03  0.47608004201E+03  0.17369001386E+03 0.  0.
         24    2    3    3    0    0 -0.14535252982E+02 -0.54323280227E+02 -0.39232923539E+03  0.40457122925E+03  0.81199496537E+02 0.  0.
         -6    2    1    2    0  502 -0.18067288779E+02  0.15604394530E+02  0.34025860605E+02  0.17673468307E+03  0.17177737033E+03 0.  0.
        -24    2    5    5    0    0  0.26655321373E-01  0.25329166861E+02 -0.43951189134E+02  0.95960477439E+02  0.81456361320E+02 0.  0.
          5    1    3    3  501    0  0.32602541760E+02  0.38718885697E+02 -0.50292568666E+02  0.71508812757E+02  0.47000000000E+01 0. -1.
        -11    1    4    4    0    0  0.29213560128E+02 -0.29736624200E+02 -0.10645737580E+03  0.11432791338E+03  0.00000000000E+00 0.  1.
         12    1    4    4    0    0 -0.43748813109E+02 -0.24586656027E+02 -0.28587185959E+03  0.29024331587E+03  0.00000000000E+00 0. -1.
         -5    1    5    5    0  502 -0.18093944100E+02 -0.97247723316E+01  0.77977049739E+02  0.80774205635E+02  0.47000000000E+01 0.  1.
         13    1    6    6    0    0  0.69016552305E+01  0.54641264069E+02 -0.30837887335E+02  0.63121120707E+02  0.00000000000E+00 0. -1.
        -14    1    6    6    0    0 -0.68749999091E+01 -0.29312097208E+02 -0.13113301799E+02  0.32839356732E+02  0.00000000000E+00 0.  1.
</event>
<event>
12    1  0.8358445E-002  0.2037537E+03  0.7818608E-02  0.1147173E+00
         21   -1    0    0  501  502  0.00000000000E+00  0.00000000000E+00  0.31331782798E+03  0.31331782798E+03  0.00000000000E+00 0.  1.
         21   -1    0    0  502  503 -0.00000000000E+00 -0.00000000000E+00 -0.18333675236E+03  0.18333675236E+03  0.00000000000E+00 0.  1.
         -6    2    1    2    0  503  0.90906134942E+02 -0.50803149560E+02 -0.67701064107E+02  0.21470682945E+03  0.17513053177E+03 0.  0.
        -24    2    3    3    0    0  0.13555072597E+02  0.27456936578E+02 -0.59851050093E+02  0.10429151961E+03  0.79730480404E+02 0.  0.
          6    2    1    2  501    0 -0.90906134942E+02  0.50803149560E+02  0.19768213972E+03  0.28194775089E+03  0.17196342777E+03 0.  0.
         24    2    5    5    0    0 -0.11125483500E+03 -0.88664708295E+01  0.13832302118E+03  0.19522907847E+03  0.80776743415E+02 0.  0.
          5    1    5    5  501    0  0.20348700055E+02  0.59669620390E+02  0.59359118542E+02  0.86718672415E+02  0.47000000000E+01 0. -1.
        -13    1    6    6    0    0 -0.53806663125E+02  0.11541415883E+02  0.14032164762E+02  0.56791398338E+02  0.00000000000E+00 0.  1.
         14    1    6    6    0    0 -0.57448171873E+02 -0.20407886712E+02  0.12429085642E+03  0.13843768013E+03  0.00000000000E+00 0. -1.
         -5    1    3    3    0  503  0.77351062345E+02 -0.78260086138E+02 -0.78500140132E+01  0.11041530985E+03  0.47000000000E+01 0.  1.
         11    1    4    4    0    0  0.13851214264E+01  0.48516671043E+02 -0.11070197269E+02  0.49782880572E+02  0.00000000000E+00 0. -1.
        -12    1    4    4    0    0  0.12169951171E+02 -0.21059734466E+02 -0.48780852824E+02  0.54508639036E+02  0.00000000000E+00 0.  1.
</event>
<event>
12    1  0.8358445E-002  0.2704695E+03  0.7818608E-02  0.1101096E+00
         21   -1    0    0  501  502  0.00000000000E+00  0.00000000000E+00  0.60396325481E+03  0.60396325481E+03  0.00000000000E+00 0.  1.
         21   -1    0    0  502  503 -0.00000000000E+00 -0.00000000000E+00 -0.20229256648E+03  0.20229256648E+03  0.00000000000E+00 0.  1.
         -6    2    1    2    0  503  0.15231196310E+03 -0.14184047371E+03 -0.55074762339E+02  0.27543556146E+03  0.17179599816E+03 0.  0.
        -24    2    3    3    0    0  0.53813792334E+02 -0.95556937745E+02  0.27665774059E+02  0.13864323087E+03  0.80184149398E+02 0.  0.
          6    2    1    2  501    0 -0.15231196310E+03  0.14184047371E+03  0.45674545067E+03  0.53082025983E+03  0.17273125791E+03 0.  0.
         24    2    5    5    0    0 -0.64844254274E+02  0.63649240789E+01  0.12035136677E+03  0.15774212551E+03  0.78440022335E+02 0.  0.
          5    1    5    5  501    0 -0.87467708822E+02  0.13547554963E+03  0.33639408389E+03  0.37307813433E+03  0.47000000000E+01 0. -1.
        -13    1    6    6    0    0 -0.13311946383E+02  0.73182288425E+01  0.10185660421E+03  0.10298316470E+03  0.00000000000E+00 0.  1.
         14    1    6    6    0    0 -0.51532307891E+02 -0.95330476362E+00  0.18494762564E+02  0.54758960808E+02  0.00000000000E+00 0. -1.
         -5    1    3    3    0  503  0.98498170762E+02 -0.46283535963E+02 -0.82740536398E+02  0.13679233059E+03  0.47000000000E+01 0.  1.
         13    1    4    4    0    0 -0.47195750768E+01 -0.11655248923E+02  0.33894682699E+02  0.36152022511E+02  0.00000000000E+00 0. -1.
        -14    1    4    4    0    0  0.58533367411E+02 -0.83901688822E+02 -0.62289086399E+01  0.10249120836E+03  0.00000000000E+00 0.  1.
</event>
<event>
12    1  0.8358445E-002  0.2343414E+03  0.7818608E-02  0.1123640E+00
         21   -1    0    0  501  502  0.00000000000E+00  0.00000000000E+00  0.28714648854E+03  0.28714648854E+03  0.00000000000E+00 0. -1.
         21   -1    0    0  502  503 -0.00000000000E+00 -0.00000000000E+00 -0.50077249506E+03  0.50077249506E+03  0.00000000000E+00 0. -1.
         -6    2    1    2    0  503  0.30196072958E+02 -0.15617407277E+03 -0.41657617814E+03  0.47791145307E+03  0.17193458336E+03 0.  0.
        -24    2    3    3    0    0  0.48303421785E+02 -0.34645218829E+02 -0.13088919621E+03  0.16688688802E+03  0.84768744029E+02 0.  0.
          6    2    1    2  501    0 -0.30196072958E+02  0.15617407277E+03  0.20295017162E+03  0.31000753053E+03  0.17208646954E+03 0.  0.
         24    2    5    5    0    0 -0.43492142768E+02  0.88319896395E+02  0.40393993967E+02  0.13329427235E+03  0.80272770676E+02 0.  0.
          5    1    5    5  501    0  0.13296069810E+02  0.67854176371E+02  0.16255617765E+03  0.17671325818E+03  0.47000000000E+01 0. -1.
        -11    1    6    6    0    0 -0.50475218771E+02  0.20211918873E+02  0.11590499807E+01  0.54383938543E+02  0.00000000000E+00 0.  1.
         12    1    6    6    0    0  0.69830760034E+01  0.68107977522E+02  0.39234943987E+02  0.78910333812E+02  0.00000000000E+00 0. -1.
         -5    1    3    3    0  503 -0.18107348827E+02 -0.12152885394E+03 -0.28568698193E+03  0.31102456505E+03  0.47000000000E+01 0.  1.
         13    1    4    4    0    0  0.52978542212E+02  0.85449668596E+00 -0.11707756200E+03  0.12850918887E+03  0.00000000000E+00 0. -1.
        -14    1    4    4    0    0 -0.46751204265E+01 -0.35499715515E+02 -0.13811634210E+02  0.38377699152E+02  0.00000000000E+00 0.  1.
</event>
<event>
12    1  0.8358445E-002  0.1921083E+03  0.7818608E-02  0.1156799E+00
         21   -1    0    0  501  502  0.00000000000E+00  0.00000000000E+00  0.37227645130E+03  0.37227645130E+03  0.00000000000E+00 0.  1.
         21   -1    0    0  502  503 -0.00000000000E+00 -0.00000000000E+00 -0.38429766089E+03  0.38429766089E+03  0.00000000000E+00 0. -1.
         -6    2    1    2    0  503 -0.53999019924E+02  0.66757053324E+02 -0.33217465603E+03  0.38372595995E+03  0.17185229678E+03 0.  0.
        -24    2    3    3    0    0 -0.22956544799E+02  0.14565385317E+02 -0.30633280620E+03  0.31756330678E+03  0.79167621290E+02 0.  0.
          6    2    1    2  501    0  0.53999019924E+02 -0.66757053324E+02  0.32015344643E+03  0.37284815224E+03  0.17071941029E+03 0.  0.
         24    2    5    5    0    0 -0.36510645433E+02 -0.34690073108E+02  0.15178949244E+03  0.17896983539E+03  0.80335070557E+02 0.  0.
          5    1    5    5  501    0  0.90509665357E+02 -0.32066980216E+02  0.16836395399E+03  0.19387831686E+03  0.47000000000E+01 0. -1.
        -13    1    6    6    0    0 -0.21642533793E+02  0.23374382798E+02  0.32722184116E+02  0.45667300922E+02  0.00000000000E+00 0.  1.
         14    1    6    6    0    0 -0.14868111640E+02 -0.58064455907E+02  0.11906730833E+03  0.13330253447E+03  0.00000000000E+00 0. -1.
         -5    1    3    3    0  503 -0.31042475125E+02  0.52191668007E+02 -0.25841849828E+02  0.66162653165E+02  0.47000000000E+01 0.  1.
         11    1    4    4    0    0  0.11444779180E+02  0.33653280810E+02 -0.76089567009E+02  0.83983024996E+02  0.00000000000E+00 0. -1.
        -12    1    4    4    0    0 -0.34401323979E+02 -0.19087895493E+02 -0.23024323919E+03  0.23358028179E+03  0.00000000000E+00 0.  1.
</event>
<event>
12    1  0.8358445E-002  0.2690258E+03  0.7818608E-02  0.1101950E+00
         21   -1    0    0  503  502  0.00000000000E+00  0.00000000000E+00  0.40971933654E+03  0.40971933654E+03  0.00000000000E+00 0.  1.
         21   -1    0    0  501  503 -0.00000000000E+00 -0.00000000000E+00 -0.19056044648E+03  0.19056044648E+03  0.00000000000E+00 0. -1.
          6    2    1    2  501    0 -0.99048813035E+02 -0.18257674253E+03  0.19230125534E+03  0.33068814214E+03  0.17096765855E+03 0.  0.
         24    2    3    3    0    0  0.11152594663E+02 -0.99976939427E+02  0.11865889598E+03  0.17444357480E+03  0.78935786623E+02 0.  0.
         -6    2    1    2    0  502  0.99048813035E+02  0.18257674253E+03  0.26857634724E+02  0.26959164088E+03  0.16974506182E+03 0.  0.
        -24    2    5    5    0    0  0.29625923207E+02  0.64417860115E+02 -0.43671457846E+02  0.11539208827E+03  0.79879795804E+02 0.  0.
          5    1    3    3  501    0 -0.11020140770E+03 -0.82599803104E+02  0.73642359361E+02  0.15624456734E+03  0.47000000000E+01 0. -1.
        -13    1    4    4    0    0 -0.12085433034E+01 -0.26520455980E+02  0.91312103353E+02  0.95093087977E+02  0.00000000000E+00 0.  1.
         14    1    4    4    0    0  0.12361137966E+02 -0.73456483447E+02  0.27346792623E+02  0.79350486822E+02  0.00000000000E+00 0. -1.
         -5    1    5    5    0  502  0.69422889827E+02  0.11815888242E+03  0.70529092570E+02  0.15419955261E+03  0.47000000000E+01 0.  1.
         13    1    6    6    0    0  0.10673865842E+02  0.80681540796E+02 -0.28823985579E+02  0.86338083034E+02  0.00000000000E+00 0. -1.
        -14    1    6    6    0    0  0.18952057365E+02 -0.16263680681E+02 -0.14847472267E+02  0.29054005239E+02  0.00000000000E+00 0.  1.
</event>
<event>
12    1  0.8358445E-002  0.2568608E+03  0.7818608E-02  0.1109231E+00
         21   -1    0    0  503  502  0.00000000000E+00  0.00000000000E+00  0.65972136070E+03  0.65972136070E+03  0.00000000000E+00 0. -1.
         21   -1    0    0  501  503 -0.00000000000E+00 -0.00000000000E+00 -0.10415378126E+03  0.10415378126E+03  0.00000000000E+00 0.  1.
          6    2    1    2  501    0  0.16324015709E+03  0.97155383030E+02  0.35759815735E+03  0.43957687169E+03  0.17106977128E+03 0.  0.
         24    2    3    3    0    0  0.52624979741E+02  0.10269287458E+03  0.16573026855E+03  0.21798770674E+03  0.82078641517E+02 0.  0.
         -6    2    1    2    0  502 -0.16324015709E+03 -0.97155383030E+02  0.19796942209E+03  0.32429827028E+03  0.17289001905E+03 0.  0.
        -24    2    5    5    0    0 -0.71892762469E+02  0.25155629340E+01  0.14225186698E+03  0.17799317837E+03  0.79190154264E+02 0.  0.
          5    1    3    3  501    0  0.11061517735E+03 -0.55374915481E+01  0.19186788879E+03  0.22158916494E+03  0.47000000000E+01 0. -1.
        -13    1    4    4    0    0  0.38083261324E+01  0.47574567288E+02  0.14655561901E+02  0.49926228530E+02  0.00000000000E+00 0.  1.
         14    1    4    4    0    0  0.48816653609E+02  0.55118307289E+02  0.15107470665E+03  0.16806147821E+03  0.00000000000E+00 0. -1.
         -5    1    5    5    0  502 -0.91347394617E+02 -0.99670945964E+02  0.55717555107E+02  0.14630509191E+03  0.47000000000E+01 0.  1.
         11    1    6    6    0    0 -0.71663384884E+02 -0.21499082594E+02  0.13231335615E+03  0.15200222203E+03  0.00000000000E+00 0. -1.
        -12    1    6    6    0    0 -0.22937758473E+00  0.24014645528E+02  0.99385108355E+01  0.25990956341E+02  0.00000000000E+00 0.  1.
</event>
<event>
12    1  0.8358445E-002  0.1854439E+03  0.7818608E-02  0.1162714E+00
         21   -1    0    0  501  502  0.00000000000E+00  0.00000000000E+00  0.62424314503E+03  0.62424314503E+03  0.00000000000E+00 0. -1.
         21   -1    0    0  502  503 -0.00000000000E+00 -0.00000000000E+00 -0.91465993989E+02  0.91465993989E+02  0.00000000000E+00 0. -1.
         -6    2    1    2    0  503  0.46355302404E+02  0.51495017140E+02  0.40258762587E+02  0.18943562233E+03  0.17165237018E+03 0.  0.
        -24    2    3    3    0    0 -0.29934659929E+00  0.92142705095E+02  0.41796012327E+02  0.12736031366E+03  0.77352279459E+02 0.  0.
          6    2    1    2  501    0 -0.46355302404E+02 -0.51495017140E+02  0.49251838845E+03  0.52627351669E+03  0.17201424521E+03 0.  0.
         24    2    5    5    0    0 -0.57019223111E+02 -0.56156702571E+02  0.17600124976E+03  0.20950761007E+03  0.80698399672E+02 0.  0.
          5    1    5    5  501    0  0.10663920707E+02  0.46616854313E+01  0.31651713869E+03  0.31676590663E+03  0.47000000000E+01 0. -1.
        -11    1    6    6    0    0 -0.50277479523E+02 -0.18849942769E+01  0.44812366190E+02  0.67376006962E+02  0.00000000000E+00 0.  1.
         12    1    6    6    0    0 -0.67417435881E+01 -0.54271708294E+02  0.13118888357E+03  0.14213160311E+03  0.00000000000E+00 0. -1.
         -5    1    3    3    0  503  0.46654649003E+02 -0.40647687955E+02 -0.15372497394E+01  0.62075308670E+02  0.47000000000E+01 0.  1.
         13    1    4    4    0    0  0.27729638807E+02  0.39286202977E+02 -0.89458084267E+01  0.48911819646E+02  0.00000000000E+00 0. -1.
        -14    1    4    4    0    0 -0.28028985406E+02  0.52856502117E+02  0.50741820753E+02  0.78448494009E+02  0.00000000000E+00 0.  1.
</event>
<event>
12    1  0.8358445E-002  0.2884534E+03  0.7818608E-02  0.1091402E+00
         21   -1    0    0  501  502  0.00000000000E+00  0.00000000000E+00  0.12826053092E+03  0.12826053092E+03  0.00000000000E+00 0.  1.
         21   -1    0    0  502  503 -0.00000000000E+00 -0.00000000000E+00 -0.14364089689E+04  0.14364089689E+04  0.00000000000E+00 0. -1.
         -6    2    1    2    0  503  0.11570999991E+03  0.19765106391E+03 -0.12339872762E+04  0.12668352643E+04  0.17231436883E+03 0.  0.
        -24    2    3    3    0    0  0.64180202463E+02  0.20943785741E+03 -0.10400458691E+04  0.10657641128E+04  0.78577477021E+02 0.  0.
          6    2    1    2  501    0 -0.11570999991E+03 -0.19765106391E+03 -0.74161161719E+02  0.29783423554E+03  0.17535850937E+03 0.  0.
         24    2    5    5    0    0 -0.12144586326E+03 -0.20574275419E+03 -0.31258162109E+02  0.25354955471E+03  0.78937477724E+02 0.  0.
          5    1    5    5  501    0  0.57358633502E+01  0.80916902889E+01 -0.42902999610E+02  0.44284680823E+02  0.47000000000E+01 0. -1.
        -13    1    6    6    0    0 -0.11073163719E+03 -0.12178664285E+03 -0.40643522138E+01  0.16465114883E+03  0.00000000000E+00 0.  1.
         14    1    6    6    0    0 -0.10714226074E+02 -0.83956111345E+02 -0.27193809895E+02  0.88898405886E+02  0.00000000000E+00 0. -1.
         -5    1    3    3    0  503  0.51529797449E+02 -0.11786793509E+02 -0.19394140715E+03  0.20107115142E+03  0.47000000000E+01 0.  1.
         11    1    4    4    0    0  0.67348399658E+02  0.88108377355E+02 -0.46369460914E+03  0.47677204579E+03  0.00000000000E+00 0. -1.
        -12    1    4    4    0    0 -0.31681971948E+01  0.12132948006E+03 -0.57635125996E+03  0.58899206706E+03  0.00000000000E+00 0.  1.
</event>
<event>
12    1  0.8358445E-002  0.2067425E+03  0.7818608E-02  0.1144407E+00
         21   -1    0    0  501  502  0.00000000000E+00  0.00000000000E+00  0.26322734365E+03  0.26322734365E+03  0.00000000000E+00 0.  1.
         21   -1    0    0  502  503 -0.00000000000E+00 -0.00000000000E+00 -0.18984726631E+03  0.18984726631E+03  0.00000000000E+00 0. -1.
         -6    2    1    2    0  503  0.65443188998E+02  0.93472549909E+02 -0.50985570791E+02  0.21180861089E+03  0.17100710701E+03 0.  0.
        -24    2    3    3    0    0  0.46387221823E+02  0.13195997591E+03 -0.39022154779E+02  0.16697976786E+03  0.82427572569E+02 0.  0.
          6    2    1    2  501    0 -0.65443188998E+02 -0.93472549909E+02  0.12436564814E+03  0.24126599907E+03  0.17240226012E+03 0.  0.
         24    2    5    5    0    0 -0.71369966214E+02 -0.11194709481E+03  0.14531078286E+03  0.21233117289E+03  0.79645961932E+02 0.  0.
          5    1    5    5  501    0  0.59267772162E+01  0.18474544898E+02 -0.20945134722E+02  0.28934826177E+02  0.47000000000E+01 0. -1.
        -11    1    6    6    0    0 -0.14818735488E+02  0.11169972887E+02  0.25032907488E+02  0.31161028113E+02  0.00000000000E+00 0.  1.
         12    1    6    6    0    0 -0.56551230726E+02 -0.12311706769E+03  0.12027787537E+03  0.18117014478E+03  0.00000000000E+00 0. -1.
         -5    1    3    3    0  503  0.19055967175E+02 -0.38487426001E+02 -0.11963416012E+02  0.44828843035E+02  0.47000000000E+01 0.  1.
         11    1    4    4    0    0  0.71022252971E+01  0.73226943199E+02  0.18506074696E+02  0.75862386036E+02  0.00000000000E+00 0. -1.
        -12    1    4    4    0    0  0.39284996526E+02  0.58733032712E+02 -0.57528229475E+02  0.91117381822E+02  0.00000000000E+00 0.  1.
</event>
<event>
12    1  0.8358445E-002  0.1806101E+03  0.7818608E-02  0.1167479E+00
         21   -1    0    0  503  502  0.00000000000E+00  0.00000000000E+00  0.62882573385E+03  0.62882573385E+03  0.00000000000E+00 0. -1.
         21   -1    0    0  501  503 -0.00000000000E+00 -0.00000000000E+00 -0.15483027255E+03  0.15483027255E+03  0.00000000000E+00 0.  1.
          6    2    1    2  501    0 -0.14719803024E+02 -0.52943783349E+02 -0.83246115676E+02  0.19787602098E+03  0.17089554443E+03 0.  0.
         24    2    3    3    0    0 -0.21753785137E+02  0.35715717185E+02 -0.53911753787E+02  0.10410726965E+03  0.78632097613E+02 0.  0.
         -6    2    1    2    0  502  0.14719803024E+02  0.52943783349E+02  0.55724157698E+03  0.58577998543E+03  0.17204737551E+03 0.  0.
        -24    2    5    5    0    0  0.27620032911E+02  0.63407263133E+02  0.18630497568E+03  0.21444192850E+03  0.80575737664E+02 0.  0.
          5    1    3    3  501    0  0.70339821134E+01 -0.88659500534E+02 -0.29334361889E+02  0.93768751334E+02  0.47000000000E+01 0. -1.
        -13    1    4    4    0    0  0.23094500305E+02  0.29696330353E+02 -0.58082670264E+01  0.38065259051E+02  0.00000000000E+00 0.  1.
         14    1    4    4    0    0 -0.44848285442E+02  0.60193868320E+01 -0.48103486760E+02  0.66042010595E+02  0.00000000000E+00 0. -1.
         -5    1    5    5    0  502 -0.12900229887E+02 -0.10463479784E+02  0.37093660129E+03  0.37133805692E+03  0.47000000000E+01 0.  1.
         13    1    6    6    0    0  0.46365884888E+01  0.39944568939E+01  0.12780924383E+03  0.12795568158E+03  0.00000000000E+00 0. -1.
        -14    1    6    6    0    0  0.22983444422E+02  0.59412806239E+02  0.58495731849E+02  0.86486246925E+02  0.00000000000E+00 0.  1.
</event>
<event>
12    1  0.8358445E-002  0.2222444E+03  0.7818608E-02  0.1132348E+00
         21   -1    0    0  503  502  0.00000000000E+00  0.00000000000E+00  0.40964969925E+03  0.40964969925E+03  0.00000000000E+00 0.  1.
         21   -1    0    0  501  503 -0.00000000000E+00 -0.00000000000E+00 -0.12093139890E+03  0.12093139890E+03  0.00000000000E+00 0.  1.
          6    2    1    2  501    0 -0.13744577323E+02  0.14728236890E+03  0.12394228209E+03  0.25446860343E+03  0.16586612447E+03 0.  0.
         24    2    3    3    0    0  0.26922501280E+02  0.93113997558E+02  0.13346632944E+03  0.18590606837E+03  0.85748280127E+02 0.  0.
         -6    2    1    2    0  502  0.13744577323E+02 -0.14728236890E+03  0.16477601826E+03  0.27611249472E+03  0.16494230492E+03 0.  0.
        -24    2    5    5    0    0  0.52232880236E+02 -0.48590017642E+02  0.44320166857E+02  0.11563435977E+03  0.79484365620E+02 0.  0.
          5    1    3    3  501    0 -0.40667078603E+02  0.54168371343E+02 -0.95240473531E+01  0.68562535062E+02  0.47000000000E+01 0. -1.
        -11    1    4    4    0    0 -0.25259635732E+02  0.25533242763E+02  0.72761982677E+02  0.81143710825E+02  0.00000000000E+00 0.  1.
         12    1    4    4    0    0  0.52182137012E+02  0.67580754796E+02  0.60704346765E+02  0.10476235754E+03  0.00000000000E+00 0. -1.
         -5    1    5    5    0  502 -0.38488302913E+02 -0.98692351260E+02  0.12045585141E+03  0.16047813495E+03  0.47000000000E+01 0.  1.
         11    1    6    6    0    0  0.63646955877E+02 -0.21895647124E+02  0.52624004453E+02  0.85437931858E+02  0.00000000000E+00 0. -1.
        -12    1    6    6    0    0 -0.11414075642E+02 -0.26694370518E+02 -0.83038375963E+01  0.30196427917E+02  0.00000000000E+00 0.  1.
</event>
<event>
12    1  0.8358445E-002  0.2127802E+03  0.7818608E-02  0.1139478E+00
         21   -1    0    0  503  502  0.00000000000E+00  0.00000000000E+00  0.37358723316E+03  0.37358723316E+03  0.00000000000E+00 0.  1.
         21   -1    0    0  501  503 -0.00000000000E+00 -0.00000000000E+00 -0.31866921750E+03  0.31866921750E+03  0.00000000000E+00 0.  1.
          6    2    1    2  501    0  0.10048742902E+03  0.73906234578E+02 -0.24519581224E+03  0.32464814214E+03  0.17238206101E+03 0.  0.
         24    2    3    3    0    0  0.10137081509E+03  0.19038389449E+02 -0.23422194279E+03  0.26848964670E+03  0.81168155543E+02 0.  0.
         -6    2    1    2    0  502 -0.10048742902E+03 -0.73906234578E+02  0.30011382789E+03  0.36760830851E+03  0.17177806582E+03 0.  0.
        -24    2    5    5    0    0 -0.30809315491E+02  0.27446557874E+02  0.12493091544E+03  0.15350886700E+03  0.79086731842E+02 0.  0.
          5    1    3    3  501    0 -0.88338607014E+00  0.54867845129E+02 -0.10973869446E+02  0.56158495445E+02  0.47000000000E+01 0. -1.
        -11    1    4    4    0    0  0.55309183814E+02  0.32047151308E+01 -0.20349157794E+03  0.21089854980E+03  0.00000000000E+00 0.  1.
         12    1    4    4    0    0  0.46061631279E+02  0.15833674318E+02 -0.30730364847E+02  0.57591096900E+02  0.00000000000E+00 0. -1.
         -5    1    5    5    0  502 -0.69678113532E+02 -0.10135279245E+03  0.17518291245E+03  0.21409944152E+03  0.47000000000E+01 0.  1.
         13    1    6    6    0    0 -0.23861928814E+02 -0.77376466163E+00 -0.13637223887E+01  0.23913387406E+02  0.00000000000E+00 0. -1.
        -14    1    6    6    0    0 -0.69473866764E+01  0.28220322536E+02  0.12629463783E+03  0.12959547959E+03  0.00000000000E+00 0.  1.
</event>
<event>
12    1  0.8358445E-002  0.4030017E+03  0.7818608E-02  0.1042897E+00
         21   -1    0    0  501  502  0.00000000000E+00  0.00000000000E+00  0.10239818062E+04  0.10239818062E+04  0.00000000000E+00 0. -1.
         21   -1    0    0  502  503 -0.00000000000E+00 -0.00000000000E+00 -0.36302234655E+03  0.36302234655E+03  0.00000000000E+00 0.  1.
         -6    2    1    2    0  503  0.97221432213E+02 -0.35044169765E+03 -0.19112223763E+03  0.44442599251E+03  0.16948558276E+03 0.  0.
        -24    2    3    3    0    0  0.19951488063E+02 -0.21380604417E+03 -0.51018432191E+02  0.23397145497E+03  0.77644542097E+02 0.  0.
          6    2    1    2  501    0 -0.97221432213E+02  0.35044169765E+03  0.85208169725E+03  0.94257816021E+03  0.17363461344E+03 0.  0.
         24    2    5    5    0    0 -0.34659812492E+02  0.21062909978E+03  0.64704666197E+03  0.68660360195E+03  0.84789168914E+02 0.  0.
          5    1    5    5  501    0 -0.62561619721E+02  0.13981259787E+03  0.20503503528E+03  0.25597455826E+03  0.47000000000E+01 0. -1.
        -11    1    6    6    0    0  0.33571524390E+00  0.69007197433E+02  0.33644715063E+03  0.34345129373E+03  0.00000000000E+00 0.  1.
         12    1    6    6    0    0 -0.34995527736E+02  0.14162190235E+03  0.31059951134E+03  0.34315230821E+03  0.00000000000E+00 0. -1.
         -5    1    3    3    0  503  0.77269944150E+02 -0.13663565348E+03 -0.14010380544E+03  0.21045453754E+03  0.47000000000E+01 0.  1.
         13    1    4    4    0    0  0.43572291890E+01 -0.45369989662E+02 -0.45976495105E+02  0.64739937521E+02  0.00000000000E+00 0. -1.
        -14    1    4    4    0    0  0.15594258874E+02 -0.16843605451E+03 -0.50419370863E+01  0.16923151745E+03  0.00000000000E+00 0.  1.
</event>
<event>
12    1  0.8358445E-002  0.1816885E+03  0.7818608E-02  0.1167113E+00
         21   -1    0    0  501  502  0.00000000000E+00  0.00000000000E+00  0.10517826223E+03  0.10517826223E+03  0.00000000000E+00 0. -1.
         21   -1    0    0  502  503 -0.00000000000E+00 -0.00000000000E+00 -0.80463520719E+03  0.80463520719E+03  0.00000000000E+00 0. -1.
         -6    2    1    2    0  503 -0.41916386045E+02 -0.98261634437E+01 -0.70595724585E+03  0.72800874179E+03  0.17253277443E+03 0.  0.
        -24    2    3    3    0    0 -0.31470081801E+02 -0.49829911515E+02 -0.65439922945E+03  0.66175359719E+03  0.78778713817E+02 0.  0.
          6    2    1    2  501    0  0.41916386045E+02  0.98261634437E+01  0.65003008919E+01  0.18180472762E+03  0.17651393193E+03 0.  0.
         24    2    5    5    0    0 -0.77882079401E+01  0.11123900108E+02  0.64821464249E+02  0.10502140339E+03  0.81506291824E+02 0.  0.
          5    1    5    5  501    0  0.49704593985E+02 -0.12977366638E+01 -0.58321163357E+02  0.76783324225E+02  0.47000000000E+01 0. -1.
        -11    1    6    6    0    0  0.30125598923E+01  0.28275903016E+02 -0.79122239456E+01  0.29516190409E+02  0.00000000000E+00 0.  1.
         12    1    6    6    0    0 -0.10800767832E+02 -0.17152002908E+02  0.72733688195E+02  0.75505212985E+02  0.00000000000E+00 0. -1.
         -5    1    3    3    0  503 -0.10446304244E+02  0.40003748071E+02 -0.51558016398E+02  0.66255144608E+02  0.47000000000E+01 0.  1.
         11    1    4    4    0    0  0.11700932514E+02  0.21194398151E+01 -0.33872627421E+03  0.33893493872E+03  0.00000000000E+00 0. -1.
        -12    1    4    4    0    0 -0.43171014315E+02 -0.51949351330E+02 -0.31567295525E+03  0.32281865847E+03  0.00000000000E+00 0.  1.
</event>
<event>
12    1  0.8358445E-002  0.2645593E+03  0.7818608E-02  0.1104487E+00
         21   -1    0    0  503  502  0.00000000000E+00  0.00000000000E+00  0.11780041459E+03  0.11780041459E+03  0.00000000000E+00 0.  1.
         21   -1    0    0  501  503 -0.00000000000E+00 -0.00000000000E+00 -0.63000004530E+03  0.63000004530E+03  0.00000000000E+00 0.  1.
          6    2    1    2  501    0 -0.18593910595E+02 -0.20049473969E+03 -0.16608307504E+03  0.31237029085E+03  0.17160342840E+03 0.  0.
         24    2    3    3    0    0  0.47350185958E+02 -0.14764731387E+03 -0.80858435588E+02  0.19225866171E+03  0.79897039951E+02 0.  0.
         -6    2    1    2    0  502  0.18593910595E+02  0.20049473969E+03 -0.34611655567E+03  0.43543016904E+03  0.17105229566E+03 0.  0.
        -24    2    5    5    0    0 -0.10524756296E+02  0.88536201252E+02 -0.77060619036E+02  0.14252097129E+03  0.80152721872E+02 0.  0.
          5    1    3    3  501    0 -0.65944096553E+02 -0.52847425815E+02 -0.85224639451E+02  0.12011162914E+03  0.47000000000E+01 0. -1.
        -13    1    4    4    0    0  0.19562322936E+02 -0.14482924042E+03 -0.72272583846E+02  0.16303839957E+03  0.00000000000E+00 0.  1.
         14    1    4    4    0    0  0.27787863022E+02 -0.28180734528E+01 -0.85858517418E+01  0.29220262138E+02  0.00000000000E+00 0. -1.
         -5    1    5    5    0  502  0.29118666891E+02  0.11195853844E+03 -0.26905593664E+03  0.29290919776E+03  0.47000000000E+01 0.  1.
         13    1    6    6    0    0 -0.35130177603E+02  0.88234381948E+02 -0.65252016740E+02  0.11522699868E+03  0.00000000000E+00 0. -1.
        -14    1    6    6    0    0  0.24605421307E+02  0.30181930435E+00 -0.11808602295E+02  0.27293972608E+02  0.00000000000E+00 0.  1.
</event>
<event>
12    1  0.8358445E-002  0.2552697E+03  0.7818608E-02  0.1110329E+00
         21   -1    0    0  501  502  0.00000000000E+00  0.00000000000E+00  0.24980029276E+04  0.24980029276E+04  0.00000000000E+00 0.  1.
         21   -1    0    0  502  503 -0.00000000000E+00 -0.00000000000E+00 -0.40414095373E+02  0.40414095373E+02  0.00000000000E+00 0.  1.
         -6    2    1    2    0  503 -0.10496658785E+03 -0.15643320426E+03  0.46458876464E+03  0.52913558632E+03  0.16927024701E+03 0.  0.
        -24    2    3    3    0    0 -0.13023021405E+03 -0.16569273981E+03  0.40531164916E+03  0.46386801224E+03  0.80510913282E+02 0.  0.
          6    2    1    2  501    0  0.10496658785E+03  0.15643320426E+03  0.19930000675E+04  0.20092814366E+04  0.17225936929E+03 0.  0.
         24    2    5    5    0    0  0.11608979638E+03  0.17079825331E+03  0.19494842117E+04  0.19618915631E+04  0.76687218697E+02 0.  0.
          5    1    5    5  501    0 -0.11123208530E+02 -0.14365049048E+02  0.43515855879E+02  0.47389873549E+02  0.47000000000E+01 0. -1.
        -11    1    6    6    0    0  0.10243860931E+03  0.10771371671E+03  0.15632470250E+04  0.15702984349E+04  0.00000000000E+00 0.  1.
         12    1    6    6    0    0  0.13651187077E+02  0.63084536598E+02  0.38623718664E+03  0.39159312815E+03  0.00000000000E+00 0. -1.
         -5    1    3    3    0  503  0.25263626195E+02  0.92595355475E+01  0.59277115475E+02  0.65267574078E+02  0.47000000000E+01 0.  1.
         13    1    4    4    0    0 -0.10928405486E+02 -0.85480208220E+01  0.95934495053E+02  0.96932585066E+02  0.00000000000E+00 0. -1.
        -14    1    4    4    0    0 -0.11930180856E+03 -0.15714471899E+03  0.30937715411E+03  0.36693542717E+03  0.00000000000E+00 0.  1.
</event>
<event>
12    1  0.8358445E-002  0.2113582E+03  0.7818608E-02  0.1142179E+00
         21   -1    0    0  501  502  0.00000000000E+00  0.00000000000E+00  0.57991283963E+03  0.57991283963E+03  0.00000000000E+00 0. -1.
         21   -1    0    0  502  503 -0.00000000000E+00 -0.00000000000E+00 -0.11410617481E+03  0.11410617481E+03  0.00000000000E+00 0.  1.
         -6    2    1    2    0  503  0.85905440694E+02 -0.65732185362E+02  0.24151327749E+02  0.20439495303E+03  0.17173684887E+03 0.  0.
        -24    2    3    3    0    0  0.78319398697E+02  0.24198766008E+01  0.63894335558E+02  0.12499817569E+03  0.73500161859E+02 0.  0.
          6    2    1    2  501    0 -0.85905440694E+02  0.65732185362E+02  0.44165533707E+03  0.48962406141E+03  0.18158144127E+03 0.  0.
         24    2    5    5    0    0 -0.43602135426E+02 -0.35961210139E+02  0.26396078721E+03  0.28051031395E+03  0.76265222739E+02 0.  0.
          5    1    5    5  501    0 -0.42303305268E+02  0.10169339550E+03  0.17769454986E+03  0.20911374746E+03  0.47000000000E+01 0. -1.
        -11    1    6    6    0    0  0.12781992708E+02 -0.11012088046E+02  0.10992878036E+02  0.20136752176E+02  0.00000000000E+00 0.  1.
         12    1    6    6    0    0 -0.56384128133E+02 -0.24949122094E+02  0.25296790918E+03  0.26037356178E+03  0.00000000000E+00 0. -1.
         -5    1    3    3    0  503  0.75860419970E+01 -0.68152061962E+02 -0.39743007809E+02  0.79396777344E+02  0.47000000000E+01 0.  1.
         13    1    4    4    0    0  0.60537593378E+00  0.16047978636E+01  0.44978296692E+02  0.45010987875E+02  0.00000000000E+00 0. -1.
        -14    1    4    4    0    0  0.77714022763E+02  0.81507873721E+00  0.18916038866E+02  0.79987187810E+02  0.00000000000E+00 0.  1.
</event>
<event>
12    1  0.8358445E-002  0.2081713E+03  0.7818608E-02  0.1143123E+00
         21   -1    0    0  503  502  0.00000000000E+00  0.00000000000E+00  0.12804324497E+04  0.12804324497E+04  0.00000000000E+00 0.  1.
         21   -1    0    0  501  503 -0.00000000000E+00 -0.00000000000E+00 -0.74441542880E+02  0.74441542880E+02  0.00000000000E+00 0. -1.
          6    2    1    2  501    0 -0.95831250043E+02 -0.63397632295E+02  0.10254788807E+03  0.23205898552E+03  0.17358690949E+03 0.  0.
         24    2    3    3    0    0  0.72741993645E+01 -0.40250625216E+02  0.86986078365E+02  0.12514417104E+03  0.80134005943E+02 0.  0.
         -6    2    1    2    0  502  0.95831250043E+02  0.63397632295E+02  0.11034430188E+04  0.11228150071E+04  0.17298600002E+03 0.  0.
        -24    2    5    5    0    0  0.61952427777E+02  0.63081012111E+02  0.39826904291E+03  0.41681196100E+03  0.85420506319E+02 0.  0.
          5    1    3    3  501    0 -0.10310544941E+03 -0.23147007079E+02  0.15561809709E+02  0.10691481448E+03  0.47000000000E+01 0. -1.
        -11    1    4    4    0    0 -0.19241792097E+02 -0.51397327894E+02  0.77284839513E+02  0.94788597923E+02  0.00000000000E+00 0.  1.
         12    1    4    4    0    0  0.26515991461E+02  0.11146702678E+02  0.97012388525E+01  0.30355573113E+02  0.00000000000E+00 0. -1.
         -5    1    5    5    0  502  0.33878822267E+02  0.31662018385E+00  0.70517397587E+03  0.70600304610E+03  0.47000000000E+01 0.  1.
         13    1    6    6    0    0  0.14446957000E+02 -0.21478766524E+02  0.89470918228E+02  0.93140201774E+02  0.00000000000E+00 0. -1.
        -14    1    6    6    0    0  0.47505470776E+02  0.84559778634E+02  0.30879812468E+03  0.32367175923E+03  0.00000000000E+00 0.  1.
</event>
<event>
12    1  0.8358445E-002  0.2516953E+03  0.7818608E-02  0.1112571E+00
         21   -1    0    0  501  502  0.00000000000E+00  0.00000000000E+00  0.40486822914E+03  0.40486822914E+03  0.00000000000E+00 0.  1.
         21   -1    0    0  502  503 -0.00000000000E+00 -0.00000000000E+00 -0.15676090737E+03  0.15676090737E+03  0.00000000000E+00 0. -1.
         -6    2    1    2    0  503 -0.16314889542E+03  0.79624689340E+02  0.96197956279E+02  0.26945237260E+03  0.17433554165E+03 0.  0.
        -24    2    3    3    0    0 -0.10150706597E+03 -0.19914040867E+02  0.29472705365E+02  0.13461164041E+03  0.80940718476E+02 0.  0.
          6    2    1    2  501    0  0.16314889542E+03 -0.79624689340E+02  0.15190936549E+03  0.29217676391E+03  0.17126924072E+03 0.  0.
         24    2    5    5    0    0  0.97568071956E+02 -0.31387327467E+02  0.16878786837E+03  0.20890214985E+03  0.68162091465E+02 0.  0.
          5    1    5    5  501    0  0.65580823463E+02 -0.48237361874E+02 -0.16878502883E+02  0.83274614056E+02  0.47000000000E+01 0. -1.
        -13    1    6    6    0    0 -0.76919117484E+00  0.12613838316E+02  0.34494119033E+02  0.36736151404E+02  0.00000000000E+00 0.  1.
         14    1    6    6    0    0  0.98337263131E+02 -0.44001165783E+02  0.13429374934E+03  0.17216599845E+03  0.00000000000E+00 0. -1.
         -5    1    3    3    0  503 -0.61641829453E+02  0.99538730207E+02  0.66725250915E+02  0.13484073220E+03  0.47000000000E+01 0.  1.
         13    1    4    4    0    0 -0.75230228109E+02 -0.37503603996E+02 -0.93076198819E+01  0.84573869025E+02  0.00000000000E+00 0. -1.
        -14    1    4    4    0    0 -0.26276837857E+02  0.17589563129E+02  0.38780325246E+02  0.50037771384E+02  0.00000000000E+00 0.  1.
</event>
<event>
12    1  0.8358445E-002  0.1837668E+03  0.7818608E-02  0.1164436E+00
         21   -1    0    0  501  502  0.00000000000E+00  0.00000000000E+00  0.22285439929E+03  0.22285439929E+03  0.00000000000E+00 0. -1.
         21   -1    0    0  502  503 -0.00000000000E+00 -0.00000000000E+00 -0.17694363816E+03  0.17694363816E+03  0.00000000000E+00 0. -1.
         -6    2    1    2    0  503  0.45102289318E+02 -0.46771830268E+02 -0.53924851712E+02  0.19151536922E+03  0.17189655729E+03 0.  0.
        -24    2    3    3    0    0  0.79182423724E+02  0.22907003671E+02 -0.16890577789E+02  0.10543271763E+03  0.63530931717E+02 0.  0.
          6    2    1    2  501    0 -0.45102289318E+02  0.46771830268E+02  0.99835612842E+02  0.20828266822E+03  0.17085871263E+03 0.  0.
         24    2    5    5    0    0  0.23847084299E+02 -0.21189544643E+02  0.56563652850E+02  0.10213504873E+03  0.78831726628E+02 0.  0.
          5    1    5    5  501    0 -0.68949373616E+02  0.67961374911E+02  0.43271959993E+02  0.10614761949E+03  0.47000000000E+01 0. -1.
        -11    1    6    6    0    0 -0.11803815228E+02  0.14711983623E+02 -0.76752691159E+01  0.20363748969E+02  0.00000000000E+00 0.  1.
         12    1    6    6    0    0  0.35650899527E+02 -0.35901528267E+02  0.64238921966E+02  0.81771299759E+02  0.00000000000E+00 0. -1.
         -5    1    3    3    0  503 -0.34080134406E+02 -0.69678833939E+02 -0.37034273923E+02  0.86082651593E+02  0.47000000000E+01 0.  1.
         13    1    4    4    0    0  0.56804268588E+02 -0.14015682392E+02  0.14453212966E+01  0.58525663058E+02  0.00000000000E+00 0. -1.
        -14    1    4    4    0    0  0.22378155136E+02  0.36922686063E+02 -0.18335899086E+02  0.46907054573E+02  0.00000000000E+00 0.  1.
</event>
<event>
12    1  0.8358445E-002  0.1726245E+03  0.7818608E-02  0.1175460E+00
         21   -1    0    0  503  502  0.00000000000E+00  0.00000000000E+00  0.17211061919E+03  0.17211061919E+03  0.00000000000E+00 0. -1.
         21   -1    0    0  501  503 -0.00000000000E+00 -0.00000000000E+00 -0.20230353880E+03  0.20230353880E+03  0.00000000000E+00 0. -1.
          6    2    1    2  501    0  0.62500742410E+01  0.89025932376E+01 -0.87736641687E+02  0.19364127338E+03  0.17228146989E+03 0.  0.
         24    2    3    3    0    0  0.51386573525E+02 -0.73842876936E+01  0.10091395843E+01  0.92643898403E+02  0.76725262497E+02 0.  0.
         -6    2    1    2    0  502 -0.62500742410E+01 -0.89025932376E+01  0.57543722076E+02  0.18077288461E+03  0.17102408096E+03 0.  0.
        -24    2    5    5    0    0  0.41171917855E+02 -0.42409203164E+02  0.68265983174E+02  0.12153948925E+03  0.81350695483E+02 0.  0.
          5    1    3    3  501    0 -0.45136499284E+02  0.16286880931E+02 -0.88745781271E+02  0.10099737497E+03  0.47000000000E+01 0. -1.
        -13    1    4    4    0    0  0.65015458524E+02 -0.18005027898E+01 -0.19036625386E+02  0.67769054616E+02  0.00000000000E+00 0.  1.
         14    1    4    4    0    0 -0.13628884999E+02 -0.55837849038E+01  0.20045764971E+02  0.24874843787E+02  0.00000000000E+00 0. -1.
         -5    1    5    5    0  502 -0.47421992096E+02  0.33506609927E+02 -0.10722261098E+02  0.59233395363E+02  0.47000000000E+01 0.  1.
         13    1    6    6    0    0 -0.35438077552E+01 -0.53782877083E+02  0.30614927404E+02  0.61987339197E+02  0.00000000000E+00 0. -1.
        -14    1    6    6    0    0  0.44715725611E+02  0.11373673919E+02  0.37651055770E+02  0.59552150053E+02  0.00000000000E+00 0.  1.
</event>
<event>
12    1  0.8358445E-002  0.1857776E+03  0.7818608E-02  0.1162562E+00
         21   -1    0    0  503  502  0.00000000000E+00  0.00000000000E+00  0.69306121224E+02  0.69306121224E+02  0.00000000000E+00 0. -1.
         21   -1    0    0  501  503 -0.00000000000E+00 -0.00000000000E+00 -0.51807778327E+03  0.51807778327E+03  0.00000000000E+00 0. -1.
          6    2    1    2  501    0  0.18805514485E+02  0.66433683121E+02 -0.28660498843E+03  0.34154900985E+03  0.17247093990E+03 0.  0.
         24    2    3    3    0    0 -0.11733721324E+02  0.10132910789E+03 -0.15199287817E+03  0.19909604982E+03  0.78307941602E+02 0.  0.
         -6    2    1    2    0  502 -0.18805514485E+02 -0.66433683121E+02 -0.16216667361E+03  0.24583489464E+03  0.17137585525E+03 0.  0.
        -24    2    5    5    0    0  0.25451521932E+02 -0.81094464030E+00 -0.14145053990E+03  0.16388199796E+03  0.78743992897E+02 0.  0.
          5    1    3    3  501    0  0.30539235809E+02 -0.34895424765E+02 -0.13461211026E+03  0.14245296004E+03  0.47000000000E+01 0. -1.
        -11    1    4    4    0    0 -0.36049125182E+01 -0.12341320873E+02 -0.68748190191E+01  0.14579668436E+02  0.00000000000E+00 0.  1.
         12    1    4    4    0    0 -0.81288088059E+01  0.11367042876E+03 -0.14511805915E+03  0.18451638138E+03  0.00000000000E+00 0. -1.
         -5    1    5    5    0  502 -0.44257036417E+02 -0.65622738481E+02 -0.20716133711E+02  0.81952896679E+02  0.47000000000E+01 0.  1.
         11    1    6    6    0    0  0.57174133081E+01  0.19161514939E+00  0.97993110913E+01  0.11346895133E+02  0.00000000000E+00 0. -1.
        -12    1    6    6    0    0  0.19734108624E+02 -0.10025597897E+01 -0.15124985099E+03  0.15253510283E+03  0.00000000000E+00 0.  1.
</event>
<event>
12    1  0.8358445E-002  0.1912647E+03  0.7818608E-02  0.1158241E+00
         21   -1    0    0  501  502  0.00000000000E+00  0.00000000000E+00  0.40342091212E+04  0.40342091212E+04  0.00000000000E+00 0. -1.
         21   -1    0    0  502  503 -0.00000000000E+00 -0.00000000000E+00 -0.96972677358E+01  0.96972677358E+01  0.00000000000E+00 0. -1.
         -6    2    1    2    0  503  0.43919474660E+02  0.67981618971E+02  0.14045380647E+04  0.14169604756E+04  0.16881763336E+03 0.  0.
        -24    2    3    3    0    0  0.21342252856E+02  0.10914538952E+03  0.90739726385E+03  0.91758561354E+03  0.78900924684E+02 0.  0.
          6    2    1    2  501    0 -0.43919474660E+02 -0.67981618971E+02  0.26199737887E+04  0.26269459133E+04  0.17329673172E+03 0.  0.
         24    2    5    5    0    0 -0.35178713008E+02  0.91837593691E+01  0.19797651870E+04  0.19820272826E+04  0.87407494500E+02 0.  0.
          5    1    5    5  501    0 -0.87407616517E+01 -0.77165378340E+02  0.64020860172E+03  0.64491863072E+03  0.47000000000E+01 0. -1.
        -11    1    6    6    0    0 -0.27784595624E+02 -0.13294871361E+01  0.19407528644E+04  0.19409521973E+04  0.00000000000E+00 0.  1.
         12    1    6    6    0    0 -0.73941173845E+01  0.10513246505E+02  0.39012322560E+02  0.41075085337E+02  0.00000000000E+00 0. -1.
         -5    1    3    3    0  503  0.22577221804E+02 -0.41163770549E+02  0.49714080086E+03  0.49937486203E+03  0.47000000000E+01 0.  1.
         11    1    4    4    0    0 -0.30030862642E+02  0.44831820401E+02  0.34361398745E+03  0.34782512446E+03  0.00000000000E+00 0. -1.
        -12    1    4    4    0    0  0.51373115499E+02  0.64313569119E+02  0.56378327640E+03  0.56976048908E+03  0.00000000000E+00 0.  1.
</event>
<event>
12    1  0.8358445E-002  0.1794222E+03  0.7818608E-02  0.1168913E+00
         21   -1    0    0  503  502  0.00000000000E+00  0.00000000000E+00  0.57363835488E+03  0.57363835488E+03  0.00000000000E+00 0. -1.
         21   -1    0    0  501  503 -0.00000000000E+00 -0.00000000000E+00 -0.67829950962E+02  0.67829950962E+02  0.00000000000E+00 0. -1.
          6    2    1    2  501    0  0.29412204670E+02  0.98964350297E+01  0.39139443002E+03  0.43056001134E+03  0.17671815499E+03 0.  0.
         24    2    3    3    0    0  0.42319621818E+02 -0.55300188637E+02  0.18721427095E+03  0.21578378241E+03  0.81635753503E+02 0.  0.
         -6    2    1    2    0  502 -0.29412204670E+02 -0.98964350297E+01  0.11441397390E+03  0.21090829450E+03  0.17443833884E+03 0.  0.
        -24    2    5    5    0    0 -0.68034480858E+02 -0.22646669747E+02  0.12796634777E+03  0.16778051296E+03  0.81445393544E+02 0.  0.
          5    1    3    3  501    0 -0.12907417148E+02  0.65196623667E+02  0.20418015906E+03  0.21477622892E+03  0.47000000000E+01 0. -1.
        -11    1    4    4    0    0  0.35264399590E+02 -0.76073680751E+02  0.16159783137E+03  0.18205669965E+03  0.00000000000E+00 0.  1.
         12    1    4    4    0    0  0.70552222280E+01  0.20773492113E+02  0.25616439580E+02  0.33727082768E+02  0.00000000000E+00 0. -1.
         -5    1    5    5    0  502  0.38622276188E+02  0.12750234717E+02 -0.13552373876E+02  0.43127781545E+02  0.47000000000E+01 0.  1.
         13    1    6    6    0    0 -0.29595371077E+02 -0.34807671386E+02  0.15403775686E+02  0.48215519098E+02  0.00000000000E+00 0. -1.
        -14    1    6    6    0    0 -0.38439109781E+02  0.12161001639E+02  0.11256257209E+03  0.11956499386E+03  0.00000000000E+00 0.  1.
</event>
<event>
12    1  0.8358445E-002  0.3142766E+03  0.7818608E-02  0.1078505E+00
         21   -1    0    0  501  502  0.00000000000E+00  0.00000000000E+00  0.46329630458E+03  0.46329630458E+03  0.00000000000E+00 0.  1.
         21   -1    0    0  502  503 -0.00000000000E+00 -0.00000000000E+00 -0.11905352168E+04  0.11905352168E+04  0.00000000000E+00 0. -1.
         -6    2    1    2    0  503  0.23916854412E+03 -0.11117059056E+03 -0.11131001346E+04  0.11561783899E+04  0.16791684528E+03 0.  0.
        -24    2    3    3    0    0  0.74381490591E+02 -0.30581944893E+02 -0.26205657156E+03  0.28557713846E+03  0.80079921437E+02 0.  0.
          6    2    1    2  501    0 -0.23916854412E+03  0.11117059056E+03  0.38586122233E+03  0.49765313153E+03  0.17090717866E+03 0.  0.
         24    2    5    5    0    0 -0.94217442170E+02  0.35475782250E+02  0.26245460687E+03  0.29273410191E+03  0.81702975550E+02 0.  0.
          5    1    5    5  501    0 -0.14495110195E+03  0.75694808309E+02  0.12340661546E+03  0.20491902962E+03  0.47000000000E+01 0. -1.
        -11    1    6    6    0    0 -0.94589201404E+02  0.49764838372E+02  0.25525654348E+03  0.27673011970E+03  0.00000000000E+00 0.  1.
         12    1    6    6    0    0  0.37175923387E+00 -0.14289056122E+02  0.71980633954E+01  0.16003982206E+02  0.00000000000E+00 0. -1.
         -5    1    3    3    0  503  0.16478705353E+03 -0.80588645666E+02 -0.85104356300E+03  0.87060125141E+03  0.47000000000E+01 0.  1.
         13    1    4    4    0    0  0.64709954994E+02 -0.40547782073E+02 -0.26066468145E+03  0.27162028102E+03  0.00000000000E+00 0. -1.
        -14    1    4    4    0    0  0.96715355965E+01  0.99658371799E+01 -0.13918901096E+01  0.13956857439E+02  0.00000000000E+00 0.  1.
</event>
<event>
12    1  0.8358445E-002  0.2079220E+03  0.7818608E-02  0.1143282E+00
         21   -1    0    0  501  502  0.00000000000E+00  0.00000000000E+00  0.67910330558E+03  0.67910330558E+03  0.00000000000E+00 0. -1.
         21   -1    0    0  502  503 -0.00000000000E+00 -0.00000000000E+00 -0.64524944619E+02  0.64524944619E+02  0.00000000000E+00 0.  1.
         -6    2    1    2    0  503  0.69399378944E+02 -0.92979361855E+02  0.26222776675E+03  0.33465645132E+03  0.17254014960E+03 0.  0.
        -24    2    3    3    0    0 -0.15816880901E+02 -0.27209863645E+02  0.18281754336E+03  0.20080761339E+03  0.76882332381E+02 0.  0.
          6    2    1    2  501    0 -0.69399378944E+02  0.92979361855E+02  0.35235059421E+03  0.40897179888E+03  0.17217884745E+03 0.  0.
         24    2    5    5    0    0 -0.76467467417E+02  0.10314414819E+03  0.18225287674E+03  0.23835936016E+03  0.84339104921E+02 0.  0.
          5    1    5    5  501    0  0.70680884728E+01 -0.10164786335E+02  0.17009771747E+03  0.17061243871E+03  0.47000000000E+01 0. -1.
        -11    1    6    6    0    0 -0.42647854545E+00  0.70505483765E+02  0.92048040605E+02  0.11594846659E+03  0.00000000000E+00 0.  1.
         12    1    6    6    0    0 -0.76040988871E+02  0.32638664425E+02  0.90204836135E+02  0.12241089358E+03  0.00000000000E+00 0. -1.
         -5    1    3    3    0  503  0.85216259845E+02 -0.65769498210E+02  0.79410223386E+02  0.13384883793E+03  0.47000000000E+01 0.  1.
         13    1    4    4    0    0 -0.29657778113E+02 -0.45408729021E+02  0.88824721158E+02  0.10407385629E+03  0.00000000000E+00 0. -1.
        -14    1    4    4    0    0  0.13840897212E+02  0.18198865376E+02  0.93992822206E+02  0.96733757101E+02  0.00000000000E+00 0.  1.
</event>
<event>
12    1  0.8358445E-002  0.1912446E+03  0.7818608E-02  0.1157571E+00
         21   -1    0    0  501  502  0.00000000000E+00  0.00000000000E+00  0.30531177589E+03  0.30531177589E+03  0.00000000000E+00 0. -1.
         21   -1    0    0  502  503 -0.00000000000E+00 -0.00000000000E+00 -0.19071499672E+03  0.19071499672E+03  0.00000000000E+00 0. -1.
         -6    2    1    2    0  503 -0.68012109813E+02 -0.45247069966E+02 -0.94523106223E+02  0.21332866584E+03  0.17292066863E+03 0.  0.
        -24    2    3    3    0    0  0.25211406393E+02  0.12583074481E+01 -0.19116282712E+02  0.84636579318E+02  0.78490253815E+02 0.  0.
          6    2    1    2  501    0  0.68012109813E+02  0.45247069966E+02  0.20911988538E+03  0.28269810677E+03  0.17179682385E+03 0.  0.
         24    2    5    5    0    0  0.38502560566E+02 -0.36185993073E+02  0.69041808975E+02  0.11793732641E+03  0.79690453068E+02 0.  0.
          5    1    5    5  501    0  0.29509549246E+02  0.81433063038E+02  0.14007807641E+03  0.16476078035E+03  0.47000000000E+01 0. -1.
        -13    1    6    6    0    0  0.26737221788E+02  0.10948845488E+02 -0.50584831632E+01  0.29331629657E+02  0.00000000000E+00 0.  1.
         14    1    6    6    0    0  0.11765338779E+02 -0.47134838561E+02  0.74100292138E+02  0.88605696756E+02  0.00000000000E+00 0. -1.
         -5    1    3    3    0  503 -0.93223516205E+02 -0.46505377414E+02 -0.75406823511E+02  0.12869208652E+03  0.47000000000E+01 0.  1.
         11    1    4    4    0    0  0.14890121195E+02 -0.36714946257E+02 -0.21751154880E+02  0.45197519030E+02  0.00000000000E+00 0. -1.
        -12    1    4    4    0    0  0.10321285198E+02  0.37973253705E+02  0.26348721682E+01  0.39439060288E+02  0.00000000000E+00 0.  1.
</event>
<event>
12    1  0.8358445E-002  0.1803117E+03  0.7818608E-02  0.1167978E+00
         21   -1    0    0  503  502  0.00000000000E+00  0.00000000000E+00  0.32634236231E+03  0.32634236231E+03  0.00000000000E+00 0. -1.
         21   -1    0    0  501  503 -0.00000000000E+00 -0.00000000000E+00 -0.11367334710E+03  0.11367334710E+03  0.00000000000E+00 0. -1.
          6    2    1    2  501    0 -0.10316636154E+02 -0.36278301192E+02  0.25571018530E+02  0.18017347930E+03  0.17431597039E+03 0.  0.
         24    2    3    3    0    0  0.57818033115E+02 -0.47565279121E+02  0.70294680028E+01  0.10851032193E+03  0.78228484677E+02 0.  0.
         -6    2    1    2    0  502  0.10316636154E+02  0.36278301192E+02  0.18709799669E+03  0.25984223011E+03  0.17632293120E+03 0.  0.
        -24    2    5    5    0    0  0.45373162125E+02  0.76599470013E+01  0.19270280923E+03  0.21400039187E+03  0.80897443757E+02 0.  0.
          5    1    3    3  501    0 -0.68134669269E+02  0.11286977929E+02  0.18541550527E+02  0.71663157362E+02  0.47000000000E+01 0. -1.
        -11    1    4    4    0    0  0.13923529633E+02 -0.56067504877E+02  0.21308785035E+02  0.61575109421E+02  0.00000000000E+00 0.  1.
         12    1    4    4    0    0  0.43894503482E+02  0.85022257563E+01 -0.14279317032E+02  0.46935212513E+02  0.00000000000E+00 0. -1.
         -5    1    5    5    0  502 -0.35056525971E+02  0.28618354190E+02 -0.56048125426E+01  0.45841838241E+02  0.47000000000E+01 0.  1.
         11    1    6    6    0    0  0.24947899754E+02  0.40936355718E+02  0.14283647359E+03  0.15066665560E+03  0.00000000000E+00 0. -1.
        -12    1    6    6    0    0  0.20425262371E+02 -0.33276408717E+02  0.49866335639E+02  0.63333736271E+02  0.00000000000E+00 0.  1.
</event>
<event>
12    1  0.8358445E-002  0.1776772E+03  0.7818608E-02  0.1170765E+00
         21   -1    0    0  503  502  0.00000000000E+00  0.00000000000E+00  0.86081848770E+02  0.86081848770E+02  0.00000000000E+00 0. -1.
         21   -1    0    0  501  503 -0.00000000000E+00 -0.00000000000E+00 -0.52994729885E+03  0.52994729885E+03  0.00000000000E+00 0. -1.
          6    2    1    2  501    0 -0.30231112851E+02 -0.14797343260E+01 -0.39705355047E+03  0.43499508662E+03  0.17508024917E+03 0.  0.
         24    2    3    3    0    0 -0.89854246295E+01  0.50513876934E+02 -0.34368994535E+03  0.35737756779E+03  0.83447934672E+02 0.  0.
         -6    2    1    2    0  502  0.30231112851E+02  0.14797343260E+01 -0.46811899618E+02  0.18103406100E+03  0.17223782250E+03 0.  0.
        -24    2    5    5    0    0 -0.20833358368E+02  0.37949175046E+02  0.15218695367E+02  0.92674086795E+02  0.80515271639E+02 0.  0.
          5    1    3    3  501    0 -0.21245688221E+02 -0.51993611260E+02 -0.53363605113E+02  0.77617518837E+02  0.47000000000E+01 0. -1.
        -11    1    4    4    0    0  0.32992650475E+02  0.92166164138E+01 -0.77197028498E+02  0.84456155563E+02  0.00000000000E+00 0.  1.
         12    1    4    4    0    0 -0.41978075105E+02  0.41297260520E+02 -0.26649291685E+03  0.27292141222E+03  0.00000000000E+00 0. -1.
         -5    1    5    5    0  502  0.51064471219E+02 -0.36469440720E+02 -0.62030594984E+02  0.88359974205E+02  0.47000000000E+01 0.  1.
         13    1    6    6    0    0 -0.10533873268E+02 -0.10111174601E+02  0.36349730654E+02  0.39172710609E+02  0.00000000000E+00 0. -1.
        -14    1    6    6    0    0 -0.10299485100E+02  0.48060349647E+02 -0.21131035287E+02  0.53501376186E+02  0.00000000000E+00 0.  1.
</event>
<event>
12    1  0.8358445E-002  0.1776034E+03  0.7818608E-02  0.1170329E+00
         21   -1    0    0  501  502  0.00000000000E+00  0.00000000000E+00  0.15670608328E+03  0.15670608328E+03  0.00000000000E+00 0. -1.
         21   -1    0    0  502  503 -0.00000000000E+00 -0.00000000000E+00 -0.21015223733E+03  0.21015223733E+03  0.00000000000E+00 0. -1.
         -6    2    1    2    0  503 -0.40287944548E+02  0.32092161382E+01  0.12775775807E+02  0.17731067042E+03  0.17216978786E+03 0.  0.
        -24    2    3    3    0    0 -0.91540014025E+02 -0.19113002751E+01  0.28842780613E+02  0.12315134105E+03  0.77143499869E+02 0.  0.
          6    2    1    2  501    0  0.40287944548E+02 -0.32092161382E+01 -0.66221929851E+02  0.18954765019E+03  0.17294377745E+03 0.  0.
         24    2    5    5    0    0 -0.41178763284E+02 -0.77415699957E+01 -0.10335155140E+02  0.90538618768E+02  0.79591479475E+02 0.  0.
          5    1    5    5  501    0  0.81466707832E+02  0.45323538575E+01 -0.55886774711E+02  0.99009031427E+02  0.47000000000E+01 0. -1.
        -13    1    6    6    0    0 -0.58063493563E+02 -0.26350739109E+02 -0.13607412509E+02  0.65198868177E+02  0.00000000000E+00 0.  1.
         14    1    6    6    0    0  0.16884730279E+02  0.18609169114E+02  0.32722573689E+01  0.25339750591E+02  0.00000000000E+00 0. -1.
         -5    1    3    3    0  503  0.51252069478E+02  0.51205164133E+01 -0.16067004806E+02  0.54159329368E+02  0.47000000000E+01 0.  1.
         13    1    4    4    0    0 -0.34781759801E+01  0.16768856679E+02 -0.15231948922E+02  0.22919522910E+02  0.00000000000E+00 0. -1.
        -14    1    4    4    0    0 -0.88061838045E+02 -0.18680156954E+02  0.44074729535E+02  0.10023181814E+03  0.00000000000E+00 0.  1.
</event>
<event>
12    1  0.8358445E-002  0.3033484E+03  0.7818608E-02  0.1083650E+00
         21   -1    0    0  503  502  0.00000000000E+00  0.00000000000E+00  0.12957489728E+04  0.12957489728E+04  0.00000000000E+00 0. -1.
         21   -1    0    0  501  503 -0.00000000000E+00 -0.00000000000E+00 -0.74250968388E+02  0.74250968388E+02  0.00000000000E+00 0.  1.
          6    2    1    2  501    0  0.11303272099E+03  0.22225822731E+03  0.75610340778E+03  0.81447104709E+03  0.17174285333E+03 0.  0.
         24    2    3    3    0    0  0.98281984853E+02  0.24433842382E+03  0.67501661261E+03  0.72901768176E+03  0.80366281016E+02 0.  0.
         -6    2    1    2    0  502 -0.11303272099E+03 -0.22225822731E+03  0.46539459659E+03  0.55552889406E+03  0.17275736157E+03 0.  0.
        -24    2    5    5    0    0 -0.11251297186E+03 -0.17974969415E+03  0.45950937117E+03  0.51235515889E+03  0.79936382553E+02 0.  0.
          5    1    3    3  501    0  0.14750736135E+02 -0.22080196511E+02  0.81086795173E+02  0.85453365328E+02  0.47000000000E+01 0. -1.
        -11    1    4    4    0    0  0.40527074437E+02  0.47794312423E+02  0.94246438141E+02  0.11317743222E+03  0.00000000000E+00 0.  1.
         12    1    4    4    0    0  0.57754910416E+02  0.19654411140E+03  0.58077017447E+03  0.61584024954E+03  0.00000000000E+00 0. -1.
         -5    1    5    5    0  502 -0.51974912497E+00 -0.42508533161E+02  0.58852254188E+01  0.43173735174E+02  0.47000000000E+01 0.  1.
         11    1    6    6    0    0  0.72996587383E+01 -0.47330090770E+02  0.10515970631E+03  0.11555079550E+03  0.00000000000E+00 0. -1.
        -12    1    6    6    0    0 -0.11981263060E+03 -0.13241960338E+03  0.35434966486E+03  0.39680436338E+03  0.00000000000E+00 0.  1.
</event>
<event>
12    1  0.8358445E-002  0.1778739E+03  0.7818608E-02  0.1169902E+00
         21   -1    0    0  501  502  0.00000000000E+00  0.00000000000E+00  0.12327504105E+03  0.12327504105E+03  0.00000000000E+00 0.  1.
         21   -1    0    0  502  503 -0.00000000000E+00 -0.00000000000E+00 -0.25949418629E+03  0.25949418629E+03  0.00000000000E+00 0.  1.
         -6    2    1    2    0  503  0.48110429033E+02  0.43139777608E+01 -0.47543182819E+02  0.18401671587E+03  0.17108060586E+03 0.  0.
        -24    2    3    3    0    0 -0.29344826092E+02 -0.19862542756E+01 -0.61448680693E+02  0.10493155708E+03  0.79809944795E+02 0.  0.
          6    2    1    2  501    0 -0.48110429033E+02 -0.43139777608E+01 -0.88675962424E+02  0.19875251147E+03  0.17118969221E+03 0.  0.
         24    2    5    5    0    0 -0.73401813668E+02 -0.40474641690E+02 -0.96917733771E+02  0.15361644443E+03  0.84728637491E+02 0.  0.
          5    1    5    5  501    0  0.25291384635E+02  0.36160663929E+02  0.82417713477E+01  0.45136067037E+02  0.47000000000E+01 0. -1.
        -11    1    6    6    0    0  0.58087554158E+01 -0.34530086022E+02 -0.11224201308E+02  0.36770248505E+02  0.00000000000E+00 0.  1.
         12    1    6    6    0    0 -0.79210569084E+02 -0.59445556686E+01 -0.85693532463E+02  0.11684619593E+03  0.00000000000E+00 0. -1.
         -5    1    3    3    0  503  0.77455255126E+02  0.63002320364E+01  0.13905497874E+02  0.79085158794E+02  0.47000000000E+01 0.  1.
         11    1    4    4    0    0 -0.11493535579E+02  0.38698330075E+02 -0.33351162479E+02  0.52363748428E+02  0.00000000000E+00 0. -1.
        -12    1    4    4    0    0 -0.17851290513E+02 -0.40684584351E+02 -0.28097518214E+02  0.52567808653E+02  0.00000000000E+00 0.  1.
</event>
<event>
12    1  0.8358445E-002  0.3070416E+03  0.7818608E-02  0.1081832E+00
         21   -1    0    0  501  502  0.00000000000E+00  0.00000000000E+00  0.64579516252E+03  0.64579516252E+03  0.00000000000E+00 0.  1.
         21   -1    0    0  502  503 -0.00000000000E+00 -0.00000000000E+00 -0.14590593684E+03  0.14590593684E+03  0.00000000000E+00 0.  1.
         -6    2    1    2    0  503  0.17469034931E+03  0.18443361560E+03  0.26266061324E+03  0.40369086966E+03  0.17159033711E+03 0.  0.
        -24    2    3    3    0    0  0.17643153115E+03  0.19926549704E+03  0.20810024230E+03  0.34692873000E+03  0.78860695881E+02 0.  0.
          6    2    1    2  501    0 -0.17469034931E+03 -0.18443361560E+03  0.23722861244E+03  0.38801022971E+03  0.17245882724E+03 0.  0.
         24    2    5    5    0    0 -0.15316722111E+03 -0.17623939305E+03  0.25807039091E+03  0.35659590080E+03  0.77716076318E+02 0.  0.
          5    1    5    5  501    0 -0.21523128206E+02 -0.81942225467E+01 -0.20841778469E+02  0.31414328907E+02  0.47000000000E+01 0. -1.
        -11    1    6    6    0    0 -0.14924632444E+03 -0.13559728340E+03  0.23516161572E+03  0.30977745905E+03  0.00000000000E+00 0.  1.
         12    1    6    6    0    0 -0.39208966654E+01 -0.40642109651E+02  0.22908775190E+02  0.46818441754E+02  0.00000000000E+00 0. -1.
         -5    1    3    3    0  503 -0.17411818393E+01 -0.14831881446E+02  0.54560370941E+02  0.56762139659E+02  0.47000000000E+01 0.  1.
         13    1    4    4    0    0  0.15172564141E+02 -0.50029889768E+01  0.47903418442E+01  0.16678848171E+02  0.00000000000E+00 0. -1.
        -14    1    4    4    0    0  0.16125896701E+03  0.20426848602E+03  0.20330990046E+03  0.33024988183E+03  0.00000000000E+00 0.  1.
</event>
<event>
12    1  0.8358445E-002  0.2060561E+03  0.7818608E-02  0.1144756E+00
         21   -1    0    0  501  502  0.00000000000E+00  0.00000000000E+00  0.52759244520E+03  0.52759244520E+03  0.00000000000E+00 0.  1.
         21   -1    0    0  502  503 -0.00000000000E+00 -0.00000000000E+00 -0.15900159505E+03  0.15900159505E+03  0.00000000000E+00 0. -1.
         -6    2    1    2    0  503  0.10634284463E+03  0.38435709904E+02 -0.57009590096E+02  0.21379711489E+03  0.17225855153E+03 0.  0.
        -24    2    3    3    0    0  0.76686718324E+02 -0.38182069447E+02 -0.58968202228E+02  0.13148249832E+03  0.80446723336E+02 0.  0.
          6    2    1    2  501    0 -0.10634284463E+03 -0.38435709904E+02  0.42560044025E+03  0.47279692536E+03  0.17209036431E+03 0.  0.
         24    2    5    5    0    0 -0.89145757686E+02 -0.69210469126E+02  0.41213048245E+03  0.43476594631E+03  0.80204977121E+02 0.  0.
          5    1    5    5  501    0 -0.17197086945E+02  0.30774759221E+02  0.13469957799E+02  0.38030979051E+02  0.47000000000E+01 0. -1.
        -11    1    6    6    0    0  0.60969252310E+01 -0.37341767702E+02  0.12307885658E+03  0.12876329077E+03  0.00000000000E+00 0.  1.
         12    1    6    6    0    0 -0.95242682917E+02 -0.31868701424E+02  0.28905162586E+03  0.30600265553E+03  0.00000000000E+00 0. -1.
         -5    1    3    3    0  503  0.29656126306E+02  0.76617779352E+02  0.19586121322E+01  0.82314616574E+02  0.47000000000E+01 0.  1.
         13    1    4    4    0    0  0.49812335299E+02 -0.21499278413E+02 -0.77665205173E+02  0.94738438951E+02  0.00000000000E+00 0. -1.
        -14    1    4    4    0    0  0.26874383026E+02 -0.16682791034E+02  0.18697002945E+02  0.36744059368E+02  0.00000000000E+00 0.  1.
</event>
<event>
12    1  0.8358445E-002  0.3385779E+03  0.7818608E-02  0.1067466E+00
         21   -1    0    0  501  502  0.00000000000E+00  0.00000000000E+00  0.98643194608E+03  0.98643194608E+03  0.00000000000E+00 0.  1.
         21   -1    0    0  502  503 -0.00000000000E+00 -0.00000000000E+00 -0.11672263353E+03  0.11672263353E+03  0.00000000000E+00 0. -1.
         -6    2    1    2    0  503  0.28985339145E+03 -0.28338903588E+02  0.39140441825E+03  0.51714212974E+03  0.17152399756E+03 0.  0.
        -24    2    3    3    0    0  0.93656645800E+02  0.25840026299E+02  0.93975225677E+02  0.15670526420E+03  0.79283809984E+02 0.  0.
          6    2    1    2  501    0 -0.28985339145E+03  0.28338903588E+02  0.47830489431E+03  0.58601244987E+03  0.17267581619E+03 0.  0.
         24    2    5    5    0    0 -0.26953192890E+03  0.68520957570E+02  0.44095526119E+03  0.52732135688E+03  0.79269721399E+02 0.  0.
          5    1    5    5  501    0 -0.20321462558E+02 -0.40182053983E+02  0.37349633114E+02  0.58691092991E+02  0.47000000000E+01 0. -1.
        -13    1    6    6    0    0  0.28529342993E+01 -0.32839351085E+01  0.22303333507E+02  0.22723603355E+02  0.00000000000E+00 0.  1.
         14    1    6    6    0    0 -0.27238486320E+03  0.71804892679E+02  0.41865192769E+03  0.50459775353E+03  0.00000000000E+00 0. -1.
         -5    1    3    3    0  503  0.19619674565E+03 -0.54178929887E+02  0.29742919257E+03  0.36043686554E+03  0.47000000000E+01 0.  1.
         11    1    4    4    0    0  0.15164598578E+02 -0.26688653627E+02  0.18832101433E+02  0.36012460716E+02  0.00000000000E+00 0. -1.
        -12    1    4    4    0    0  0.78492047221E+02  0.52528679926E+02  0.75143124243E+02  0.12069280348E+03  0.00000000000E+00 0.  1.
</event>
<event>
12    1  0.8358445E-002  0.1779199E+03  0.7818608E-02  0.1170099E+00
         21   -1    0    0  503  502  0.00000000000E+00  0.00000000000E+00  0.20701484447E+03  0.20701484447E+03  0.00000000000E+00 0.  1.
         21   -1    0    0  501  503 -0.00000000000E+00 -0.00000000000E+00 -0.15905108717E+03  0.15905108717E+03  0.00000000000E+00 0.  1.
          6    2    1    2  501    0  0.39079979101E+02 -0.16802647776E+02 -0.14672586389E+02  0.17744250306E+03  0.17164202096E+03 0.  0.
         24    2    3    3    0    0  0.35420250070E+02  0.40806648645E+02  0.23323368799E+01  0.11708124010E+03  0.10384026338E+03 0.  0.
         -6    2    1    2    0  502 -0.39079979101E+02  0.16802647776E+02  0.62636343687E+02  0.18862342859E+03  0.17275969588E+03 0.  0.
        -24    2    5    5    0    0  0.43294508453E+02 -0.25917141129E+01  0.50248239638E+02  0.10296566423E+03  0.78714109149E+02 0.  0.
          5    1    3    3  501    0  0.36597290310E+01 -0.57609296422E+02 -0.17004923269E+02  0.60361262960E+02  0.47000000000E+01 0. -1.
        -11    1    4    4    0    0  0.76043977387E+01 -0.24286527439E+02 -0.29931335924E+02  0.39288002624E+02  0.00000000000E+00 0.  1.
         12    1    4    4    0    0  0.27815852331E+02  0.65093176084E+02  0.32263672804E+02  0.77793237472E+02  0.00000000000E+00 0. -1.
         -5    1    5    5    0  502 -0.82374487553E+02  0.19394361889E+02  0.12388104049E+02  0.85657764357E+02  0.47000000000E+01 0.  1.
         11    1    6    6    0    0 -0.61012811953E+01 -0.27153108164E+02 -0.74812883841E+00  0.27840197771E+02  0.00000000000E+00 0. -1.
        -12    1    6    6    0    0  0.49395789648E+02  0.24561394051E+02  0.50996368476E+02  0.75125466457E+02  0.00000000000E+00 0.  1.
</event>
<event>
12    1  0.8358445E-002  0.1859824E+03  0.7818608E-02  0.1162165E+00
         21   -1    0    0  503  502  0.00000000000E+00  0.00000000000E+00  0.15112987305E+03  0.15112987305E+03  0.00000000000E+00 0. -1.
         21   -1    0    0  501  503 -0.00000000000E+00 -0.00000000000E+00 -0.24094880643E+03  0.24094880643E+03  0.00000000000E+00 0.  1.
          6    2    1    2  501    0  0.50302109454E+02  0.50275255804E+02 -0.72041208497E+00  0.18585545557E+03  0.17170855486E+03 0.  0.
         24    2    3    3    0    0  0.21993559935E+02 -0.62861854342E+01  0.56492632158E+02  0.10043887028E+03  0.79833053116E+02 0.  0.
         -6    2    1    2    0  502 -0.50302109454E+02 -0.50275255804E+02 -0.89098521297E+02  0.20622322390E+03  0.17184751385E+03 0.  0.
        -24    2    5    5    0    0 -0.32669158354E+02  0.37568251806E+02 -0.35186947608E+02  0.10155254715E+03  0.81216692246E+02 0.  0.
          5    1    3    3  501    0  0.28308549518E+02  0.56561441238E+02 -0.57213044243E+02  0.85416585289E+02  0.47000000000E+01 0. -1.
        -11    1    4    4    0    0 -0.10061058677E+02 -0.53076899686E-01 -0.17148580871E+02  0.19882191648E+02  0.00000000000E+00 0.  1.
         12    1    4    4    0    0  0.32054618612E+02 -0.62331085345E+01  0.73641213029E+02  0.80556678636E+02  0.00000000000E+00 0. -1.
         -5    1    5    5    0  502 -0.17632951099E+02 -0.87843507610E+02 -0.53911573690E+02  0.10467067675E+03  0.47000000000E+01 0.  1.
         13    1    6    6    0    0 -0.33955334103E+02  0.79271437246E+01  0.19048613046E+02  0.39732278825E+02  0.00000000000E+00 0. -1.
        -14    1    6    6    0    0  0.12861757486E+01  0.29641108081E+02 -0.54235560653E+02  0.61820268325E+02  0.00000000000E+00 0.  1.
</event>
<event>
12    1  0.8358445E-002  0.2779262E+03  0.7818608E-02  0.1096928E+00
         21   -1    0    0  501  502  0.00000000000E+00  0.00000000000E+00  0.60407657788E+02  0.60407657788E+02  0.00000000000E+00 0. -1.
         21   -1    0    0  502  503 -0.00000000000E+00 -0.00000000000E+00 -0.13656388013E+04  0.13656388013E+04  0.00000000000E+00 0.  1.
         -6    2    1    2    0  503 -0.66663792750E+02 -0.20737502228E+03 -0.47007371122E+03  0.54608814444E+03  0.17261085246E+03 0.  0.
        -24    2    3    3    0    0 -0.12303487688E+02 -0.21089343096E+03 -0.37371476062E+03  0.43529753415E+03  0.72068064414E+02 0.  0.
          6    2    1    2  501    0  0.66663792750E+02  0.20737502228E+03 -0.83515743230E+03  0.87995831465E+03  0.17143581212E+03 0.  0.
         24    2    5    5    0    0  0.87814074666E+02  0.11113807731E+03 -0.62510920660E+03  0.64789963431E+03  0.94601437773E+02 0.  0.
          5    1    5    5  501    0 -0.21150281917E+02  0.96236944974E+02 -0.21004822569E+03  0.23205868034E+03  0.47000000000E+01 0. -1.
        -11    1    6    6    0    0  0.52624143200E+02  0.12174174840E+03 -0.45928251972E+03  0.47804893753E+03  0.00000000000E+00 0.  1.
         12    1    6    6    0    0  0.35189931466E+02 -0.10603671086E+02 -0.16582668688E+03  0.16985069679E+03  0.00000000000E+00 0. -1.
         -5    1    3    3    0  503 -0.54360305062E+02  0.35184086724E+01 -0.96358950605E+02  0.11079061029E+03  0.47000000000E+01 0.  1.
         13    1    4    4    0    0 -0.21735424753E+02 -0.11598682270E+03 -0.14142972703E+03  0.18419484091E+03  0.00000000000E+00 0. -1.
        -14    1    4    4    0    0  0.94319370653E+01 -0.94906608255E+02 -0.23228503358E+03  0.25110269324E+03  0.00000000000E+00 0.  1.
</event>
<event>
12    1  0.8358445E-002  0.2171175E+03  0.7818608E-02  0.1136108E+00
         21   -1    0    0  501  502  0.00000000000E+00  0.00000000000E+00  0.18466568302E+03  0.18466568302E+03  0.00000000000E+00 0.  1.
         21   -1    0    0  502  503 -0.00000000000E+00 -0.00000000000E+00 -0.25944531604E+03  0.25944531604E+03  0.00000000000E+00 0. -1.
         -6    2    1    2    0  503  0.12997257026E+03  0.27191172840E+02 -0.66756060118E+02  0.22714836680E+03  0.17177828756E+03 0.  0.
        -24    2    3    3    0    0  0.40042038150E+02  0.11810041378E+02 -0.95909321727E+02  0.13125216003E+03  0.79282341177E+02 0.  0.
          6    2    1    2  501    0 -0.12997257026E+03 -0.27191172840E+02 -0.80235728981E+01  0.21696263226E+03  0.17139479915E+03 0.  0.
         24    2    5    5    0    0 -0.25815953502E+02 -0.65402952101E+02 -0.86079511869E+01  0.10591682016E+03  0.78741770172E+02 0.  0.
          5    1    5    5  501    0 -0.10415661676E+03  0.38211779261E+02  0.58437828877E+00  0.11104581211E+03  0.47000000000E+01 0. -1.
        -13    1    6    6    0    0 -0.32834024884E+02 -0.19251861720E+02  0.27452571561E+02  0.46929213237E+02  0.00000000000E+00 0.  1.
         14    1    6    6    0    0  0.70180713818E+01 -0.46151090381E+02 -0.36060522748E+02  0.58987606920E+02  0.00000000000E+00 0. -1.
         -5    1    3    3    0  503  0.89930532108E+02  0.15381131462E+02  0.29153261610E+02  0.95896206769E+02  0.47000000000E+01 0.  1.
         13    1    4    4    0    0 -0.20937874558E+02 -0.11567351430E+02 -0.20584253209E+02  0.31558036857E+02  0.00000000000E+00 0. -1.
        -14    1    4    4    0    0  0.60979912708E+02  0.23377392807E+02 -0.75325068518E+02  0.99694123175E+02  0.00000000000E+00 0.  1.
</event>
<event>
12    1  0.8358445E-002  0.2172211E+03  0.7818608E-02  0.1135983E+00
         21   -1    0    0  503  502  0.00000000000E+00  0.00000000000E+00  0.60131745436E+03  0.60131745436E+03  0.00000000000E+00 0. -1.
         21   -1    0    0  501  503 -0.00000000000E+00 -0.00000000000E+00 -0.86673382421E+02  0.86673382421E+02  0.00000000000E+00 0. -1.
          6    2    1    2  501    0 -0.12309614330E+03 -0.47576546613E+02  0.15138882492E+03  0.26477077221E+03  0.17253636492E+03 0.  0.
         24    2    3    3    0    0 -0.23497831312E+02 -0.48824616607E+02  0.15859069553E+02  0.96509707131E+02  0.78272742512E+02 0.  0.
         -6    2    1    2    0  502  0.12309614330E+03  0.47576546613E+02  0.36325524701E+03  0.42322006457E+03  0.17246640336E+03 0.  0.
        -24    2    5    5    0    0  0.14245627455E+03  0.47638932922E+02  0.21908809250E+03  0.27768286309E+03  0.80900692767E+02 0.  0.
          5    1    3    3  501    0 -0.99598311990E+02  0.12480699944E+01  0.13552975537E+03  0.16826106508E+03  0.47000000000E+01 0. -1.
        -11    1    4    4    0    0  0.10254394483E+02 -0.12942951653E+02  0.38800437413E+02  0.42168074976E+02  0.00000000000E+00 0.  1.
         12    1    4    4    0    0 -0.33752225795E+02 -0.35881664954E+02 -0.22941367861E+02  0.54341632155E+02  0.00000000000E+00 0. -1.
         -5    1    5    5    0  502 -0.19360131249E+02 -0.62386308720E-01  0.14416715451E+03  0.14553720148E+03  0.47000000000E+01 0.  1.
         13    1    6    6    0    0  0.52967522381E+02  0.60249139023E+02  0.10496370122E+03  0.13210940828E+03  0.00000000000E+00 0. -1.
        -14    1    6    6    0    0  0.89488752170E+02 -0.12610206101E+02  0.11412439128E+03  0.14557345482E+03  0.00000000000E+00 0.  1.
</event>
<event>
12    1  0.8358445E-002  0.1860461E+03  0.7818608E-02  0.1162792E+00
         21   -1    0    0  501  502  0.00000000000E+00  0.00000000000E+00  0.32460542346E+03  0.32460542346E+03  0.00000000000E+00 0.  1.
         21   -1    0    0  502  503 -0.00000000000E+00 -0.00000000000E+00 -0.20260688562E+03  0.20260688562E+03  0.00000000000E+00 0.  1.
         -6    2    1    2    0  503  0.42075130528E+01  0.71775190419E+02 -0.12180780879E+03  0.22237423364E+03  0.17159188902E+03 0.  0.
        -24    2    3    3    0    0  0.25693368483E+02 -0.22322955670E+02 -0.38063066179E+02  0.94501738564E+02  0.79519293577E+02 0.  0.
          6    2    1    2  501    0 -0.42075130528E+01 -0.71775190419E+02  0.24380634663E+03  0.30483807543E+03  0.16827161510E+03 0.  0.
         24    2    5    5    0    0  0.46757031482E+02 -0.78308271502E+02  0.12921152758E+03  0.17916338226E+03  0.84175372333E+02 0.  0.
          5    1    5    5  501    0 -0.50964544535E+02  0.65330810827E+01  0.11459481906E+03  0.12567469317E+03  0.47000000000E+01 0. -1.
        -11    1    6    6    0    0  0.54614445020E+01 -0.12295351566E+02  0.91793013583E+02  0.92773705266E+02  0.00000000000E+00 0.  1.
         12    1    6    6    0    0  0.41295586980E+02 -0.66012919936E+02  0.37418513993E+02  0.86389676998E+02  0.00000000000E+00 0. -1.
         -5    1    3    3    0  503 -0.21485855430E+02  0.94098146089E+02 -0.83744742616E+02  0.12787249507E+03  0.47000000000E+01 0.  1.
         13    1    4    4    0    0  0.18197253332E+02  0.12687065556E+02  0.17600660725E+02  0.28317572622E+02  0.00000000000E+00 0. -1.
        -14    1    4    4    0    0  0.74961151510E+01 -0.35010021226E+02 -0.55663726904E+02  0.66184165942E+02  0.00000000000E+00 0.  1.
</event>
<event>
12    1  0.8358445E-002  0.2091191E+03  0.7818608E-02  0.1142437E+00
         21   -1    0    0  503  502  0.00000000000E+00  0.00000000000E+00  0.22084195039E+03  0.22084195039E+03  0.00000000000E+00 0.  1.
         21   -1    0    0  501  503 -0.00000000000E+00 -0.00000000000E+00 -0.23076451936E+03  0.23076451936E+03  0.00000000000E+00 0. -1.
          6    2    1    2  501    0 -0.10887032829E+03 -0.44335711793E+02 -0.91082431943E+02  0.22809389895E+03  0.17295205580E+03 0.  0.
         24    2    3    3    0    0 -0.11549344122E+03  0.12986120233E+02 -0.93615761508E+02  0.17014421551E+03  0.81717617352E+02 0.  0.
         -6    2    1    2    0  502  0.10887032829E+03  0.44335711793E+02  0.81159862973E+02  0.22351257081E+03  0.17190852866E+03 0.  0.
        -24    2    5    5    0    0  0.93738635219E+02  0.12669907485E+02  0.11904809730E+03  0.17165411346E+03  0.79656932595E+02 0.  0.
          5    1    3    3  501    0  0.66231129289E+01 -0.57321832027E+02  0.25333295646E+01  0.57949683437E+02  0.47000000000E+01 0. -1.
        -11    1    4    4    0    0 -0.88247687886E+02  0.41562287900E+02 -0.85766481861E+02  0.12988828894E+03  0.00000000000E+00 0.  1.
         12    1    4    4    0    0 -0.27245753338E+02 -0.28576167667E+02 -0.78492796473E+01  0.40255926575E+02  0.00000000000E+00 0. -1.
         -5    1    5    5    0  502  0.15131693075E+02  0.31665804308E+02 -0.37888234324E+02  0.51858457343E+02  0.47000000000E+01 0.  1.
         11    1    6    6    0    0  0.10976828509E+02  0.36031452158E+02  0.35884171428E+02  0.52023360790E+02  0.00000000000E+00 0. -1.
        -12    1    6    6    0    0  0.82761806710E+02 -0.23361544673E+02  0.83163925868E+02  0.11963075267E+03  0.00000000000E+00 0.  1.
</event>
<event>
12    1  0.8358445E-002  0.1812157E+03  0.7818608E-02  0.1166654E+00
         21   -1    0    0  501  502  0.00000000000E+00  0.00000000000E+00  0.52539495947E+02  0.52539495947E+02  0.00000000000E+00 0.  1.
         21   -1    0    0  502  503 -0.00000000000E+00 -0.00000000000E+00 -0.67550510943E+03  0.67550510943E+03  0.00000000000E+00 0.  1.
         -6    2    1    2    0  503  0.21472749606E+02 -0.53889345305E+02 -0.41137723485E+03  0.44952237528E+03  0.17167992316E+03 0.  0.
        -24    2    3    3    0    0  0.14034700326E+02 -0.93497339548E+02 -0.20785489311E+03  0.24199514485E+03  0.80120335906E+02 0.  0.
          6    2    1    2  501    0 -0.21472749606E+02  0.53889345305E+02 -0.21158837864E+03  0.27852223010E+03  0.17158044810E+03 0.  0.
         24    2    5    5    0    0 -0.75178973300E+02  0.26805532318E+02 -0.97266465735E+02  0.14925707176E+03  0.80290058693E+02 0.  0.
          5    1    5    5  501    0  0.53706223694E+02  0.27083812987E+02 -0.11432191290E+03  0.12926515833E+03  0.47000000000E+01 0. -1.
        -13    1    6    6    0    0 -0.62587156455E+02  0.43891219351E+02 -0.10204436759E+03  0.12750154605E+03  0.00000000000E+00 0.  1.
         14    1    6    6    0    0 -0.12591816844E+02 -0.17085687032E+02  0.47779018519E+01  0.21755525710E+02  0.00000000000E+00 0. -1.
         -5    1    3    3    0  503  0.74380492802E+01  0.39607994243E+02 -0.20352234173E+03  0.20752723043E+03  0.47000000000E+01 0.  1.
         11    1    4    4    0    0  0.22129952972E+02 -0.11032128578E+02 -0.85706751525E+01  0.26170577985E+02  0.00000000000E+00 0. -1.
        -12    1    4    4    0    0 -0.80952526462E+01 -0.82465210970E+02 -0.19928421796E+03  0.21582456687E+03  0.00000000000E+00 0.  1.
</event>
<event>
12    1  0.8358445E-002  0.1747591E+03  0.7818608E-02  0.1172991E+00
         21   -1    0    0  501  502  0.00000000000E+00  0.00000000000E+00  0.31213112050E+03  0.31213112050E+03  0.00000000000E+00 0. -1.
         21   -1    0    0  502  503 -0.00000000000E+00 -0.00000000000E+00 -0.13288728666E+03  0.13288728666E+03  0.00000000000E+00 0. -1.
         -6    2    1    2    0  503  0.11207933271E+02 -0.26580229890E+02 -0.24714694461E+02  0.17642980734E+03  0.17229200331E+03 0.  0.
        -24    2    3    3    0    0 -0.42214074027E+02 -0.53905005689E+02 -0.24179110425E+02  0.11623901829E+03  0.90769500977E+02 0.  0.
          6    2    1    2  501    0 -0.11207933271E+02  0.26580229890E+02  0.20395852830E+03  0.26858859982E+03  0.17236191081E+03 0.  0.
         24    2    5    5    0    0  0.22770682681E+02  0.60088958404E+02  0.19480082845E+03  0.21976919082E+03  0.78879322741E+02 0.  0.
          5    1    5    5  501    0 -0.33978615951E+02 -0.33508728514E+02  0.91576998451E+01  0.48819409000E+02  0.47000000000E+01 0. -1.
        -13    1    6    6    0    0  0.22030910623E+02  0.66381424617E+02  0.86299861863E+02  0.11108339531E+03  0.00000000000E+00 0.  1.
         14    1    6    6    0    0  0.73977205776E+00 -0.62924662128E+01  0.10850096659E+03  0.10868579551E+03  0.00000000000E+00 0. -1.
         -5    1    3    3    0  503  0.53422007298E+02  0.27324775799E+02 -0.53558403640E+00  0.60190789050E+02  0.47000000000E+01 0.  1.
         13    1    4    4    0    0 -0.50150948063E+02  0.83053576308E+01 -0.13774303176E+02  0.52667143316E+02  0.00000000000E+00 0. -1.
        -14    1    4    4    0    0  0.79368740362E+01 -0.62210363319E+02 -0.10404807249E+02  0.63571874974E+02  0.00000000000E+00 0.  1.
</event>
<event>
12    1  0.8358445E-002  0.1747015E+03  0.7818608E-02  0.1173099E+00
         21   -1    0    0  503  502  0.00000000000E+00  0.00000000000E+00  0.69636707921E+03  0.69636707921E+03  0.00000000000E+00 0. -1.
         21   -1    0    0  501  503 -0.00000000000E+00 -0.00000000000E+00 -0.81609785558E+02  0.81609785558E+02  0.00000000000E+00 0. -1.
          6    2    1    2  501    0 -0.27390393204E+02 -0.17928661490E+02  0.42599846501E+02  0.17982032508E+03  0.17160691084E+03 0.  0.
         24    2    3    3    0    0 -0.41423018696E+02 -0.61259981112E+02 -0.10249286237E+02  0.10989437375E+03  0.80641637823E+02 0.  0.
         -6    2    1    2    0  502  0.27390393204E+02  0.17928661490E+02  0.57215744715E+03  0.59815653968E+03  0.17133426713E+03 0.  0.
        -24    2    5    5    0    0  0.80259797648E+02 -0.10400152635E+02  0.40806567704E+03  0.42338270109E+03  0.78648054751E+02 0.  0.
          5    1    3    3  501    0  0.14032625492E+02  0.43331319622E+02  0.52849132738E+02  0.69925951331E+02  0.47000000000E+01 0. -1.
        -13    1    4    4    0    0 -0.58049855360E+01 -0.35796403892E+02  0.32503970057E+02  0.48698957465E+02  0.00000000000E+00 0.  1.
         14    1    4    4    0    0 -0.35618033160E+02 -0.25463577219E+02 -0.42753256294E+02  0.61195416289E+02  0.00000000000E+00 0. -1.
         -5    1    5    5    0  502 -0.52869404444E+02  0.28328814125E+02  0.16409177011E+03  0.17477383859E+03  0.47000000000E+01 0.  1.
         11    1    6    6    0    0  0.56920684553E+01 -0.30781263258E+02  0.17651329460E+03  0.17926747888E+03  0.00000000000E+00 0. -1.
        -12    1    6    6    0    0  0.74567729193E+02  0.20381110623E+02  0.23155238243E+03  0.24411522222E+03  0.00000000000E+00 0.  1.
</event>
<event>
12    1  0.8358445E-002  0.2259295E+03  0.7818608E-02  0.1129822E+00
         21   -1    0    0  503  502  0.00000000000E+00  0.00000000000E+00  0.31909016774E+02  0.31909016774E+02  0.00000000000E+00 0.  1.
         21   -1    0    0  501  503 -0.00000000000E+00 -0.00000000000E+00 -0.16792399129E+04  0.16792399129E+04  0.00000000000E+00 0.  1.
          6    2    1    2  501    0 -0.48036585175E+02  0.13763583359E+03 -0.10252032781E+04  0.10498027813E+04  0.17260643638E+03 0.  0.
         24    2    3    3    0    0 -0.96543055296E+02  0.80961303345E+02 -0.74239672651E+03  0.75728523366E+03  0.80328895336E+02 0.  0.
         -6    2    1    2    0  502  0.48036585175E+02 -0.13763583359E+03 -0.62212761801E+03  0.66134614842E+03  0.17054271819E+03 0.  0.
        -24    2    5    5    0    0  0.73463055455E+02 -0.70272863513E+02 -0.24341840025E+03  0.27582437633E+03  0.80569678778E+02 0.  0.
          5    1    3    3  501    0  0.48506470121E+02  0.56674530242E+02 -0.28280655164E+03  0.29251754764E+03  0.47000000000E+01 0. -1.
        -13    1    4    4    0    0 -0.56898803512E+02  0.88736644622E+02 -0.45426403663E+03  0.46633408723E+03  0.00000000000E+00 0.  1.
         14    1    4    4    0    0 -0.39644251785E+02 -0.77753412771E+01 -0.28813268988E+03  0.29095114643E+03  0.00000000000E+00 0. -1.
         -5    1    5    5    0  502 -0.25426470279E+02 -0.67362970075E+02 -0.37870921777E+03  0.38552177208E+03  0.47000000000E+01 0.  1.
         13    1    6    6    0    0  0.41439651777E+02  0.67250483762E+01 -0.50618136223E+02  0.65762198334E+02  0.00000000000E+00 0. -1.
        -14    1    6    6    0    0  0.32023403677E+02 -0.76997911889E+02 -0.19280026402E+03  0.21006217800E+03  0.00000000000E+00 0.  1.
</event>
<event>
12    1  0.8358445E-002  0.2207947E+03  0.7818608E-02  0.1133317E+00
         21   -1    0    0  501  502  0.00000000000E+00  0.00000000000E+00  0.15443761098E+04  0.15443761098E+04  0.00000000000E+00 0.  1.
         21   -1    0    0  502  503 -0.00000000000E+00 -0.00000000000E+00 -0.31558508200E+02  0.31558508200E+02  0.00000000000E+00 0.  1.
         -6    2    1    2    0  503 -0.29175944494E+02  0.13529405833E+03  0.74129989532E+03  0.77344483355E+03  0.17185941283E+03 0.  0.
        -24    2    3    3    0    0  0.26495136259E+02  0.11376218598E+03  0.35045839781E+03  0.37804369934E+03  0.80325106954E+02 0.  0.
          6    2    1    2  501    0  0.29175944494E+02 -0.13529405833E+03  0.77151770625E+03  0.80248978442E+03  0.17203070974E+03 0.  0.
         24    2    5    5    0    0  0.73009933752E+00 -0.16270005409E+03  0.65173459838E+03  0.67627434305E+03  0.78212273341E+02 0.  0.
          5    1    5    5  501    0  0.28445845156E+02  0.27405995755E+02  0.11978310787E+03  0.12621544137E+03  0.47000000000E+01 0. -1.
        -11    1    6    6    0    0 -0.16910771878E+02 -0.13549550580E+03  0.40455989691E+03  0.42698210324E+03  0.00000000000E+00 0.  1.
         12    1    6    6    0    0  0.17640871215E+02 -0.27204548282E+02  0.24717470147E+03  0.24929223982E+03  0.00000000000E+00 0. -1.
         -5    1    3    3    0  503 -0.55671080753E+02  0.21531872355E+02  0.39084149751E+03  0.39540113421E+03  0.47000000000E+01 0.  1.
         13    1    4    4    0    0 -0.26192030054E+02  0.16053624140E+02  0.79278093750E+02  0.85022099686E+02  0.00000000000E+00 0. -1.
        -14    1    4    4    0    0  0.52687166314E+02  0.97708561835E+02  0.27118030406E+03  0.29302159965E+03  0.00000000000E+00 0.  1.
</event>
<event>
12    1  0.8358445E-002  0.3423970E+03  0.7818608E-02  0.1065819E+00
         21   -1    0    0  501  502  0.00000000000E+00  0.00000000000E+00  0.13542284868E+04  0.13542284868E+04  0.00000000000E+00 0.  1.
         21   -1    0    0  502  503 -0.00000000000E+00 -0.00000000000E+00 -0.10436913898E+03  0.10436913898E+03  0.00000000000E+00 0. -1.
         -6    2    1    2    0  503  0.29146676569E+03  0.53979605890E+02  0.32267421449E+03  0.47021108632E+03  0.17062574146E+03 0.  0.
        -24    2    3    3    0    0  0.49223403314E+02  0.29250218929E+02  0.10643978192E+03  0.14452287803E+03  0.79239613551E+02 0.  0.
          6    2    1    2  501    0 -0.29146676569E+03 -0.53979605890E+02  0.92718513329E+03  0.98838653941E+03  0.17137387945E+03 0.  0.
         24    2    5    5    0    0 -0.16068082229E+03 -0.13980220841E+02  0.70305591268E+03  0.72578244324E+03  0.80366444145E+02 0.  0.
          5    1    5    5  501    0 -0.13078594340E+03 -0.39999385049E+02  0.22412922061E+03  0.26260409617E+03  0.47000000000E+01 0. -1.
        -13    1    6    6    0    0 -0.11809814878E+03 -0.45614645353E+02  0.52050259937E+03  0.53567791122E+03  0.00000000000E+00 0.  1.
         14    1    6    6    0    0 -0.42582673501E+02  0.31634424512E+02  0.18255331331E+03  0.19010453203E+03  0.00000000000E+00 0. -1.
         -5    1    3    3    0  503  0.24224336237E+03  0.24729386961E+02  0.21623443257E+03  0.32568820829E+03  0.47000000000E+01 0.  1.
         11    1    4    4    0    0  0.62162590199E+02  0.43260283141E+02  0.68759570028E+02  0.10229133975E+03  0.00000000000E+00 0. -1.
        -12    1    4    4    0    0 -0.12939186885E+02 -0.14010064212E+02  0.37680211896E+02  0.42231538274E+02  0.00000000000E+00 0.  1.
</event>
<event>
12    1  0.8358445E-002  0.2306117E+03  0.7818608E-02  0.1126232E+00
         21   -1    0    0  503  502  0.00000000000E+00  0.00000000000E+00  0.89821739312E+03  0.89821739312E+03  0.00000000000E+00 0. -1.
         21   -1    0    0  501  503 -0.00000000000E+00 -0.00000000000E+00 -0.61737387919E+02  0.61737387919E+02  0.00000000000E+00 0.  1.
          6    2    1    2  501    0  0.10173482592E+03  0.11468452489E+03  0.32035992403E+03  0.39465690862E+03  0.17210775562E+03 0.  0.
         24    2    3    3    0    0  0.94043916279E+02  0.68537336952E+02  0.11341263912E+03  0.18243536924E+03  0.82937401047E+02 0.  0.
         -6    2    1    2    0  502 -0.10173482592E+03 -0.11468452489E+03  0.51612008116E+03  0.56529787241E+03  0.17227661279E+03 0.  0.
        -24    2    5    5    0    0 -0.11224365019E+02 -0.60881799836E+02  0.12743151425E+03  0.16257244634E+03  0.79739761489E+02 0.  0.
          5    1    3    3  501    0  0.76909096456E+01  0.46147187938E+02  0.20694728491E+03  0.21222153938E+03  0.47000000000E+01 0. -1.
        -11    1    4    4    0    0  0.35057421281E+02  0.14446628393E+02 -0.62970247641E+01  0.38436706151E+02  0.00000000000E+00 0.  1.
         12    1    4    4    0    0  0.58986494997E+02  0.54090708558E+02  0.11970966389E+03  0.14399866309E+03  0.00000000000E+00 0. -1.
         -5    1    5    5    0  502 -0.90510460905E+02 -0.53802725054E+02  0.38868856691E+03  0.40272542607E+03  0.47000000000E+01 0.  1.
         13    1    6    6    0    0 -0.51439223839E+01  0.15296816406E+02  0.54857052747E+02  0.57181717059E+02  0.00000000000E+00 0. -1.
        -14    1    6    6    0    0 -0.60804426352E+01 -0.76178616242E+02  0.72574461504E+02  0.10539072928E+03  0.00000000000E+00 0.  1.
</event>
<event>
12    1  0.8358445E-002  0.1737153E+03  0.7818608E-02  0.1174094E+00
         21   -1    0    0  503  502  0.00000000000E+00  0.00000000000E+00  0.25919777832E+02  0.25919777832E+02  0.00000000000E+00 0. -1.
         21   -1    0    0  501  503 -0.00000000000E+00 -0.00000000000E+00 -0.11689929729E+04  0.11689929729E+04  0.00000000000E+00 0. -1.
          6    2    1    2  501    0 -0.20192174242E+02  0.13065054460E+02 -0.61563756461E+03  0.63960621068E+03  0.17177914376E+03 0.  0.
         24    2    3    3    0    0 -0.49705756845E+02  0.51029765727E+02 -0.53473922014E+03  0.54537774896E+03  0.80100912930E+02 0.  0.
         -6    2    1    2    0  502  0.20192174242E+02 -0.13065054460E+02 -0.52743563048E+03  0.55530654008E+03  0.17204240641E+03 0.  0.
        -24    2    5    5    0    0  0.41992963504E+02  0.50723330905E+02 -0.26182706233E+03  0.28123677889E+03  0.78768330895E+02 0.  0.
          5    1    3    3  501    0  0.29513582603E+02 -0.37964711267E+02 -0.80898344473E+02  0.94228461720E+02  0.47000000000E+01 0. -1.
        -11    1    4    4    0    0 -0.35393327707E+02 -0.15788979623E+02 -0.20529813300E+03  0.20892415594E+03  0.00000000000E+00 0.  1.
         12    1    4    4    0    0 -0.14312429138E+02  0.66818745350E+02 -0.32944108714E+03  0.33645359302E+03  0.00000000000E+00 0. -1.
         -5    1    5    5    0  502 -0.21800789261E+02 -0.63788385365E+02 -0.26560856816E+03  0.27406976119E+03  0.47000000000E+01 0.  1.
         11    1    6    6    0    0  0.30998534119E+02 -0.15883187728E+02 -0.10004952159E+03  0.10593909354E+03  0.00000000000E+00 0. -1.
        -12    1    6    6    0    0  0.10994429384E+02  0.66606518633E+02 -0.16177754074E+03  0.17529768535E+03  0.00000000000E+00 0.  1.
</event>
<event>
12    1  0.8358445E-002  0.1852541E+03  0.7818608E-02  0.1163222E+00
         21   -1    0    0  501  502  0.00000000000E+00  0.00000000000E+00  0.28434296659E+03  0.28434296659E+03  0.00000000000E+00 0.  1.
         21   -1    0    0  502  503 -0.00000000000E+00 -0.00000000000E+00 -0.12796746577E+03  0.12796746577E+03  0.00000000000E+00 0.  1.
         -6    2    1    2    0  503 -0.59061925057E+02 -0.30236633577E+02  0.25002118456E+02  0.18520241815E+03  0.17109139300E+03 0.  0.
        -24    2    3    3    0    0 -0.71440879380E+02  0.21939212281E+02  0.55175604775E+02  0.12349272136E+03  0.81369383578E+02 0.  0.
          6    2    1    2  501    0  0.59061925057E+02  0.30236633577E+02  0.13137338237E+03  0.22710801421E+03  0.17296392550E+03 0.  0.
         24    2    5    5    0    0  0.33097258141E+02  0.63771740011E+02  0.14670858830E+03  0.18176459316E+03  0.79703789901E+02 0.  0.
          5    1    5    5  501    0  0.25964666916E+02 -0.33535106434E+02 -0.15335205937E+02  0.45343421052E+02  0.47000000000E+01 0. -1.
        -13    1    6    6    0    0  0.47853872951E+02  0.64010306613E+02  0.78671041790E+02  0.11214475166E+03  0.00000000000E+00 0.  1.
         14    1    6    6    0    0 -0.14756614810E+02 -0.23856660276E+00  0.68037546514E+02  0.69619841499E+02  0.00000000000E+00 0. -1.
         -5    1    3    3    0  503  0.12378954323E+02 -0.52175845858E+02 -0.30173486319E+02  0.61709696788E+02  0.47000000000E+01 0.  1.
         13    1    4    4    0    0 -0.36883064968E+02 -0.18256446922E+02 -0.70455865546E+01  0.41752827755E+02  0.00000000000E+00 0. -1.
        -14    1    4    4    0    0 -0.34557814412E+02  0.40195659202E+02  0.62221191329E+02  0.81739893602E+02  0.00000000000E+00 0.  1.
</event>
<event>
12    1  0.8358445E-002  0.2024652E+03  0.7818608E-02  0.1150471E+00
         21   -1    0    0  503  502  0.00000000000E+00  0.00000000000E+00  0.28095877791E+02  0.28095877791E+02  0.00000000000E+00 0.  1.
         21   -1    0    0  501  503 -0.00000000000E+00 -0.00000000000E+00 -0.14378109371E+04  0.14378109371E+04  0.00000000000E+00 0.  1.
          6    2    1    2  501    0 -0.79185713308E+02  0.86727119835E+01 -0.51991010180E+03  0.55335817562E+03  0.17191033549E+03 0.  0.
         24    2    3    3    0    0  0.88689546693E+01 -0.35109539045E+02 -0.17394846148E+03  0.19366100212E+03  0.77040109026E+02 0.  0.
         -6    2    1    2    0  502  0.79185713308E+02 -0.86727119835E+01 -0.88980495749E+03  0.91254863925E+03  0.18613587376E+03 0.  0.
        -24    2    5    5    0    0 -0.20889441713E+01 -0.20766338566E+02 -0.70761996939E+03  0.71263544399E+03  0.81778055973E+02 0.  0.
          5    1    3    3  501    0 -0.88054667978E+02  0.43782251029E+02 -0.34596164031E+03  0.35969717350E+03  0.47000000000E+01 0. -1.
        -13    1    4    4    0    0 -0.81868639999E+01 -0.62146312115E+01 -0.15457500079E+03  0.15491635567E+03  0.00000000000E+00 0.  1.
         14    1    4    4    0    0  0.17055818669E+02 -0.28894907834E+02 -0.19373460691E+02  0.38744646447E+02  0.00000000000E+00 0. -1.
         -5    1    5    5    0  502  0.81274657480E+02  0.12093626582E+02 -0.18218498810E+03  0.19991319526E+03  0.47000000000E+01 0.  1.
         13    1    6    6    0    0  0.66567837683E+01  0.28624404589E+02 -0.15633206394E+03  0.15907037287E+03  0.00000000000E+00 0. -1.
        -14    1    6    6    0    0 -0.87457279396E+01 -0.49390743154E+02 -0.55128790545E+03  0.55356507112E+03  0.00000000000E+00 0.  1.
</event>
<event>
12    1  0.8358445E-002  0.2120519E+03  0.7818608E-02  0.1140038E+00
         21   -1    0    0  503  502  0.00000000000E+00  0.00000000000E+00  0.21428928397E+03  0.21428928397E+03  0.00000000000E+00 0.  1.
         21   -1    0    0  501  503 -0.00000000000E+00 -0.00000000000E+00 -0.32915713839E+03  0.32915713839E+03  0.00000000000E+00 0.  1.
          6    2    1    2  501    0 -0.89604856094E+02  0.87303139578E+02 -0.22137062348E+03  0.30654680500E+03  0.17121659470E+03 0.  0.
         24    2    3    3    0    0 -0.12281143188E+03  0.65456417484E+02 -0.13016775523E+03  0.20694756244E+03  0.80724585510E+02 0.  0.
         -6    2    1    2    0  502  0.89604856094E+02 -0.87303139578E+02  0.10650276907E+03  0.23689961736E+03  0.17066845189E+03 0.  0.
        -24    2    5    5    0    0  0.41047759473E+01 -0.89003950033E+02  0.36239437559E+02  0.12611973554E+03  0.81574129178E+02 0.  0.
          5    1    3    3  501    0  0.33206575790E+02  0.21846722094E+02 -0.91202868252E+02  0.99599242564E+02  0.47000000000E+01 0. -1.
        -11    1    4    4    0    0 -0.68334612275E+02  0.31306246388E+02 -0.17422079144E+02  0.77157171665E+02  0.00000000000E+00 0.  1.
         12    1    4    4    0    0 -0.54476819609E+02  0.34150171097E+02 -0.11274567609E+03  0.12979039077E+03  0.00000000000E+00 0. -1.
         -5    1    5    5    0  502  0.85500080147E+02  0.17008104554E+01  0.70263331509E+02  0.11077988182E+03  0.47000000000E+01 0.  1.
         13    1    6    6    0    0  0.24091900314E+02 -0.72974112851E+02  0.54882476591E+02  0.94433717728E+02  0.00000000000E+00 0. -1.
        -14    1    6    6    0    0 -0.19987124366E+02 -0.16029837182E+02 -0.18643039032E+02  0.31686017813E+02  0.00000000000E+00 0.  1.
</event>
<event>
12    1  0.8358445E-002  0.1907630E+03  0.7818608E-02  0.1158619E+00
         21   -1    0    0  503  502  0.00000000000E+00  0.00000000000E+00  0.24014178463E+03  0.24014178463E+03  0.00000000000E+00 0. -1.
         21   -1    0    0  501  503 -0.00000000000E+00 -0.00000000000E+00 -0.15240368877E+03  0.15240368877E+03  0.00000000000E+00 0.  1.
          6    2    1    2  501    0  0.60772276377E+02  0.39747020153E+02  0.75320375447E+02  0.20509429947E+03  0.17640129685E+03 0.  0.
         24    2    3    3    0    0  0.83486485168E+02  0.60216369467E+02  0.18443563381E+02  0.14034871049E+03  0.93603371453E+02 0.  0.
         -6    2    1    2    0  502 -0.60772276377E+02 -0.39747020153E+02  0.12417720413E+02  0.18745117392E+03  0.17236776856E+03 0.  0.
        -24    2    5    5    0    0 -0.46269593934E+02  0.36048428474E+02 -0.24050095197E+02  0.10196860607E+03  0.79867546770E+02 0.  0.
          5    1    3    3  501    0 -0.22714208791E+02 -0.20469349314E+02  0.56876812066E+02  0.64745588986E+02  0.47000000000E+01 0. -1.
        -11    1    4    4    0    0  0.45100523821E+02  0.18784463827E+02 -0.36936568812E+02  0.61247232148E+02  0.00000000000E+00 0.  1.
         12    1    4    4    0    0  0.38385961347E+02  0.41431905640E+02  0.55380132193E+02  0.79101478338E+02  0.00000000000E+00 0. -1.
         -5    1    5    5    0  502 -0.14502682443E+02 -0.75795448627E+02  0.36467815611E+02  0.85482567849E+02  0.47000000000E+01 0.  1.
         13    1    6    6    0    0 -0.47117446952E+02  0.54472509270E+02 -0.46010683179E+00  0.72024438711E+02  0.00000000000E+00 0. -1.
        -14    1    6    6    0    0  0.84785301747E+00 -0.18424080795E+02 -0.23589988365E+02  0.29944167361E+02  0.00000000000E+00 0.  1.
</event>
<event>
12    1  0.8358445E-002  0.1916656E+03  0.7818608E-02  0.1158911E+00
         21   -1    0    0  503  502  0.00000000000E+00  0.00000000000E+00  0.11776156089E+03  0.11776156089E+03  0.00000000000E+00 0.  1.
         21   -1    0    0  501  503 -0.00000000000E+00 -0.00000000000E+00 -0.36606099263E+03  0.36606099263E+03  0.00000000000E+00 0.  1.
          6    2    1    2  501    0  0.22841212581E+02 -0.55079008839E+02 -0.17759075488E+02  0.18401499206E+03  0.17317827328E+03 0.  0.
         24    2    3    3    0    0  0.52625969908E+02 -0.63399696910E+01  0.38766940149E+02  0.10351712781E+03  0.80020198553E+02 0.  0.
         -6    2    1    2    0  502 -0.22841212581E+02  0.55079008839E+02 -0.23054035625E+03  0.29980756145E+03  0.18215460422E+03 0.  0.
        -24    2    5    5    0    0  0.54356385332E+02  0.55290658673E+02 -0.11529136882E+03  0.16101299015E+03  0.81372045018E+02 0.  0.
          5    1    3    3  501    0 -0.29784757327E+02 -0.48739039148E+02 -0.56526015637E+02  0.80497864257E+02  0.47000000000E+01 0. -1.
        -11    1    4    4    0    0 -0.10494757140E+02 -0.23107497731E+02  0.27181296116E+02  0.37187622099E+02  0.00000000000E+00 0.  1.
         12    1    4    4    0    0  0.63120727049E+02  0.16767528040E+02  0.11585644033E+02  0.66329505707E+02  0.00000000000E+00 0. -1.
         -5    1    5    5    0  502 -0.77197597913E+02 -0.21164983461E+00 -0.11524898743E+03  0.13879457130E+03  0.47000000000E+01 0.  1.
         11    1    6    6    0    0  0.19712272159E+02  0.28720112768E+02  0.29593753958E+01  0.34959640356E+02  0.00000000000E+00 0. -1.
        -12    1    6    6    0    0  0.34644113173E+02  0.26570545906E+02 -0.11825074422E+03  0.12605334980E+03  0.00000000000E+00 0.  1.
</event>
<event>
12    1  0.8358445E-002  0.3329196E+03  0.7818608E-02  0.1069861E+00
         21   -1    0    0  501  502  0.00000000000E+00  0.00000000000E+00  0.81018935613E+03  0.81018935613E+03  0.00000000000E+00 0. -1.
         21   -1    0    0  502  503 -0.00000000000E+00 -0.00000000000E+00 -0.28417105049E+03  0.28417105049E+03  0.00000000000E+00 0. -1.
         -6    2    1    2    0  503  0.18991294254E+03  0.21229120660E+03 -0.13109225054E+03  0.35772635517E+03  0.17218735402E+03 0.  0.
        -24    2    3    3    0    0  0.72464332701E+02  0.17503715648E+03 -0.10986794090E+03  0.23260800510E+03  0.78399196026E+02 0.  0.
          6    2    1    2  501    0 -0.18991294254E+03 -0.21229120660E+03  0.65711055619E+03  0.73663405145E+03  0.17233966625E+03 0.  0.
         24    2    5    5    0    0 -0.58715513087E+02 -0.64604958209E+02  0.14707478135E+03  0.18965820640E+03  0.81962990693E+02 0.  0.
          5    1    5    5  501    0 -0.13119742945E+03 -0.14768624839E+03  0.51003577484E+03  0.54697584505E+03  0.47000000000E+01 0. -1.
        -13    1    6    6    0    0  0.10023526667E+02 -0.44966428618E+02  0.40581932814E+02  0.61394984001E+02  0.00000000000E+00 0.  1.
         14    1    6    6    0    0 -0.68739039755E+02 -0.19638529591E+02  0.10649284854E+03  0.12826322240E+03  0.00000000000E+00 0. -1.
         -5    1    3    3    0  503  0.11744860984E+03  0.37254050121E+02 -0.21224309644E+02  0.12511835007E+03  0.47000000000E+01 0.  1.
         13    1    4    4    0    0  0.27477292105E+02  0.35262519828E+02 -0.65339671278E+02  0.79168930324E+02  0.00000000000E+00 0. -1.
        -14    1    4    4    0    0  0.44987040596E+02  0.13977463665E+03 -0.44528269620E+02  0.15343907478E+03  0.00000000000E+00 0.  1.
</event>
<event>
12    1  0.8358445E-002  0.1854119E+03  0.7818608E-02  0.1162783E+00
         21   -1    0    0  501  502  0.00000000000E+00  0.00000000000E+00  0.10373526608E+03  0.10373526608E+03  0.00000000000E+00 0. -1.
         21   -1    0    0  502  503 -0.00000000000E+00 -0.00000000000E+00 -0.41304220846E+03  0.41304220846E+03  0.00000000000E+00 0. -1.
         -6    2    1    2    0  503 -0.32743038291E+02  0.60309610920E+02 -0.27033119892E+03  0.32780564603E+03  0.17224467693E+03 0.  0.
        -24    2    3    3    0    0 -0.38348917769E+02  0.88952825893E+02 -0.27064626260E+03  0.29824132777E+03  0.79468518324E+02 0.  0.
          6    2    1    2  501    0  0.32743038291E+02 -0.60309610920E+02 -0.38975743459E+02  0.18897182851E+03  0.17170290524E+03 0.  0.
         24    2    5    5    0    0 -0.45368792534E+02 -0.12790631158E+02 -0.58567355223E+01  0.91614393053E+02  0.78338803170E+02 0.  0.
          5    1    5    5  501    0  0.78111830825E+02 -0.47518979762E+02 -0.33119007937E+02  0.97357435459E+02  0.47000000000E+01 0. -1.
        -11    1    6    6    0    0  0.20748797755E+02  0.25185286423E+01 -0.10877384746E+02  0.23562111402E+02  0.00000000000E+00 0.  1.
         12    1    6    6    0    0 -0.66117590289E+02 -0.15309159800E+02  0.50206492239E+01  0.68052281652E+02  0.00000000000E+00 0. -1.
         -5    1    3    3    0  503  0.56058794787E+01 -0.28643214973E+02  0.31506367864E+00  0.29564318254E+02  0.47000000000E+01 0.  1.
         13    1    4    4    0    0  0.91426541847E+01  0.34746969225E+01 -0.10815215661E+03  0.10859351096E+03  0.00000000000E+00 0. -1.
        -14    1    4    4    0    0 -0.47491571954E+02  0.85478128971E+02 -0.16249410599E+03  0.18964781681E+03  0.00000000000E+00 0.  1.
</event>
<event>
12    1  0.8358445E-002  0.1872650E+03  0.7818608E-02  0.1161133E+00
         21   -1    0    0  501  502  0.00000000000E+00  0.00000000000E+00  0.33582656594E+03  0.33582656594E+03  0.00000000000E+00 0. -1.
         21   -1    0    0  502  503 -0.00000000000E+00 -0.00000000000E+00 -0.17645320814E+03  0.17645320814E+03  0.00000000000E+00 0. -1.
         -6    2    1    2    0  503 -0.46592543271E+02 -0.52851848494E+02 -0.84560594123E+02  0.20475426391E+03  0.17265465975E+03 0.  0.
        -24    2    3    3    0    0  0.28039749109E+02 -0.60680165641E+02 -0.82807066255E+02  0.12954504589E+03  0.73868793552E+02 0.  0.
          6    2    1    2  501    0  0.46592543271E+02  0.52851848494E+02  0.24393395193E+03  0.30752551017E+03  0.17350499567E+03 0.  0.
         24    2    5    5    0    0  0.88746171357E+02  0.35419234879E+02  0.10880046410E+03  0.16482311386E+03  0.78731904238E+02 0.  0.
          5    1    5    5  501    0 -0.42153628086E+02  0.17432613615E+02  0.13513348783E+03  0.14270239630E+03  0.47000000000E+01 0. -1.
        -13    1    6    6    0    0  0.44361786922E+02  0.39583841297E+02  0.15534271546E+02  0.61450485948E+02  0.00000000000E+00 0.  1.
         14    1    6    6    0    0  0.44384384435E+02 -0.41646064180E+01  0.93266192555E+02  0.10337262791E+03  0.00000000000E+00 0. -1.
         -5    1    3    3    0  503 -0.74632292380E+02  0.78283171468E+01 -0.17535278685E+01  0.75209218021E+02  0.47000000000E+01 0.  1.
         11    1    4    4    0    0  0.41510578394E+02 -0.56928284843E+01 -0.44898772821E+02  0.61412020123E+02  0.00000000000E+00 0. -1.
        -12    1    4    4    0    0 -0.13470829285E+02 -0.54987337157E+02 -0.37908293433E+02  0.68133025767E+02  0.00000000000E+00 0.  1.
</event>
<event>
12    1  0.8358445E-002  0.1993359E+03  0.7818608E-02  0.1150480E+00
         21   -1    0    0  501  502  0.00000000000E+00  0.00000000000E+00  0.18982740281E+03  0.18982740281E+03  0.00000000000E+00 0.  1.
         21   -1    0    0  502  503 -0.00000000000E+00 -0.00000000000E+00 -0.26855178068E+03  0.26855178068E+03  0.00000000000E+00 0.  1.
         -6    2    1    2    0  503  0.18060217073E+02  0.98861087448E+02 -0.14773325070E+03  0.24743602732E+03  0.17117180902E+03 0.  0.
        -24    2    3    3    0    0 -0.31166556722E+02  0.59149091271E+02 -0.21307633891E+02  0.10599400923E+03  0.79440200614E+02 0.  0.
          6    2    1    2  501    0 -0.18060217073E+02 -0.98861087448E+02  0.69008872823E+02  0.21094315616E+03  0.17214849564E+03 0.  0.
         24    2    5    5    0    0 -0.39695061873E+02 -0.54282197966E+01 -0.90719746575E+01  0.87183404992E+02  0.76899166930E+02 0.  0.
          5    1    5    5  501    0  0.21634844800E+02 -0.93432867651E+02  0.78080847481E+02  0.12375975117E+03  0.47000000000E+01 0. -1.
        -13    1    6    6    0    0 -0.87417182986E+01 -0.21634251326E+02  0.27861822696E+02  0.36341981690E+02  0.00000000000E+00 0.  1.
         14    1    6    6    0    0 -0.30953343574E+02  0.16206031529E+02 -0.36933797353E+02  0.50841423301E+02  0.00000000000E+00 0. -1.
         -5    1    3    3    0  503  0.49226773795E+02  0.39711996176E+02 -0.12642561681E+03  0.14144201810E+03  0.47000000000E+01 0.  1.
         11    1    4    4    0    0 -0.56749208884E+01 -0.75651086075E+01  0.20967296995E+02  0.23001372538E+02  0.00000000000E+00 0. -1.
        -12    1    4    4    0    0 -0.25491635834E+02  0.66714199879E+02 -0.42274930886E+02  0.82992636688E+02  0.00000000000E+00 0.  1.
</event>
<event>
12    1  0.8358445E-002  0.2319958E+03  0.7818608E-02  0.1126104E+00
         21   -1    0    0  501  502  0.00000000000E+00  0.00000000000E+00  0.21258076340E+03  0.21258076340E+03  0.00000000000E+00 0.  1.
         21   -1    0    0  502  503 -0.00000000000E+00 -0.00000000000E+00 -0.25478829611E+03  0.25478829611E+03  0.00000000000E+00 0. -1.
         -6    2    1    2    0  503 -0.10601565445E+03 -0.10044384886E+03  0.17183031299E+02  0.23263125962E+03  0.18026025803E+03 0.  0.
        -24    2    3    3    0    0 -0.72614845586E+02  0.14050764716E+02  0.18648499936E+01  0.11229270699E+03  0.84473869264E+02 0.  0.
          6    2    1    2  501    0  0.10601565445E+03  0.10044384886E+03 -0.59390564006E+02  0.23473779989E+03  0.17391466253E+03 0.  0.
         24    2    5    5    0    0  0.11413294552E+03  0.13496377058E+03 -0.38280862786E+02  0.19320197324E+03  0.67970798038E+02 0.  0.
          5    1    5    5  501    0 -0.81172910731E+01 -0.34519921720E+02 -0.21109701220E+02  0.41535826650E+02  0.47000000000E+01 0. -1.
        -11    1    6    6    0    0  0.34276641745E+02  0.91183982486E+02 -0.10438748924E+02  0.97971293298E+02  0.00000000000E+00 0.  1.
         12    1    6    6    0    0  0.79856303774E+02  0.43779788098E+02 -0.27842113862E+02  0.95230679944E+02  0.00000000000E+00 0. -1.
         -5    1    3    3    0  503 -0.33400808861E+02 -0.11449461358E+03  0.15318181305E+02  0.12033855263E+03  0.47000000000E+01 0.  1.
         13    1    4    4    0    0  0.16421468405E+02 -0.90505647767E+01 -0.66974316905E+01  0.19910623762E+02  0.00000000000E+00 0. -1.
        -14    1    4    4    0    0 -0.89036313991E+02  0.23101329492E+02  0.85622816841E+01  0.92382083225E+02  0.00000000000E+00 0.  1.
</event>
<event>
12    1  0.8358445E-002  0.1862710E+03  0.7818608E-02  0.1162106E+00
         21   -1    0    0  503  502  0.00000000000E+00  0.00000000000E+00  0.31119287342E+03  0.31119287342E+03  0.00000000000E+00 0. -1.
         21   -1    0    0  501  503 -0.00000000000E+00 -0.00000000000E+00 -0.17850900419E+03  0.17850900419E+03  0.00000000000E+00 0. -1.
          6    2    1    2  501    0  0.54486088068E+02 -0.48892521538E+02 -0.84248960418E+02  0.20443766871E+03  0.17128240015E+03 0.  0.
         24    2    3    3    0    0  0.13607540102E+02  0.18577924898E+02 -0.93561217823E+02  0.12486301845E+03  0.79415158843E+02 0.  0.
         -6    2    1    2    0  502 -0.54486088068E+02  0.48892521538E+02  0.21693282965E+03  0.28526420890E+03  0.17016640046E+03 0.  0.
        -24    2    5    5    0    0 -0.95919387082E+02  0.59088054568E+01  0.14137432302E+03  0.18885105607E+03  0.80265679898E+02 0.  0.
          5    1    3    3  501    0  0.40878547966E+02 -0.67470446436E+02  0.93122574044E+01  0.79574650261E+02  0.47000000000E+01 0. -1.
        -11    1    4    4    0    0  0.40578617311E+02  0.32789793822E+02 -0.60651867378E+02  0.80002773566E+02  0.00000000000E+00 0.  1.
         12    1    4    4    0    0 -0.26971077209E+02 -0.14211868924E+02 -0.32909350445E+02  0.44860244881E+02  0.00000000000E+00 0. -1.
         -5    1    5    5    0  502  0.41433299013E+02  0.42983716081E+02  0.75558506621E+02  0.96413152827E+02  0.47000000000E+01 0.  1.
         11    1    6    6    0    0 -0.30066630384E+02  0.39457178845E+02  0.41948567604E+02  0.64965787527E+02  0.00000000000E+00 0. -1.
        -12    1    6    6    0    0 -0.65852756698E+02 -0.33548373389E+02  0.99425755421E+02  0.12388526855E+03  0.00000000000E+00 0.  1.
</event>
<event>
12    1  0.8358445E-002  0.4317100E+03  0.7818608E-02  0.1033328E+00
         21   -1    0    0  501  502  0.00000000000E+00  0.00000000000E+00  0.27168945292E+04  0.27168945292E+04  0.00000000000E+00 0. -1.
         21   -1    0    0  502  503 -0.00000000000E+00 -0.00000000000E+00 -0.68612877521E+02  0.68612877521E+02  0.00000000000E+00 0.  1.
         -6    2    1    2    0  503  0.35577200455E+03 -0.17349844264E+03  0.12955609143E+04  0.13655957012E+04  0.17233138906E+03 0.  0.
        -24    2    3    3    0    0  0.35209712522E+03 -0.14052552195E+03  0.12525950859E+04  0.13111083573E+04  0.79314988431E+02 0.  0.
          6    2    1    2  501    0 -0.35577200455E+03  0.17349844264E+03  0.13527207374E+04  0.14199117055E+04  0.17210586659E+03 0.  0.
         24    2    5    5    0    0 -0.35606919447E+03  0.17399800746E+03  0.11843838156E+04  0.12515081808E+04  0.80293998690E+02 0.  0.
          5    1    5    5  501    0  0.29718992418E+00 -0.49956482186E+00  0.16833692179E+03  0.16840352467E+03  0.47000000000E+01 0. -1.
        -13    1    6    6    0    0 -0.23745199163E+03  0.78138840715E+02  0.79266855976E+03  0.83115135348E+03  0.00000000000E+00 0.  1.
         14    1    6    6    0    0 -0.11861720284E+03  0.95859166746E+02  0.39171525583E+03  0.42035682736E+03  0.00000000000E+00 0. -1.
         -5    1    3    3    0  503  0.36748793287E+01 -0.32972920691E+02  0.42965828350E+02  0.54487343877E+02  0.47000000000E+01 0.  1.
         11    1    4    4    0    0  0.10762823482E+03 -0.81814017099E+02  0.40116366143E+03  0.42333161183E+03  0.00000000000E+00 0. -1.
        -12    1    4    4    0    0  0.24446889040E+03 -0.58711504850E+02  0.85143142451E+03  0.88777674548E+03  0.00000000000E+00 0.  1.
</event>
<event>
12    1  0.8358445E-002  0.1978550E+03  0.7818608E-02  0.1151565E+00
         21   -1    0    0  501  502  0.00000000000E+00  0.00000000000E+00  0.75713867758E+02  0.75713867758E+02  0.00000000000E+00 0. -1.
         21   -1    0    0  502  503 -0.00000000000E+00 -0.00000000000E+00 -0.11575695449E+04  0.11575695449E+04  0.00000000000E+00 0.  1.
         -6    2    1    2    0  503  0.57015931568E+02  0.79379226914E+02 -0.99965486112E+03  0.10190468300E+04  0.17203116668E+03 0.  0.
        -24    2    3    3    0    0  0.92587339356E+02  0.63463473847E+02 -0.53412140416E+03  0.55186150727E+03  0.81642029042E+02 0.  0.
          6    2    1    2  501    0 -0.57015931568E+02 -0.79379226914E+02 -0.82200815995E+02  0.21423658260E+03  0.17201296770E+03 0.  0.
         24    2    5    5    0    0 -0.11511540376E+02  0.21945699833E+02 -0.18505294201E+02  0.86109302547E+02  0.80363155542E+02 0.  0.
          5    1    5    5  501    0 -0.45504391192E+02 -0.10132492675E+03 -0.63695521794E+02  0.12812728006E+03  0.47000000000E+01 0. -1.
        -11    1    6    6    0    0 -0.45366337671E+01  0.73974204752E+01 -0.49986756162E+02  0.50734393336E+02  0.00000000000E+00 0.  1.
         12    1    6    6    0    0 -0.69749066087E+01  0.14548279358E+02  0.31481461961E+02  0.35374909211E+02  0.00000000000E+00 0. -1.
         -5    1    3    3    0  503 -0.35571407788E+02  0.15915753066E+02 -0.46553345697E+03  0.46718532276E+03  0.47000000000E+01 0.  1.
         13    1    4    4    0    0  0.29545302814E+02  0.69442258349E+02 -0.28730899769E+03  0.29705489782E+03  0.00000000000E+00 0. -1.
        -14    1    4    4    0    0  0.63042036542E+02 -0.59787845013E+01 -0.24681240647E+03  0.25480660946E+03  0.00000000000E+00 0.  1.
</event>
<event>
12    1  0.8358445E-002  0.1906129E+03  0.7818608E-02  0.1157965E+00
         21   -1    0    0  501  502  0.00000000000E+00  0.00000000000E+00  0.14842614555E+03  0.14842614555E+03  0.00000000000E+00 0.  1.
         21   -1    0    0  502  503 -0.00000000000E+00 -0.00000000000E+00 -0.61148007340E+03  0.61148007340E+03  0.00000000000E+00 0. -1.
         -6    2    1    2    0  503 -0.55930458886E+02 -0.58863513960E+02 -0.52582433475E+03  0.55922391690E+03  0.17218312549E+03 0.  0.
        -24    2    3    3    0    0 -0.36875070184E+02 -0.86009630662E+02 -0.50366338324E+03  0.51905904091E+03  0.83594598952E+02 0.  0.
          6    2    1    2  501    0  0.55930458886E+02  0.58863513960E+02  0.62770406912E+02  0.20068230205E+03  0.17245327734E+03 0.  0.
         24    2    5    5    0    0  0.96311541686E+01  0.25526855720E+02  0.10145031753E+03  0.13159406944E+03  0.79249307197E+02 0.  0.
          5    1    5    5  501    0  0.46299304717E+02  0.33336658240E+02 -0.38679910617E+02  0.69088232611E+02  0.47000000000E+01 0. -1.
        -11    1    6    6    0    0  0.31384020700E+02 -0.16562376755E+02  0.33831444146E+02  0.49028927095E+02  0.00000000000E+00 0.  1.
         12    1    6    6    0    0 -0.21752866531E+02  0.42089232475E+02  0.67618873384E+02  0.82565142345E+02  0.00000000000E+00 0. -1.
         -5    1    3    3    0  503 -0.19055388702E+02  0.27146116702E+02 -0.22160951518E+02  0.40164875983E+02  0.47000000000E+01 0.  1.
         13    1    4    4    0    0 -0.14719709249E+02  0.13372779101E+02 -0.14016868701E+03  0.14157246159E+03  0.00000000000E+00 0. -1.
        -14    1    4    4    0    0 -0.22155360935E+02 -0.99382409763E+02 -0.36349469623E+03  0.37748657933E+03  0.00000000000E+00 0.  1.
</event>
<event>
12    1  0.8358445E-002  0.2186960E+03  0.7818608E-02  0.1135180E+00
         21   -1    0    0  501  502  0.00000000000E+00  0.00000000000E+00  0.11705882244E+04  0.11705882244E+04  0.00000000000E+00 0. -1.
         21   -1    0    0  502  503 -0.00000000000E+00 -0.00000000000E+00 -0.13133483080E+03  0.13133483080E+03  0.00000000000E+00 0. -1.
         -6    2    1    2    0  503 -0.39157985573E+02 -0.12944127128E+03 -0.20990697527E+02  0.21970101919E+03  0.17187070113E+03 0.  0.
        -24    2    3    3    0    0  0.10020758867E+02 -0.12018528975E+03 -0.58897372956E+02  0.15674684426E+03  0.80967605642E+02 0.  0.
          6    2    1    2  501    0  0.39157985573E+02  0.12944127128E+03  0.10602440911E+04  0.10822220360E+04  0.16970153771E+03 0.  0.
         24    2    5    5    0    0  0.25804968980E+02  0.59920993660E+02  0.91354476342E+03  0.91926757978E+03  0.78945719132E+02 0.  0.
          5    1    5    5  501    0  0.13353016593E+02  0.69520277618E+02  0.14669932773E+03  0.16295445624E+03  0.47000000000E+01 0. -1.
        -13    1    6    6    0    0  0.31910081776E+02  0.39111202386E+02  0.23425342764E+03  0.23963014801E+03  0.00000000000E+00 0.  1.
         14    1    6    6    0    0 -0.61051127958E+01  0.20809791274E+02  0.67929133577E+03  0.67963743178E+03  0.00000000000E+00 0. -1.
         -5    1    3    3    0  503 -0.49178744440E+02 -0.92559815234E+01  0.37906675429E+02  0.62954174927E+02  0.47000000000E+01 0.  1.
         13    1    4    4    0    0 -0.33275157757E+00 -0.75599176305E+02  0.76409477831E+01  0.75985066063E+02  0.00000000000E+00 0. -1.
        -14    1    4    4    0    0  0.10353510445E+02 -0.44586113449E+02 -0.66538320739E+02  0.80761778199E+02  0.00000000000E+00 0.  1.
</event>
<event>
12    1  0.8358445E-002  0.2338534E+03  0.7818608E-02  0.1124091E+00
         21   -1    0    0  501  502  0.00000000000E+00  0.00000000000E+00  0.44002197081E+03  0.44002197081E+03  0.00000000000E+00 0. -1.
         21   -1    0    0  502  503 -0.00000000000E+00 -0.00000000000E+00 -0.21006799894E+03  0.21006799894E+03  0.00000000000E+00 0.  1.
         -6    2    1    2    0  503 -0.13576607799E+03  0.80964420923E+02 -0.93349799628E+02  0.25107526407E+03  0.17128029002E+03 0.  0.
        -24    2    3    3    0    0 -0.11835137741E+02  0.66319070609E+02 -0.23941413978E+02  0.10820126981E+03  0.81215970554E+02 0.  0.
          6    2    1    2  501    0  0.13576607799E+03 -0.80964420923E+02  0.32330377149E+03  0.39901470568E+03  0.17233612883E+03 0.  0.
         24    2    5    5    0    0  0.80884189743E+02 -0.82870923945E+02  0.31335524554E+03  0.34300828123E+03  0.77803141942E+02 0.  0.
          5    1    5    5  501    0  0.54881888250E+02  0.19065030221E+01  0.99485259534E+01  0.56006424456E+02  0.47000000000E+01 0. -1.
        -11    1    6    6    0    0  0.76721593738E+00  0.56070900669E+01  0.86349006995E+02  0.86534265400E+02  0.00000000000E+00 0.  1.
         12    1    6    6    0    0  0.80116973805E+02 -0.88478014012E+02  0.22700623855E+03  0.25647401583E+03  0.00000000000E+00 0. -1.
         -5    1    3    3    0  503 -0.12393094025E+03  0.14645350314E+02 -0.69408385650E+02  0.14287399426E+03  0.47000000000E+01 0.  1.
         11    1    4    4    0    0 -0.28849439471E+01 -0.18401245874E+02  0.29671102673E+01  0.18860872053E+02  0.00000000000E+00 0. -1.
        -12    1    4    4    0    0 -0.89501937939E+01  0.84720316483E+02 -0.26908524246E+02  0.89340397755E+02  0.00000000000E+00 0.  1.
</event>
<event>
12    1  0.8358445E-002  0.2794005E+03  0.7818608E-02  0.1096333E+00
         21   -1    0    0  501  502  0.00000000000E+00  0.00000000000E+00  0.42353359658E+03  0.42353359658E+03  0.00000000000E+00 0.  1.
         21   -1    0    0  502  503 -0.00000000000E+00 -0.00000000000E+00 -0.22029762278E+03  0.22029762278E+03  0.00000000000E+00 0. -1.
         -6    2    1    2    0  503  0.63176013486E+02  0.21019421898E+03 -0.31533113633E+02  0.27889126507E+03  0.16915431449E+03 0.  0.
        -24    2    3    3    0    0  0.97929531601E+02  0.15584037236E+03  0.11877503291E+02  0.20098927970E+03  0.79869898297E+02 0.  0.
          6    2    1    2  501    0 -0.63176013486E+02 -0.21019421898E+03  0.23476908743E+03  0.36493995428E+03  0.17289253149E+03 0.  0.
         24    2    5    5    0    0 -0.71527897389E+02 -0.39517890998E+02  0.60146604247E+02  0.12057288504E+03  0.65132962394E+02 0.  0.
          5    1    5    5  501    0  0.83518839038E+01 -0.17067632798E+03  0.17462248318E+03  0.24436706924E+03  0.47000000000E+01 0. -1.
        -13    1    6    6    0    0  0.47437192381E+01 -0.60391313272E+01  0.31602276179E+02  0.32521959337E+02  0.00000000000E+00 0.  1.
         14    1    6    6    0    0 -0.76271616628E+02 -0.33478759671E+02  0.28544328067E+02  0.88050925702E+02  0.00000000000E+00 0. -1.
         -5    1    3    3    0  503 -0.34753518115E+02  0.54353846615E+02 -0.43410616924E+02  0.77901985372E+02  0.47000000000E+01 0.  1.
         11    1    4    4    0    0  0.24200678617E+02  0.11203877771E+03  0.11822170252E+02  0.11523074358E+03  0.00000000000E+00 0. -1.
        -12    1    4    4    0    0  0.73728852984E+02  0.43801594649E+02  0.55333038830E-01  0.85758536123E+02  0.00000000000E+00 0.  1.
</event>
<event>
12    1  0.8358445E-002  0.2218095E+03  0.7818608E-02  0.1133356E+00
         21   -1    0    0  501  502  0.00000000000E+00  0.00000000000E+00  0.67159369352E+02  0.67159369352E+02  0.00000000000E+00 0.  1.
         21   -1    0    0  502  503 -0.00000000000E+00 -0.00000000000E+00 -0.13200970649E+04  0.13200970649E+04  0.00000000000E+00 0. -1.
         -6    2    1    2    0  503 -0.10669359581E+03  0.79404741732E+02 -0.10914262021E+04  0.11128745205E+04  0.17201717178E+03 0.  0.
        -24    2    3    3    0    0 -0.90351362184E+01 -0.90455999731E+01 -0.13348630271E+03  0.14590421150E+03  0.57497733492E+02 0.  0.
          6    2    1    2  501    0  0.10669359581E+03 -0.79404741732E+02 -0.16151149349E+03  0.27438191378E+03  0.17751291695E+03 0.  0.
         24    2    5    5    0    0  0.41271579602E+01  0.48209346539E+01 -0.27406466286E+02  0.85649068049E+02  0.80897302920E+02 0.  0.
          5    1    5    5  501    0  0.10256643785E+03 -0.84225676386E+02 -0.13410502720E+03  0.18873284573E+03  0.47000000000E+01 0. -1.
        -13    1    6    6    0    0  0.95299001506E+01 -0.35717939734E+02 -0.10260395605E+01  0.36981657249E+02  0.00000000000E+00 0.  1.
         14    1    6    6    0    0 -0.54027421904E+01  0.40538874388E+02 -0.26380426725E+02  0.48667410800E+02  0.00000000000E+00 0. -1.
         -5    1    3    3    0  503 -0.97658459587E+02  0.88450341705E+02 -0.95793989937E+03  0.96697030900E+03  0.47000000000E+01 0.  1.
         11    1    4    4    0    0 -0.10480950920E+01  0.11629286386E+02 -0.11867214837E+03  0.11924519950E+03  0.00000000000E+00 0. -1.
        -12    1    4    4    0    0 -0.79870411265E+01 -0.20674886359E+02 -0.14814154340E+02  0.26659011998E+02  0.00000000000E+00 0.  1.
</event>
<event>
12    1  0.8358445E-002  0.2530441E+03  0.7818608E-02  0.1112013E+00
         21   -1    0    0  501  502  0.00000000000E+00  0.00000000000E+00  0.44233819312E+02  0.44233819312E+02  0.00000000000E+00 0. -1.
         21   -1    0    0  502  503 -0.00000000000E+00 -0.00000000000E+00 -0.15707027563E+04  0.15707027563E+04  0.00000000000E+00 0. -1.
         -6    2    1    2    0  503 -0.13575137592E+02 -0.18376148641E+03 -0.10036132671E+04  0.10340670683E+04  0.16763813298E+03 0.  0.
        -24    2    3    3    0    0  0.13800821111E+02 -0.18879637260E+03 -0.65997356294E+03  0.68926983882E+03  0.60772312427E+02 0.  0.
          6    2    1    2  501    0  0.13575137592E+02  0.18376148641E+03 -0.52285566995E+03  0.58086950736E+03  0.17343230590E+03 0.  0.
         24    2    5    5    0    0 -0.13450353217E+02  0.36463654329E+02 -0.11593664194E+03  0.14724269332E+03  0.82028017802E+02 0.  0.
          5    1    5    5  501    0  0.27025490808E+02  0.14729783208E+03 -0.40691902802E+03  0.43362681404E+03  0.47000000000E+01 0. -1.
        -11    1    6    6    0    0 -0.18084553310E+02 -0.77590525462E+01 -0.96893366168E+02  0.98871524577E+02  0.00000000000E+00 0.  1.
         12    1    6    6    0    0  0.46342000932E+01  0.44222706875E+02 -0.19043275771E+02  0.48371168747E+02  0.00000000000E+00 0. -1.
         -5    1    3    3    0  503 -0.27375958703E+02  0.50348861854E+01 -0.34363970412E+03  0.34479722946E+03  0.47000000000E+01 0.  1.
         11    1    4    4    0    0  0.91604898054E+01 -0.17878611302E+03 -0.65063683627E+03  0.67481603529E+03  0.00000000000E+00 0. -1.
        -12    1    4    4    0    0  0.46403313053E+01 -0.10010259578E+02 -0.93367266773E+01  0.14453803530E+02  0.00000000000E+00 0.  1.
</event>
<event>
12    1  0.8358445E-002  0.2067227E+03  0.7818608E-02  0.1144892E+00
         21   -1    0    0  501  502  0.00000000000E+00  0.00000000000E+00  0.11586077938E+03  0.11586077938E+03  0.00000000000E+00 0.  1.
         21   -1    0    0  502  503 -0.00000000000E+00 -0.00000000000E+00 -0.54566973118E+03  0.54566973118E+03  0.00000000000E+00 0. -1.
         -6    2    1    2    0  503 -0.74882122174E+02 -0.86629417169E+02 -0.40763169877E+03  0.45705346329E+03  0.17211123823E+03 0.  0.
        -24    2    3    3    0    0 -0.81903095923E+01 -0.39703302228E+00 -0.96838536724E+02  0.12766265966E+03  0.82781723047E+02 0.  0.
          6    2    1    2  501    0  0.74882122174E+02  0.86629417169E+02 -0.22177253028E+02  0.20447704728E+03  0.16794952864E+03 0.  0.
         24    2    5    5    0    0 -0.12022831780E+02  0.19358986328E+02 -0.41201339101E+02  0.92844669633E+02  0.80020394275E+02 0.  0.
          5    1    5    5  501    0  0.86904953953E+02  0.67270430842E+02  0.19024086073E+02  0.11163237764E+03  0.47000000000E+01 0. -1.
        -13    1    6    6    0    0  0.33976306657E+02  0.53489422943E+01 -0.23259185080E+02  0.41520962035E+02  0.00000000000E+00 0.  1.
         14    1    6    6    0    0 -0.45999138437E+02  0.14010044033E+02 -0.17942154021E+02  0.51323707598E+02  0.00000000000E+00 0. -1.
         -5    1    3    3    0  503 -0.66691812582E+02 -0.86232384147E+02 -0.31079316205E+03  0.32939080363E+03  0.47000000000E+01 0.  1.
         13    1    4    4    0    0  0.37872907701E+01 -0.40830130946E+02 -0.46676922852E+02  0.62130333102E+02  0.00000000000E+00 0. -1.
        -14    1    4    4    0    0 -0.11977600362E+02  0.40433097924E+02 -0.50161613871E+02  0.65532326560E+02  0.00000000000E+00 0.  1.
</event>
<event>
12    1  0.8358445E-002  0.3137892E+03  0.7818608E-02  0.1078593E+00
         21   -1    0    0  503  502  0.00000000000E+00  0.00000000000E+00  0.49684894907E+03  0.49684894907E+03  0.00000000000E+00 0.  1.
         21   -1    0    0  501  503 -0.00000000000E+00 -0.00000000000E+00 -0.19830566814E+03  0.19830566814E+03  0.00000000000E+00 0. -1.
          6    2    1    2  501    0  0.36096189106E+02 -0.25895015386E+03  0.16462656941E+03  0.35398406150E+03  0.17275616165E+03 0.  0.
         24    2    3    3    0    0  0.57843085485E+02 -0.19157874928E+03  0.17945051882E+03  0.28150183517E+03  0.83621497157E+02 0.  0.
         -6    2    1    2    0  502 -0.36096189106E+02  0.25895015386E+03  0.13391671153E+03  0.34117055571E+03  0.17350949658E+03 0.  0.
        -24    2    5    5    0    0 -0.12634097102E+02  0.27253808385E+03  0.11023857612E+03  0.30486841116E+03  0.79721872172E+02 0.  0.
          5    1    3    3  501    0 -0.21746896379E+02 -0.67371404582E+02 -0.14823949411E+02  0.72482226329E+02  0.47000000000E+01 0. -1.
        -13    1    4    4    0    0  0.24995767438E+02 -0.71121555178E+02  0.18178195124E+02  0.77546829585E+02  0.00000000000E+00 0.  1.
         14    1    4    4    0    0  0.32847318048E+02 -0.12045719410E+03  0.16127232370E+03  0.20395500559E+03  0.00000000000E+00 0. -1.
         -5    1    5    5    0  502 -0.23462092004E+02 -0.13587929985E+02  0.23678135405E+02  0.36302144547E+02  0.47000000000E+01 0.  1.
         11    1    6    6    0    0  0.31075825103E+02  0.90481718700E+02  0.51444899834E+02  0.10862424243E+03  0.00000000000E+00 0. -1.
        -12    1    6    6    0    0 -0.43709922205E+02  0.18205636515E+03  0.58793676289E+02  0.19624416873E+03  0.00000000000E+00 0.  1.
</event>
<event>
12    1  0.8358445E-002  0.1784322E+03  0.7818608E-02  0.1170067E+00
         21   -1    0    0  501  502  0.00000000000E+00  0.00000000000E+00  0.62152245484E+03  0.62152245484E+03  0.00000000000E+00 0. -1.
         21   -1    0    0  502  503 -0.00000000000E+00 -0.00000000000E+00 -0.24275130986E+03  0.24275130986E+03  0.00000000000E+00 0.  1.
         -6    2    1    2    0  503 -0.22961413470E+02  0.36246426576E+02 -0.19497763901E+03  0.26429972593E+03  0.17319652267E+03 0.  0.
        -24    2    3    3    0    0  0.39946782597E+02  0.21639955163E+02 -0.17712964172E+03  0.19713253790E+03  0.73636230393E+02 0.  0.
          6    2    1    2  501    0  0.22961413470E+02 -0.36246426576E+02  0.57374878399E+03  0.59997403877E+03  0.17011804762E+03 0.  0.
         24    2    5    5    0    0 -0.46736661753E+02  0.23359267369E+01  0.36453147551E+03  0.37605353537E+03  0.79644790928E+02 0.  0.
          5    1    5    5  501    0  0.69698075223E+02 -0.38582353312E+02  0.20921730848E+03  0.22392050341E+03  0.47000000000E+01 0. -1.
        -13    1    6    6    0    0 -0.20271859972E+02  0.24401659049E+02  0.47282158706E+02  0.56938491400E+02  0.00000000000E+00 0.  1.
         14    1    6    6    0    0 -0.26464801781E+02 -0.22065732312E+02  0.31724931680E+03  0.31911504397E+03  0.00000000000E+00 0. -1.
         -5    1    3    3    0  503 -0.62908196067E+02  0.14606471413E+02 -0.17847997293E+02  0.67167188023E+02  0.47000000000E+01 0.  1.
         13    1    4    4    0    0  0.43657374527E+02  0.26369742682E+02 -0.18223986526E+03  0.18924243226E+03  0.00000000000E+00 0. -1.
        -14    1    4    4    0    0 -0.37105919295E+01 -0.47297875192E+01  0.51102235387E+01  0.78901056431E+01  0.00000000000E+00 0.  1.
</event>
<event>
12    1  0.8358445E-002  0.1922985E+03  0.7818608E-02  0.1156624E+00
         21   -1    0    0  501  502  0.00000000000E+00  0.00000000000E+00  0.42695726832E+03  0.42695726832E+03  0.00000000000E+00 0.  1.
         21   -1    0    0  502  503 -0.00000000000E+00 -0.00000000000E+00 -0.17775016353E+03  0.17775016353E+03  0.00000000000E+00 0.  1.
         -6    2    1    2    0  503  0.81480675316E+02  0.13688919582E+02 -0.92580310126E+02  0.21253740314E+03  0.17255302646E+03 0.  0.
        -24    2    3    3    0    0 -0.15543485786E+02 -0.47820585964E+01 -0.29909054442E+02  0.95470579650E+02  0.89194237517E+02 0.  0.
          6    2    1    2  501    0 -0.81480675316E+02 -0.13688919582E+02  0.34178741492E+03  0.39217002872E+03  0.17364390994E+03 0.  0.
         24    2    5    5    0    0 -0.10226929324E+03  0.34278544960E+02  0.22174956353E+03  0.26115773901E+03  0.86002725143E+02 0.  0.
          5    1    5    5  501    0  0.20788617923E+02 -0.47967464542E+02  0.12003785138E+03  0.13101228971E+03  0.47000000000E+01 0. -1.
        -13    1    6    6    0    0 -0.29885629953E+02 -0.27249357249E+02  0.90584340225E+02  0.99202827793E+02  0.00000000000E+00 0.  1.
         14    1    6    6    0    0 -0.72383663286E+02  0.61527902209E+02  0.13116522331E+03  0.16195491122E+03  0.00000000000E+00 0. -1.
         -5    1    3    3    0  503  0.97024161102E+02  0.18470978178E+02 -0.62671255684E+02  0.11706682349E+03  0.47000000000E+01 0.  1.
         13    1    4    4    0    0  0.15015309879E+02  0.14220437764E+02  0.23351737699E+02  0.31192692006E+02  0.00000000000E+00 0. -1.
        -14    1    4    4    0    0 -0.30558795665E+02 -0.19002496360E+02 -0.53260792142E+02  0.64277887644E+02  0.00000000000E+00 0.  1.
</event>
<event>
12    1  0.8358445E-002  0.2010539E+03  0.7818608E-02  0.1149040E+00
         21   -1    0    0  503  502  0.00000000000E+00  0.00000000000E+00  0.16068681402E+03  0.16068681402E+03  0.00000000000E+00 0. -1.
         21   -1    0    0  501  503 -0.00000000000E+00 -0.00000000000E+00 -0.27586748932E+03  0.27586748932E+03  0.00000000000E+00 0. -1.
          6    2    1    2  501    0 -0.19805095154E+02 -0.10172475550E+03 -0.12372917080E+03  0.23531874487E+03  0.17124787971E+03 0.  0.
         24    2    3    3    0    0 -0.16315050615E+02  0.16390313357E+02 -0.49974533369E+02  0.95944477363E+02  0.78568858350E+02 0.  0.
         -6    2    1    2    0  502  0.19805095154E+02  0.10172475550E+03  0.85484954989E+01  0.20123555847E+03  0.17228611535E+03 0.  0.
        -24    2    5    5    0    0  0.72291814777E+02  0.85105267109E+02  0.32159830152E+02  0.14114688853E+03  0.80119763438E+02 0.  0.
          5    1    3    3  501    0 -0.34900445387E+01 -0.11811506885E+03 -0.73754637433E+02  0.13937426751E+03  0.47000000000E+01 0. -1.
        -13    1    4    4    0    0  0.31127524317E+02 -0.91059781034E+00 -0.22826850722E+02  0.38611100378E+02  0.00000000000E+00 0.  1.
         14    1    4    4    0    0 -0.47442574932E+02  0.17300911168E+02 -0.27147682647E+02  0.57333376985E+02  0.00000000000E+00 0. -1.
         -5    1    5    5    0  502 -0.52486719623E+02  0.16619488387E+02 -0.23611334653E+02  0.60088669940E+02  0.47000000000E+01 0.  1.
         13    1    6    6    0    0  0.47991873075E+02  0.15764894756E+02  0.43671732503E+02  0.66775534500E+02  0.00000000000E+00 0. -1.
        -14    1    6    6    0    0  0.24299941702E+02  0.69340372353E+02 -0.11511902351E+02  0.74371354032E+02  0.00000000000E+00 0.  1.
</event>
<event>
12    1  0.8358445E-002  0.2130921E+03  0.7818608E-02  0.1139165E+00
         21   -1    0    0  501  502  0.00000000000E+00  0.00000000000E+00  0.11922272061E+03  0.11922272061E+03  0.00000000000E+00 0.  1.
         21   -1    0    0  502  503 -0.00000000000E+00 -0.00000000000E+00 -0.40230987842E+03  0.40230987842E+03  0.00000000000E+00 0. -1.
         -6    2    1    2    0  503 -0.12336608127E+03 -0.22954573623E+02 -0.20201300831E+03  0.29353864620E+03  0.17207434098E+03 0.  0.
        -24    2    3    3    0    0 -0.36479485509E+02 -0.70941075631E+02 -0.11071184347E+03  0.15859429618E+03  0.80818620521E+02 0.  0.
          6    2    1    2  501    0  0.12336608127E+03  0.22954573623E+02 -0.81074149499E+02  0.22799395283E+03  0.17222695013E+03 0.  0.
         24    2    5    5    0    0  0.15113599661E+03  0.42771201879E+02 -0.79728893654E+02  0.19352996196E+03  0.80160367478E+02 0.  0.
          5    1    5    5  501    0 -0.27769915334E+02 -0.19816628256E+02 -0.13452558455E+01  0.34463990866E+02  0.47000000000E+01 0. -1.
        -13    1    6    6    0    0  0.61911532377E+02 -0.10716214660E+02 -0.61356953685E+00  0.62835114112E+02  0.00000000000E+00 0.  1.
         14    1    6    6    0    0  0.89224464230E+02  0.53487416538E+02 -0.79115324117E+02  0.13069484785E+03  0.00000000000E+00 0. -1.
         -5    1    3    3    0  503 -0.86886595764E+02  0.47986502008E+02 -0.91301164841E+02  0.13494435001E+03  0.47000000000E+01 0.  1.
         13    1    4    4    0    0 -0.11072078990E+02  0.17921162045E+02 -0.18463249955E+02  0.28011615111E+02  0.00000000000E+00 0. -1.
        -14    1    4    4    0    0 -0.25407406519E+02 -0.88862237676E+02 -0.92248593516E+02  0.13058268107E+03  0.00000000000E+00 0.  1.
</event>
<event>
12    1  0.8358445E-002  0.2476443E+03  0.7818608E-02  0.1115202E+00
         21   -1    0    0  501  502  0.00000000000E+00  0.00000000000E+00  0.38025347951E+03  0.38025347951E+03  0.00000000000E+00 0.  1.
         21   -1    0    0  502  503 -0.00000000000E+00 -0.00000000000E+00 -0.16316048442E+03  0.16316048442E+03  0.00000000000E+00 0. -1.
         -6    2    1    2    0  503  0.10235786851E+03  0.14455355736E+03  0.69327207888E+02  0.25716522384E+03  0.17307462670E+03 0.  0.
        -24    2    3    3    0    0  0.40811840912E+02  0.21732376936E+02  0.69100630530E+02  0.11970578541E+03  0.86120121668E+02 0.  0.
          6    2    1    2  501    0 -0.10235786851E+03 -0.14455355736E+03  0.14776578720E+03  0.28624874010E+03  0.16950147240E+03 0.  0.
         24    2    5    5    0    0 -0.11198514112E+03 -0.10039213259E+03  0.47559544946E+02  0.17622012199E+03  0.78564425542E+02 0.  0.
          5    1    5    5  501    0  0.96272726097E+01 -0.44161424775E+02  0.10020624225E+03  0.11002861811E+03  0.47000000000E+01 0. -1.
        -13    1    6    6    0    0 -0.50822818090E+02 -0.57361644338E+02  0.63771690987E+02  0.99700279092E+02  0.00000000000E+00 0.  1.
         14    1    6    6    0    0 -0.61162323033E+02 -0.43030488248E+02 -0.16212146040E+02  0.76519842896E+02  0.00000000000E+00 0. -1.
         -5    1    3    3    0  503  0.61546027601E+02  0.12282118042E+03  0.22657735889E+00  0.13745943842E+03  0.47000000000E+01 0.  1.
         11    1    4    4    0    0 -0.17820205861E+02 -0.45353678914E+01 -0.73860471103E+01  0.19816230488E+02  0.00000000000E+00 0. -1.
        -12    1    4    4    0    0  0.58632046772E+02  0.26267744828E+02  0.76486677640E+02  0.99889554927E+02  0.00000000000E+00 0.  1.
</event>
<event>
12    1  0.8358445E-002  0.1816497E+03  0.7818608E-02  0.1166332E+00
         21   -1    0    0  501  502  0.00000000000E+00  0.00000000000E+00  0.26638381928E+02  0.26638381928E+02  0.00000000000E+00 0.  1.
         21   -1    0    0  502  503 -0.00000000000E+00 -0.00000000000E+00 -0.13175193601E+04  0.13175193601E+04  0.00000000000E+00 0.  1.
         -6    2    1    2    0  503  0.56111671763E+02  0.13074479027E+02 -0.47682059546E+03  0.51007686938E+03  0.17175875731E+03 0.  0.
        -24    2    3    3    0    0  0.36811730391E+01 -0.31388155938E+02 -0.12354270498E+03  0.15014181829E+03  0.79252749328E+02 0.  0.
          6    2    1    2  501    0 -0.56111671763E+02 -0.13074479027E+02 -0.81406038276E+03  0.83408087269E+03  0.17227052478E+03 0.  0.
         24    2    5    5    0    0  0.65296139762E+01 -0.61998975315E+02 -0.50924071225E+03  0.51903379916E+03  0.78635061232E+02 0.  0.
          5    1    5    5  501    0 -0.62641285740E+02  0.48924496288E+02 -0.30481967050E+03  0.31504707353E+03  0.47000000000E+01 0. -1.
        -11    1    6    6    0    0 -0.27682429262E+02 -0.11913484297E+02 -0.28985935079E+03  0.29142184413E+03  0.00000000000E+00 0.  1.
         12    1    6    6    0    0  0.34212043238E+02 -0.50085491019E+02 -0.21938136146E+03  0.22761195502E+03  0.00000000000E+00 0. -1.
         -5    1    3    3    0  503  0.52430498724E+02  0.44462634965E+02 -0.35327789047E+03  0.35993505109E+03  0.47000000000E+01 0.  1.
         13    1    4    4    0    0  0.23850710539E+02 -0.31153793493E+02 -0.12390393017E+03  0.12996768504E+03  0.00000000000E+00 0. -1.
        -14    1    4    4    0    0 -0.20169537500E+02 -0.23436244579E+00  0.36122518899E+00  0.20174133249E+02  0.00000000000E+00 0.  1.
</event>
<event>
12    1  0.8358445E-002  0.2129689E+03  0.7818608E-02  0.1139361E+00
         21   -1    0    0  501  502  0.00000000000E+00  0.00000000000E+00  0.80218509801E+02  0.80218509801E+02  0.00000000000E+00 0. -1.
         21   -1    0    0  502  503 -0.00000000000E+00 -0.00000000000E+00 -0.74971158360E+03  0.74971158360E+03  0.00000000000E+00 0. -1.
         -6    2    1    2    0  503 -0.11617960058E+03  0.41380965032E+02 -0.54106311232E+03  0.58123343380E+03  0.17283786969E+03 0.  0.
        -24    2    3    3    0    0  0.83414752756E+01  0.37710044136E+01 -0.24066092964E+03  0.25384441623E+03  0.80221592550E+02 0.  0.
          6    2    1    2  501    0  0.11617960058E+03 -0.41380965032E+02 -0.12842996148E+03  0.24869665959E+03  0.17362514113E+03 0.  0.
         24    2    5    5    0    0  0.99454031937E+01 -0.62989083114E+02 -0.70903932664E+02  0.12587992844E+03  0.82169660338E+02 0.  0.
          5    1    5    5  501    0  0.10623419738E+03  0.21608118082E+02 -0.57526028812E+02  0.12281673116E+03  0.47000000000E+01 0. -1.
        -13    1    6    6    0    0 -0.44661781862E+00  0.13814458859E+01  0.16650328315E+02  0.16713506311E+02  0.00000000000E+00 0.  1.
         14    1    6    6    0    0  0.10392021012E+02 -0.64370529000E+02 -0.87554260979E+02  0.10916642213E+03  0.00000000000E+00 0. -1.
         -5    1    3    3    0  503 -0.12452107585E+03  0.37609960618E+02 -0.30040218268E+03  0.32738901757E+03  0.47000000000E+01 0.  1.
         11    1    4    4    0    0 -0.20988569907E+02 -0.28939465379E+02 -0.87912859504E+02  0.94903548876E+02  0.00000000000E+00 0. -1.
        -12    1    4    4    0    0  0.29330045182E+02  0.32710469793E+02 -0.15274807014E+03  0.15894086735E+03  0.00000000000E+00 0.  1.
</event>
<event>
12    1  0.8358445E-002  0.2005460E+03  0.7818608E-02  0.1149561E+00
         21   -1    0    0  503  502  0.00000000000E+00  0.00000000000E+00  0.57737587367E+03  0.57737587367E+03  0.00000000000E+00 0.  1.
         21   -1    0    0  501  503 -0.00000000000E+00 -0.00000000000E+00 -0.69648301288E+02  0.69648301288E+02  0.00000000000E+00 0. -1.
          6    2    1    2  501    0  0.26759509650E+02  0.96273561693E+02  0.27912870677E+03  0.34292528683E+03  0.17233759708E+03 0.  0.
         24    2    3    3    0    0  0.51971635592E+02  0.82374753277E+01  0.20149087632E+03  0.22277651857E+03  0.79132149478E+02 0.  0.
         -6    2    1    2    0  502 -0.26759509650E+02 -0.96273561693E+02  0.22859886561E+03  0.30409888813E+03  0.17387933277E+03 0.  0.
        -24    2    5    5    0    0 -0.69875578939E+01  0.54423265495E+01  0.43924638959E+02  0.92288331291E+02  0.80680340240E+02 0.  0.
          5    1    3    3  501    0 -0.25212125942E+02  0.88036086366E+02  0.77637830453E+02  0.12014876826E+03  0.47000000000E+01 0. -1.
        -13    1    4    4    0    0 -0.19764127867E+02  0.11790173944E+02  0.43014289057E+02  0.48783788445E+02  0.00000000000E+00 0.  1.
         14    1    4    4    0    0  0.71735763459E+02 -0.35526986162E+01  0.15847658726E+03  0.17399273013E+03  0.00000000000E+00 0. -1.
         -5    1    5    5    0  502 -0.19771951756E+02 -0.10171588824E+03  0.18467422665E+03  0.21181055684E+03  0.47000000000E+01 0.  1.
         11    1    6    6    0    0 -0.14483317535E+02 -0.30175083536E+02  0.44748498086E+02  0.55881394347E+02  0.00000000000E+00 0. -1.
        -12    1    6    6    0    0  0.74957596409E+01  0.35617410086E+02 -0.82385912690E+00  0.36406936944E+02  0.00000000000E+00 0.  1.
</event>
<event>
12    1  0.8358445E-002  0.1981148E+03  0.7818608E-02  0.1152184E+00
         21   -1    0    0  501  502  0.00000000000E+00  0.00000000000E+00  0.26410749341E+03  0.26410749341E+03  0.00000000000E+00 0. -1.
         21   -1    0    0  502  503 -0.00000000000E+00 -0.00000000000E+00 -0.15445331971E+03  0.15445331971E+03  0.00000000000E+00 0. -1.
         -6    2    1    2    0  503  0.10142987019E+03 -0.10833435346E+02  0.44680366614E+01  0.19425386699E+03  0.16525501384E+03 0.  0.
        -24    2    3    3    0    0 -0.11402664353E+02  0.24212126496E+02 -0.11990667983E+02  0.74870655377E+02  0.68888250769E+02 0.  0.
          6    2    1    2  501    0 -0.10142987019E+03  0.10833435346E+02  0.10518613704E+03  0.22430694613E+03  0.16983551092E+03 0.  0.
         24    2    5    5    0    0 -0.12537479527E+03 -0.52096815015E+01  0.12079396455E+03  0.19119448149E+03  0.78855360060E+02 0.  0.
          5    1    5    5  501    0  0.23944925074E+02  0.16043116848E+02 -0.15607827516E+02  0.33112464643E+02  0.47000000000E+01 0. -1.
        -13    1    6    6    0    0 -0.85507717705E+02 -0.74555649817E+01  0.28180771125E+02  0.90339975081E+02  0.00000000000E+00 0.  1.
         14    1    6    6    0    0 -0.39867077560E+02  0.22458834802E+01  0.92613193430E+02  0.10085450641E+03  0.00000000000E+00 0. -1.
         -5    1    3    3    0  503  0.11283253454E+03 -0.35045561842E+02  0.16458704645E+02  0.11938321161E+03  0.47000000000E+01 0.  1.
         11    1    4    4    0    0  0.69687530352E+01  0.40307289393E+02 -0.24238365821E+02  0.47547234144E+02  0.00000000000E+00 0. -1.
        -12    1    4    4    0    0 -0.18371417388E+02 -0.16095162897E+02  0.12247697838E+02  0.27323421233E+02  0.00000000000E+00 0.  1.
</event>
<event>
12    1  0.8358445E-002  0.1877454E+03  0.7818608E-02  0.1160758E+00
         21   -1    0    0  503  502  0.00000000000E+00  0.00000000000E+00  0.22705601571E+03  0.22705601571E+03  0.00000000000E+00 0.  1.
         21   -1    0    0  501  503 -0.00000000000E+00 -0.00000000000E+00 -0.25037288966E+03  0.25037288966E+03  0.00000000000E+00 0.  1.
          6    2    1    2  501    0 -0.93483231474E+01 -0.72371389168E+02 -0.15946893760E+03  0.24551140743E+03  0.17181530782E+03 0.  0.
         24    2    3    3    0    0  0.40633307007E+02 -0.10698257017E+01 -0.11846271225E+03  0.14914919064E+03  0.80992942360E+02 0.  0.
         -6    2    1    2    0  502  0.93483231474E+01  0.72371389168E+02  0.13615206365E+03  0.23191749793E+03  0.17298361857E+03 0.  0.
        -24    2    5    5    0    0  0.56169391158E+01  0.53420076189E+02  0.21810309150E+01  0.96479677871E+02  0.80114398214E+02 0.  0.
          5    1    3    3  501    0 -0.49981630154E+02 -0.71301563466E+02 -0.41006225358E+02  0.96362216785E+02  0.47000000000E+01 0. -1.
        -11    1    4    4    0    0 -0.24225970550E+02 -0.35179970208E+01 -0.22187551082E+02  0.33038785921E+02  0.00000000000E+00 0.  1.
         12    1    4    4    0    0  0.64859277557E+02  0.24481713191E+01 -0.96275161164E+02  0.11611040472E+03  0.00000000000E+00 0. -1.
         -5    1    5    5    0  502  0.37313840317E+01  0.18951312979E+02  0.13397103274E+03  0.13543782006E+03  0.47000000000E+01 0.  1.
         11    1    6    6    0    0 -0.36688794660E+02  0.23943445402E+02 -0.61797492712E+01  0.44244158172E+02  0.00000000000E+00 0. -1.
        -12    1    6    6    0    0  0.42305733776E+02  0.29476630786E+02  0.83607801863E+01  0.52235519698E+02  0.00000000000E+00 0.  1.
</event>
<event>
12    1  0.8358445E-002  0.2201955E+03  0.7818608E-02  0.1135743E+00
         21   -1    0    0  503  502  0.00000000000E+00  0.00000000000E+00  0.42820868721E+03  0.42820868721E+03  0.00000000000E+00 0.  1.
         21   -1    0    0  501  503 -0.00000000000E+00 -0.00000000000E+00 -0.14370740493E+03  0.14370740493E+03  0.00000000000E+00 0.  1.
          6    2    1    2  501    0  0.10132941764E+03 -0.68244909223E+02 -0.30734719266E+01  0.20972098504E+03  0.17043599039E+03 0.  0.
         24    2    3    3    0    0  0.66501248421E+02 -0.10098444576E+03 -0.39348511307E+02  0.14953089361E+03  0.78682326311E+02 0.  0.
         -6    2    1    2    0  502 -0.10132941764E+03  0.68244909223E+02  0.28757475421E+03  0.36219510710E+03  0.18319671894E+03 0.  0.
        -24    2    5    5    0    0 -0.20490539151E+01  0.47071596425E+01  0.20841739614E+02  0.70540812908E+02  0.67195775178E+02 0.  0.
          5    1    3    3  501    0  0.34828169222E+02  0.32739536539E+02  0.36275039380E+02  0.60190091429E+02  0.47000000000E+01 0. -1.
        -13    1    4    4    0    0  0.71116177764E+02 -0.76913264441E+02 -0.18942751446E+01  0.10476998265E+03  0.00000000000E+00 0.  1.
         14    1    4    4    0    0 -0.46149293429E+01 -0.24071181321E+02 -0.37454236162E+02  0.44760910955E+02  0.00000000000E+00 0. -1.
         -5    1    5    5    0  502 -0.99280363728E+02  0.63537749581E+02  0.26673301460E+03  0.29165429419E+03  0.47000000000E+01 0.  1.
         11    1    6    6    0    0 -0.30615731026E+02 -0.12423875116E+02  0.42030431700E+01  0.33306774551E+02  0.00000000000E+00 0. -1.
        -12    1    6    6    0    0  0.28566677111E+02  0.17131034758E+02  0.16638696444E+02  0.37234038357E+02  0.00000000000E+00 0.  1.
</event>
<event>
12    1  0.8358445E-002  0.2140686E+03  0.7818608E-02  0.1138750E+00
         21   -1    0    0  503  502  0.00000000000E+00  0.00000000000E+00  0.57101934312E+03  0.57101934312E+03  0.00000000000E+00 0.  1.
         21   -1    0    0  501  503 -0.00000000000E+00 -0.00000000000E+00 -0.17443469796E+03  0.17443469796E+03  0.00000000000E+00 0.  1.
          6    2    1    2  501    0  0.12744929862E+03 -0.78104444741E+01 -0.77011564731E+02  0.22572456636E+03  0.16945935205E+03 0.  0.
         24    2    3    3    0    0  0.90672662282E+02  0.39519853256E+02  0.13487925869E+01  0.12695658743E+03  0.79578925378E+02 0.  0.
         -6    2    1    2    0  502 -0.12744929862E+03  0.78104444741E+01  0.47359620989E+03  0.51972947472E+03  0.17181685047E+03 0.  0.
        -24    2    5    5    0    0 -0.73176671799E+02  0.10712956231E+02  0.11912964905E+03  0.16108957823E+03  0.79299345549E+02 0.  0.
          5    1    3    3  501    0  0.36776636334E+02 -0.47330297730E+02 -0.78360357318E+02  0.98767978931E+02  0.47000000000E+01 0. -1.
        -11    1    4    4    0    0  0.91813185335E+02  0.29309666418E+02 -0.24242443429E+02  0.99380146963E+02  0.00000000000E+00 0.  1.
         12    1    4    4    0    0 -0.11405230535E+01  0.10210186838E+02  0.25591236016E+02  0.27576440469E+02  0.00000000000E+00 0. -1.
         -5    1    5    5    0  502 -0.54272626816E+02 -0.29025117573E+01  0.35446656085E+03  0.35863989649E+03  0.47000000000E+01 0.  1.
         11    1    6    6    0    0  0.13169368320E+02 -0.13284273900E+02  0.23392249524E+02  0.29951653256E+02  0.00000000000E+00 0. -1.
        -12    1    6    6    0    0 -0.86346040119E+02  0.23997230131E+02  0.95737399521E+02  0.13113792497E+03  0.00000000000E+00 0.  1.
</event>
<event>
12    1  0.8358445E-002  0.3089363E+03  0.7818608E-02  0.1080876E+00
         21   -1    0    0  503  502  0.00000000000E+00  0.00000000000E+00  0.10380720167E+04  0.10380720167E+04  0.00000000000E+00 0.  1.
         21   -1    0    0  501  503 -0.00000000000E+00 -0.00000000000E+00 -0.23291065045E+03  0.23291065045E+03  0.00000000000E+00 0. -1.
          6    2    1    2  501    0 -0.59009968315E+01 -0.25639899417E+03 -0.91941135306E+02  0.32217576037E+03  0.17195575661E+03 0.  0.
         24    2    3    3    0    0  0.45401293497E+02 -0.70900711179E+02 -0.31495421081E+02  0.12039044783E+03  0.80085642182E+02 0.  0.
         -6    2    1    2    0  502  0.59009968315E+01  0.25639899417E+03  0.89710250152E+03  0.94880690676E+03  0.17223931636E+03 0.  0.
        -24    2    5    5    0    0 -0.43461035708E+02  0.66732499504E+02  0.37010787011E+03  0.38652991009E+03  0.77996459891E+02 0.  0.
          5    1    3    3  501    0 -0.51302290328E+02 -0.18549828299E+03 -0.60445714225E+02  0.20178531253E+03  0.47000000000E+01 0. -1.
        -11    1    4    4    0    0  0.49555040577E+01  0.17775002674E+02 -0.19992220880E+01  0.18560835905E+02  0.00000000000E+00 0.  1.
         12    1    4    4    0    0  0.40445789439E+02 -0.88675713853E+02 -0.29496198993E+02  0.10182961193E+03  0.00000000000E+00 0. -1.
         -5    1    5    5    0  502  0.49362032539E+02  0.18966649466E+03  0.52699463141E+03  0.56227699668E+03  0.47000000000E+01 0.  1.
         11    1    6    6    0    0  0.10442413065E+02  0.14686699581E+02  0.19800530302E+03  0.19882364839E+03  0.00000000000E+00 0. -1.
        -12    1    6    6    0    0 -0.53903448773E+02  0.52045799923E+02  0.17210256709E+03  0.18770626170E+03  0.00000000000E+00 0.  1.
</event>
<event>
12    1  0.8358445E-002  0.6919656E+03  0.7818608E-02  0.9731106E-01
         21   -1    0    0  501  502  0.00000000000E+00  0.00000000000E+00  0.16261007599E+04  0.16261007599E+04  0.00000000000E+00 0.  1.
         21   -1    0    0  502  503 -0.00000000000E+00 -0.00000000000E+00 -0.48256503153E+03  0.48256503153E+03  0.00000000000E+00 0. -1.
         -6    2    1    2    0  503  0.52994862231E+03 -0.41023287364E+03  0.12301163694E+04  0.14113832295E+04  0.17227822055E+03 0.  0.
        -24    2    3    3    0    0  0.36392514530E+03 -0.20093701212E+03  0.80366099581E+03  0.90813892674E+03  0.77640967655E+02 0.  0.
          6    2    1    2  501    0 -0.52994862231E+03  0.41023287364E+03 -0.86580640959E+02  0.69728256203E+03  0.17195991110E+03 0.  0.
         24    2    5    5    0    0 -0.24742674383E+03  0.20929344812E+03  0.20472256185E+02  0.33440837263E+03  0.79913111717E+02 0.  0.
          5    1    5    5  501    0 -0.28252187848E+03  0.20093942552E+03 -0.10705289714E+03  0.36287418940E+03  0.47000000000E+01 0. -1.
        -13    1    6    6    0    0 -0.12011492964E+02  0.41693343002E+02  0.13136500539E+02  0.45334076149E+02  0.00000000000E+00 0.  1.
         14    1    6    6    0    0 -0.23541525086E+03  0.16760010512E+03  0.73357556457E+01  0.28907429648E+03  0.00000000000E+00 0. -1.
         -5    1    3    3    0  503  0.16602347700E+03 -0.20929586152E+03  0.42645537357E+03  0.50324430271E+03  0.47000000000E+01 0.  1.
         11    1    4    4    0    0  0.59031747675E+02 -0.24538794400E+01  0.10999138815E+03  0.12485541328E+03  0.00000000000E+00 0. -1.
        -12    1    4    4    0    0  0.30489339763E+03 -0.19848313268E+03  0.69366960766E+03  0.78328351347E+03  0.00000000000E+00 0.  1.
</event>
<event>
12    1  0.8358445E-002  0.2649106E+03  0.7818608E-02  0.1104274E+00
         21   -1    0    0  501  502  0.00000000000E+00  0.00000000000E+00  0.63819235929E+02  0.63819235929E+02  0.00000000000E+00 0. -1.
         21   -1    0    0  502  503 -0.00000000000E+00 -0.00000000000E+00 -0.15458494433E+04  0.15458494433E+04  0.00000000000E+00 0.  1.
         -6    2    1    2    0  503 -0.19981960084E+03  0.47776308939E+01 -0.11737439662E+04  0.12031984670E+04  0.17338095128E+03 0.  0.
        -24    2    3    3    0    0 -0.13557781726E+03 -0.65495685579E+02 -0.74862812077E+03  0.76752551883E+03  0.77332590098E+02 0.  0.
          6    2    1    2  501    0  0.19981960084E+03 -0.47776308939E+01 -0.30828624119E+03  0.40647021220E+03  0.17385893208E+03 0.  0.
         24    2    5    5    0    0  0.29865892615E+02 -0.19535964158E+02 -0.65382398201E+02  0.10960923754E+03  0.80409586008E+02 0.  0.
          5    1    5    5  501    0  0.16995370822E+03  0.14758333264E+02 -0.24290384299E+03  0.29686097466E+03  0.47000000000E+01 0. -1.
        -11    1    6    6    0    0 -0.13541978139E+02  0.23292930921E+02 -0.21755383173E+02  0.34630080852E+02  0.00000000000E+00 0.  1.
         12    1    6    6    0    0  0.43407870754E+02 -0.42828895079E+02 -0.43627015028E+02  0.74979156686E+02  0.00000000000E+00 0. -1.
         -5    1    3    3    0  503 -0.64241783576E+02  0.70273316473E+02 -0.42511584539E+03  0.43567294817E+03  0.47000000000E+01 0.  1.
         11    1    4    4    0    0 -0.86885713919E+01 -0.38273487122E+02 -0.15702565272E+03  0.16185612963E+03  0.00000000000E+00 0. -1.
        -12    1    4    4    0    0 -0.12688924587E+03 -0.27222198457E+02 -0.59160246805E+03  0.60566938920E+03  0.00000000000E+00 0.  1.
</event>
<event>
12    1  0.8358445E-002  0.2673968E+03  0.7818608E-02  0.1103414E+00
         21   -1    0    0  501  502  0.00000000000E+00  0.00000000000E+00  0.89490036163E+02  0.89490036163E+02  0.00000000000E+00 0. -1.
         21   -1    0    0  502  503 -0.00000000000E+00 -0.00000000000E+00 -0.11086895192E+04  0.11086895192E+04  0.00000000000E+00 0.  1.
         -6    2    1    2    0  503  0.18643813643E+03  0.62713622679E+02 -0.82981345375E+03  0.87050881713E+03  0.17465123958E+03 0.  0.
        -24    2    3    3    0    0  0.11292612568E+03  0.10420594581E+03 -0.46815435976E+03  0.49909931419E+03  0.79501143795E+02 0.  0.
          6    2    1    2  501    0 -0.18643813643E+03 -0.62713622679E+02 -0.18938602927E+03  0.32767073822E+03  0.18113218218E+03 0.  0.
         24    2    5    5    0    0 -0.41269916603E+02  0.10012948123E+02 -0.12208648991E+03  0.15184615477E+03  0.79678595332E+02 0.  0.
          5    1    5    5  501    0 -0.14516821982E+03 -0.72726570803E+02 -0.67299539366E+02  0.17582458345E+03  0.47000000000E+01 0. -1.
        -13    1    6    6    0    0 -0.42738977903E+02 -0.28256787414E+02 -0.79419443794E+02  0.94511979768E+02  0.00000000000E+00 0.  1.
         14    1    6    6    0    0  0.14690612998E+01  0.38269735537E+02 -0.42667046114E+02  0.57334175003E+02  0.00000000000E+00 0. -1.
         -5    1    3    3    0  503  0.73512010741E+02 -0.41492323126E+02 -0.36165909399E+03  0.37140950294E+03  0.47000000000E+01 0.  1.
         11    1    4    4    0    0  0.41510826954E+02  0.46011504575E+02 -0.86018908519E+02  0.10601631917E+03  0.00000000000E+00 0. -1.
        -12    1    4    4    0    0  0.71415298731E+02  0.58194441231E+02 -0.38213545124E+03  0.39308299502E+03  0.00000000000E+00 0.  1.
</event>
<event>
12    1  0.8358445E-002  0.1889518E+03  0.7818608E-02  0.1159994E+00
         21   -1    0    0  503  502  0.00000000000E+00  0.00000000000E+00  0.47155800610E+03  0.47155800610E+03  0.00000000000E+00 0.  1.
         21   -1    0    0  501  503 -0.00000000000E+00 -0.00000000000E+00 -0.76332328514E+02  0.76332328514E+02  0.00000000000E+00 0.  1.
          6    2    1    2  501    0 -0.37514640891E+02  0.62815876748E+02  0.15615655522E+03  0.24316617919E+03  0.17144018873E+03 0.  0.
         24    2    3    3    0    0  0.13138316438E+02  0.59194307484E+02  0.26643708294E+02  0.10397384690E+03  0.80150435119E+02 0.  0.
         -6    2    1    2    0  502  0.37514640891E+02 -0.62815876748E+02  0.23906912237E+03  0.30472415543E+03  0.17421131702E+03 0.  0.
        -24    2    5    5    0    0  0.35370212432E+02  0.12754099606E+02  0.50437413058E+02  0.10145233825E+03  0.79592244074E+02 0.  0.
          5    1    3    3  501    0 -0.50652957330E+02  0.36215692639E+01  0.12951284692E+03  0.13919233229E+03  0.47000000000E+01 0. -1.
        -11    1    4    4    0    0 -0.49722978300E+01  0.51776212810E+02 -0.18150976736E+02  0.55090452124E+02  0.00000000000E+00 0.  1.
         12    1    4    4    0    0  0.18110614268E+02  0.74180946735E+01  0.44794685030E+02  0.48883394775E+02  0.00000000000E+00 0. -1.
         -5    1    5    5    0  502  0.21444284592E+01 -0.75569976353E+02  0.18863170931E+03  0.20327181718E+03  0.47000000000E+01 0.  1.
         13    1    6    6    0    0  0.17899822754E+02  0.30983784958E+01  0.70707454974E+02  0.73003751909E+02  0.00000000000E+00 0. -1.
        -14    1    6    6    0    0  0.17470389678E+02  0.96557211097E+01 -0.20270041916E+02  0.28448586343E+02  0.00000000000E+00 0.  1.
</event>
<event>
12    1  0.8358445E-002  0.1766328E+03  0.7818608E-02  0.1172629E+00
         21   -1    0    0  501  502  0.00000000000E+00  0.00000000000E+00  0.43347316924E+03  0.43347316924E+03  0.00000000000E+00 0.  1.
         21   -1    0    0  502  503 -0.00000000000E+00 -0.00000000000E+00 -0.90131773907E+02  0.90131773907E+02  0.00000000000E+00 0. -1.
         -6    2    1    2    0  503  0.10819780488E+02 -0.17588971986E+02  0.44222089736E+02  0.17622691799E+03  0.16933367597E+03 0.  0.
        -24    2    3    3    0    0 -0.41751683389E+02 -0.48030794370E+02  0.16901408370E+01  0.10191998668E+03  0.79590620265E+02 0.  0.
          6    2    1    2  501    0 -0.10819780488E+02  0.17588971986E+02  0.29911930560E+03  0.34737802516E+03  0.17542147473E+03 0.  0.
         24    2    5    5    0    0 -0.81208604402E+01 -0.36378941634E+02  0.74430645543E+02  0.11623542020E+03  0.81125681163E+02 0.  0.
          5    1    5    5  501    0 -0.26989200476E+01  0.53967913620E+02  0.22468866006E+03  0.23114260496E+03  0.47000000000E+01 0. -1.
        -13    1    6    6    0    0 -0.17823933615E+02 -0.34504917430E+02  0.89870942516E+02  0.97903361766E+02  0.00000000000E+00 0.  1.
         14    1    6    6    0    0  0.97030731751E+01 -0.18740242047E+01 -0.15440296973E+02  0.18332058433E+02  0.00000000000E+00 0. -1.
         -5    1    3    3    0  503  0.52571463877E+02  0.30441822385E+02  0.42531948899E+02  0.74306931315E+02  0.47000000000E+01 0.  1.
         11    1    4    4    0    0 -0.39327984297E+01 -0.15287941367E+02 -0.35985485663E+02  0.39295587960E+02  0.00000000000E+00 0. -1.
        -12    1    4    4    0    0 -0.37818884959E+02 -0.32742853003E+02  0.37675626500E+02  0.62624398715E+02  0.00000000000E+00 0.  1.
</event>
<event>
12    1  0.8358445E-002  0.2621768E+03  0.7818608E-02  0.1105993E+00
         21   -1    0    0  503  502  0.00000000000E+00  0.00000000000E+00  0.40622095619E+03  0.40622095619E+03  0.00000000000E+00 0. -1.
         21   -1    0    0  501  503 -0.00000000000E+00 -0.00000000000E+00 -0.18269060972E+03  0.18269060972E+03  0.00000000000E+00 0.  1.
          6    2    1    2  501    0 -0.19180963904E+03 -0.44589209871E+02  0.29671021107E+02  0.26284695937E+03  0.17154888309E+03 0.  0.
         24    2    3    3    0    0 -0.10374471369E+03  0.87599081207E+01 -0.41653905172E+02  0.13750385195E+03  0.79577382946E+02 0.  0.
         -6    2    1    2    0  502  0.19180963904E+03  0.44589209871E+02  0.19385932537E+03  0.32606460655E+03  0.17308250733E+03 0.  0.
        -24    2    5    5    0    0  0.11659239916E+03  0.87944584514E+02  0.85411519711E+02  0.18706698701E+03  0.79817870433E+02 0.  0.
          5    1    3    3  501    0 -0.88064925356E+02 -0.53349117992E+02  0.71324926279E+02  0.12534310742E+03  0.47000000000E+01 0. -1.
        -13    1    4    4    0    0 -0.84494406369E+02  0.27405059031E+02 -0.10265198120E+01  0.88833528080E+02  0.00000000000E+00 0.  1.
         14    1    4    4    0    0 -0.19250307316E+02 -0.18645150910E+02 -0.40627385360E+02  0.48670323868E+02  0.00000000000E+00 0. -1.
         -5    1    5    5    0  502  0.75217239880E+02 -0.43355374643E+02  0.10844780566E+03  0.13899761954E+03  0.47000000000E+01 0.  1.
         11    1    6    6    0    0  0.81595132493E+02  0.88596169679E+02  0.91856881302E+02  0.15147519127E+03  0.00000000000E+00 0. -1.
        -12    1    6    6    0    0  0.34997266668E+02 -0.65158516497E+00 -0.64453615911E+01  0.35591795733E+02  0.00000000000E+00 0.  1.
</event>
<event>
12    1  0.8358445E-002  0.1966216E+03  0.7818608E-02  0.1154844E+00
         21   -1    0    0  503  502  0.00000000000E+00  0.00000000000E+00  0.18180932970E+03  0.18180932970E+03  0.00000000000E+00 0.  1.
         21   -1    0    0  501  503 -0.00000000000E+00 -0.00000000000E+00 -0.21994947892E+03  0.21994947892E+03  0.00000000000E+00 0.  1.
          6    2    1    2  501    0 -0.25650691386E+02  0.92242172615E+02 -0.76075494650E+02  0.20151112173E+03  0.16016452453E+03 0.  0.
         24    2    3    3    0    0 -0.83184349320E+02  0.58035227552E+02 -0.46949891844E+02  0.12836313731E+03  0.63127482657E+02 0.  0.
         -6    2    1    2    0  502  0.25650691386E+02 -0.92242172615E+02  0.37935345432E+02  0.20024768690E+03  0.17173662771E+03 0.  0.
        -24    2    5    5    0    0  0.37077880887E+02 -0.10534316620E+03 -0.22299040654E+02  0.13737887142E+03  0.76835897743E+02 0.  0.
          5    1    3    3  501    0  0.57533657934E+02  0.34206945063E+02 -0.29125602806E+02  0.73147984420E+02  0.47000000000E+01 0. -1.
        -13    1    4    4    0    0 -0.59396379652E+02  0.26255041642E+02  0.24537363978E+01  0.64986752110E+02  0.00000000000E+00 0.  1.
         14    1    4    4    0    0 -0.23787969668E+02  0.31780185909E+02 -0.49403628242E+02  0.63376385198E+02  0.00000000000E+00 0. -1.
         -5    1    5    5    0  502 -0.11427189501E+02  0.13100993581E+02  0.60234386086E+02  0.62868815480E+02  0.47000000000E+01 0.  1.
         11    1    6    6    0    0 -0.58577998160E+00  0.45856179347E+01  0.14715139945E+02  0.15424213874E+02  0.00000000000E+00 0. -1.
        -12    1    6    6    0    0  0.37663660869E+02 -0.10992878413E+03 -0.37014180600E+02  0.12195465754E+03  0.00000000000E+00 0.  1.
</event>
<event>
12    1  0.8358445E-002  0.1792895E+03  0.7818608E-02  0.1168846E+00
         21   -1    0    0  503  502  0.00000000000E+00  0.00000000000E+00  0.10824303632E+03  0.10824303632E+03  0.00000000000E+00 0. -1.
         21   -1    0    0  501  503 -0.00000000000E+00 -0.00000000000E+00 -0.32483411807E+03  0.32483411807E+03  0.00000000000E+00 0.  1.
          6    2    1    2  501    0  0.45435412339E+02  0.20576406835E+01 -0.17478216166E+03  0.25038677503E+03  0.17342468825E+03 0.  0.
         24    2    3    3    0    0 -0.23603631190E+02 -0.14999319412E+01 -0.15850939309E+03  0.17921136599E+03  0.80200404007E+02 0.  0.
         -6    2    1    2    0  502 -0.45435412339E+02 -0.20576406835E+01 -0.41808920079E+02  0.18269037936E+03  0.17192782885E+03 0.  0.
        -24    2    5    5    0    0 -0.55607370439E+02  0.35184548507E+02  0.28021062604E+02  0.10276062352E+03  0.73786405903E+02 0.  0.
          5    1    3    3  501    0  0.69039043529E+02  0.35575726247E+01 -0.16272768574E+02  0.71175409036E+02  0.47000000000E+01 0. -1.
        -13    1    4    4    0    0 -0.89797632718E+01  0.37427844858E+02 -0.10222919418E+03  0.10923501207E+03  0.00000000000E+00 0.  1.
         14    1    4    4    0    0 -0.14623867918E+02 -0.38927776799E+02 -0.56280198908E+02  0.69976353924E+02  0.00000000000E+00 0. -1.
         -5    1    5    5    0  502  0.10171958100E+02 -0.37242189190E+02 -0.69829982683E+02  0.79929755841E+02  0.47000000000E+01 0.  1.
         13    1    6    6    0    0 -0.65548383243E+02  0.32881076576E+02  0.42081856612E+00  0.73334390506E+02  0.00000000000E+00 0. -1.
        -14    1    6    6    0    0  0.99410128033E+01  0.23034719303E+01  0.27600244038E+02  0.29426233015E+02  0.00000000000E+00 0.  1.
</event>
<event>
12    1  0.8358445E-002  0.2223302E+03  0.7818608E-02  0.1132168E+00
         21   -1    0    0  503  502  0.00000000000E+00  0.00000000000E+00  0.78203022261E+03  0.78203022261E+03  0.00000000000E+00 0. -1.
         21   -1    0    0  501  503 -0.00000000000E+00 -0.00000000000E+00 -0.68220565814E+02  0.68220565814E+02  0.00000000000E+00 0.  1.
          6    2    1    2  501    0 -0.16457722154E+02  0.13959726682E+03  0.24144743605E+03  0.32818106114E+03  0.17218504869E+03 0.  0.
         24    2    3    3    0    0  0.44157268010E+02  0.10981785705E+03  0.21263594753E+03  0.25460673036E+03  0.74837924329E+02 0.  0.
         -6    2    1    2    0  502  0.16457722154E+02 -0.13959726682E+03  0.47236222074E+03  0.52206972728E+03  0.17225701449E+03 0.  0.
        -24    2    5    5    0    0  0.43197967868E+02 -0.24496426055E+02  0.28190984835E+03  0.29788801431E+03  0.82449785634E+02 0.  0.
          5    1    3    3  501    0 -0.60614990164E+02  0.29779409768E+02  0.28811488527E+02  0.73574330781E+02  0.47000000000E+01 0. -1.
        -11    1    4    4    0    0  0.65452553873E+01 -0.54603504607E+01 -0.13713587431E+01  0.86334477494E+01  0.00000000000E+00 0.  1.
         12    1    4    4    0    0  0.37612012623E+02  0.11527820751E+03  0.21400730627E+03  0.24597328261E+03  0.00000000000E+00 0. -1.
         -5    1    5    5    0  502 -0.26740245714E+02 -0.11510084076E+03  0.19045237239E+03  0.22418171298E+03  0.47000000000E+01 0.  1.
         13    1    6    6    0    0 -0.12840074271E+02 -0.35378594133E+02  0.13882146420E+03  0.14383292862E+03  0.00000000000E+00 0. -1.
        -14    1    6    6    0    0  0.56038042139E+02  0.10882168079E+02  0.14308838415E+03  0.15405508569E+03  0.00000000000E+00 0.  1.
</event>
<event>
12    1  0.8358445E-002  0.2752917E+03  0.7818608E-02  0.1098532E+00
         21   -1    0    0  503  502  0.00000000000E+00  0.00000000000E+00  0.76610885298E+03  0.76610885298E+03  0.00000000000E+00 0. -1.
         21   -1    0    0  501  503 -0.00000000000E+00 -0.00000000000E+00 -0.13858286984E+03  0.13858286984E+03  0.00000000000E+00 0. -1.
          6    2    1    2  501    0 -0.61135423845E+02  0.20360213814E+03  0.69173352210E+02  0.28216204113E+03  0.17216008277E+03 0.  0.
         24    2    3    3    0    0 -0.60979584820E+02  0.38791059454E+02  0.12479729220E+02  0.10780902903E+03  0.79017637526E+02 0.  0.
         -6    2    1    2    0  502  0.61135423845E+02 -0.20360213814E+03  0.55835263093E+03  0.62252968169E+03  0.17491190187E+03 0.  0.
        -24    2    5    5    0    0  0.14583889183E+02 -0.16880209829E+03  0.52426884540E+03  0.55498797170E+03  0.66685742551E+02 0.  0.
          5    1    3    3  501    0 -0.15583902432E+00  0.16481107868E+03  0.56693622989E+02  0.17435301211E+03  0.47000000000E+01 0. -1.
        -13    1    4    4    0    0 -0.61714804877E+02  0.57875558783E+02 -0.69060092624E+00  0.84609540686E+02  0.00000000000E+00 0.  1.
         14    1    4    4    0    0  0.73522005691E+00 -0.19084499329E+02  0.13170330147E+02  0.23199488342E+02  0.00000000000E+00 0. -1.
         -5    1    5    5    0  502  0.46551534661E+02 -0.34800039850E+02  0.34083785532E+02  0.67541709995E+02  0.47000000000E+01 0.  1.
         11    1    6    6    0    0  0.27507678799E+02 -0.16012960652E+03  0.50329280540E+03  0.52886842527E+03  0.00000000000E+00 0. -1.
        -12    1    6    6    0    0 -0.12923789616E+02 -0.86724917705E+01  0.20976039996E+02  0.26119546426E+02  0.00000000000E+00 0.  1.
</event>
<event>
12    1  0.8358445E-002  0.1758153E+03  0.7818608E-02  0.1171953E+00
         21   -1    0    0  501  502  0.00000000000E+00  0.00000000000E+00  0.10082186519E+04  0.10082186519E+04  0.00000000000E+00 0. -1.
         21   -1    0    0  502  503 -0.00000000000E+00 -0.00000000000E+00 -0.39341043529E+02  0.39341043529E+02  0.00000000000E+00 0. -1.
         -6    2    1    2    0  503  0.51552862467E+01 -0.40187944061E+02  0.23816993772E+03  0.29603368464E+03  0.17108294884E+03 0.  0.
        -24    2    3    3    0    0 -0.32523233399E+02 -0.19605530279E+02  0.47540971127E+02  0.10057320397E+03  0.80079260070E+02 0.  0.
          6    2    1    2  501    0 -0.51552862467E+01  0.40187944061E+02  0.73070767061E+03  0.75152601074E+03  0.17092687651E+03 0.  0.
         24    2    5    5    0    0 -0.39749673564E+02  0.26071692157E+02  0.21166986985E+03  0.23112388852E+03  0.79714166621E+02 0.  0.
          5    1    5    5  501    0  0.34594387317E+02  0.14116251904E+02  0.51903780076E+03  0.52040212223E+03  0.47000000000E+01 0. -1.
        -13    1    6    6    0    0  0.91874152343E+01  0.40708009335E+02  0.94540396740E+02  0.10334136267E+03  0.00000000000E+00 0.  1.
         14    1    6    6    0    0 -0.48937088798E+02 -0.14636317178E+02  0.11712947311E+03  0.12778252585E+03  0.00000000000E+00 0. -1.
         -5    1    3    3    0  503  0.37678519645E+02 -0.20582413783E+02  0.19062896659E+03  0.19546048067E+03  0.47000000000E+01 0.  1.
         11    1    4    4    0    0 -0.25811250416E+02 -0.50026265690E+02  0.22572340750E+02  0.60649472165E+02  0.00000000000E+00 0. -1.
        -12    1    4    4    0    0 -0.67119829827E+01  0.30420735411E+02  0.24968630377E+02  0.39923731807E+02  0.00000000000E+00 0.  1.
</event>
<event>
12    1  0.8358445E-002  0.1974357E+03  0.7818608E-02  0.1152027E+00
         21   -1    0    0  503  502  0.00000000000E+00  0.00000000000E+00  0.15939464909E+03  0.15939464909E+03  0.00000000000E+00 0.  1.
         21   -1    0    0  501  503 -0.00000000000E+00 -0.00000000000E+00 -0.26223733178E+03  0.26223733178E+03  0.00000000000E+00 0.  1.
          6    2    1    2  501    0  0.22550937297E+02 -0.92030675509E+02 -0.10704224033E+03  0.22415159095E+03  0.17264907907E+03 0.  0.
         24    2    3    3    0    0  0.34862835502E+02 -0.11083828459E+03 -0.30933506642E+02  0.14465355109E+03  0.80419061053E+02 0.  0.
         -6    2    1    2    0  502 -0.22550937297E+02  0.92030675509E+02  0.41995576507E+01  0.19748038992E+03  0.17321281162E+03 0.  0.
        -24    2    5    5    0    0  0.34824988567E+00  0.43339095017E+02 -0.65666319863E+02  0.10917085688E+03  0.75682309646E+02 0.  0.
          5    1    3    3  501    0 -0.12311898206E+02  0.18807609082E+02 -0.76108733691E+02  0.79498039855E+02  0.47000000000E+01 0. -1.
        -11    1    4    4    0    0  0.55406650497E+02 -0.47399030002E+02 -0.27347090772E+02  0.77874439569E+02  0.00000000000E+00 0.  1.
         12    1    4    4    0    0 -0.20543814995E+02 -0.63439254589E+02 -0.35864158699E+01  0.66779111526E+02  0.00000000000E+00 0. -1.
         -5    1    5    5    0  502 -0.22899187182E+02  0.48691580492E+02  0.69865877514E+02  0.88309533037E+02  0.47000000000E+01 0.  1.
         11    1    6    6    0    0  0.37346533938E+02  0.29892362766E+02 -0.35152355381E+02  0.59363330750E+02  0.00000000000E+00 0. -1.
        -12    1    6    6    0    0 -0.36998284053E+02  0.13446732251E+02 -0.30513964482E+02  0.49807526133E+02  0.00000000000E+00 0.  1.
</event>
<event>
12    1  0.8358445E-002  0.1913309E+03  0.7818608E-02  0.1157489E+00
         21   -1    0    0  503  502  0.00000000000E+00  0.00000000000E+00  0.65537303206E+02  0.65537303206E+02  0.00000000000E+00 0. -1.
         21   -1    0    0  501  503 -0.00000000000E+00 -0.00000000000E+00 -0.56193628279E+03  0.56193628279E+03  0.00000000000E+00 0. -1.
          6    2    1    2  501    0 -0.79039455669E+02  0.23848649297E+02 -0.28194754695E+03  0.34073736399E+03  0.17260225480E+03 0.  0.
         24    2    3    3    0    0 -0.26627522060E+02 -0.33573883537E+02 -0.64071198960E+02  0.10935769532E+03  0.77574199336E+02 0.  0.
         -6    2    1    2    0  502  0.79039455669E+02 -0.23848649297E+02 -0.21445143264E+03  0.28673622201E+03  0.17150000124E+03 0.  0.
        -24    2    5    5    0    0  0.66625713150E+02  0.96825742018E-01 -0.42768477877E+02  0.11288394640E+03  0.80465195128E+02 0.  0.
          5    1    3    3  501    0 -0.52411933609E+02  0.57422532835E+02 -0.21787634799E+03  0.23137966867E+03  0.47000000000E+01 0. -1.
        -13    1    4    4    0    0 -0.43613329704E+02 -0.35729938676E+02 -0.71192537421E+02  0.90813701775E+02  0.00000000000E+00 0.  1.
         14    1    4    4    0    0  0.16985807644E+02  0.21560551390E+01  0.71213384613E+01  0.18543993544E+02  0.00000000000E+00 0. -1.
         -5    1    5    5    0  502  0.12413742519E+02 -0.23945475039E+02 -0.17168295476E+03  0.17385227561E+03  0.47000000000E+01 0.  1.
         13    1    6    6    0    0  0.37809821438E+02 -0.34190897688E+02 -0.45060211030E+02  0.68036921594E+02  0.00000000000E+00 0. -1.
        -14    1    6    6    0    0  0.28815891711E+02  0.34287723430E+02  0.22917331530E+01  0.44847024806E+02  0.00000000000E+00 0.  1.
</event>
<event>
12    1  0.8358445E-002  0.1957823E+03  0.7818608E-02  0.1153522E+00
         21   -1    0    0  501  502  0.00000000000E+00  0.00000000000E+00  0.92202304447E+03  0.92202304447E+03  0.00000000000E+00 0. -1.
         21   -1    0    0  502  503 -0.00000000000E+00 -0.00000000000E+00 -0.52967237966E+02  0.52967237966E+02  0.00000000000E+00 0. -1.
         -6    2    1    2    0  503 -0.88587675089E+02  0.20569126565E+02  0.66162720629E+03  0.68975824554E+03  0.17246742314E+03 0.  0.
        -24    2    3    3    0    0 -0.12798479118E+03  0.23516573751E+02  0.48442343045E+03  0.50814302489E+03  0.81302753696E+02 0.  0.
          6    2    1    2  501    0  0.88587675089E+02 -0.20569126565E+02  0.20742860022E+03  0.28523203690E+03  0.17337769620E+03 0.  0.
         24    2    5    5    0    0  0.67585019986E+02 -0.39740713511E+02  0.22459283470E+03  0.25168561812E+03  0.82198842641E+02 0.  0.
          5    1    5    5  501    0  0.21002655102E+02  0.19171586946E+02 -0.17164234485E+02  0.33546418778E+02  0.47000000000E+01 0. -1.
        -13    1    6    6    0    0  0.63134951514E+02  0.97628873640E+01  0.12503857175E+03  0.14041360510E+03  0.00000000000E+00 0.  1.
         14    1    6    6    0    0  0.44500684721E+01 -0.49503600875E+02  0.99554262953E+02  0.11127201302E+03  0.00000000000E+00 0. -1.
         -5    1    3    3    0  503  0.39397116092E+02 -0.29474471851E+01  0.17720377584E+03  0.18161522066E+03  0.47000000000E+01 0.  1.
         13    1    4    4    0    0 -0.75673989437E+02 -0.16776535966E+02  0.34868593913E+03  0.35719726900E+03  0.00000000000E+00 0. -1.
        -14    1    4    4    0    0 -0.52310801744E+02  0.40293109717E+02  0.13573749132E+03  0.15094575589E+03  0.00000000000E+00 0.  1.
</event>
<event>
12    1  0.8358445E-002  0.1758344E+03  0.7818608E-02  0.1172414E+00
         21   -1    0    0  503  502  0.00000000000E+00  0.00000000000E+00  0.42904863277E+03  0.42904863277E+03  0.00000000000E+00 0.  1.
         21   -1    0    0  501  503 -0.00000000000E+00 -0.00000000000E+00 -0.18726551189E+03  0.18726551189E+03  0.00000000000E+00 0.  1.
          6    2    1    2  501    0  0.33151162891E+02 -0.17919524281E+02 -0.12195947994E+03  0.21230125861E+03  0.16963962011E+03 0.  0.
         24    2    3    3    0    0 -0.18792970332E+02 -0.57167954647E+02 -0.10269669710E+03  0.14424409834E+03  0.81476361824E+02 0.  0.
         -6    2    1    2    0  502 -0.33151162891E+02  0.17919524281E+02  0.36374260082E+03  0.40401288605E+03  0.17174872194E+03 0.  0.
        -24    2    5    5    0    0 -0.73449784825E+02  0.12530553139E+02  0.14348962642E+03  0.17998948845E+03  0.79088920898E+02 0.  0.
          5    1    3    3  501    0  0.51944133223E+02  0.39248430366E+02 -0.19262782832E+02  0.68057160276E+02  0.47000000000E+01 0. -1.
        -13    1    4    4    0    0 -0.35161896291E+01  0.21006454225E+02 -0.26681098736E+02  0.34139650531E+02  0.00000000000E+00 0.  1.
         14    1    4    4    0    0 -0.15276780703E+02 -0.78174408872E+02 -0.76015598368E+02  0.11010444780E+03  0.00000000000E+00 0. -1.
         -5    1    5    5    0  502  0.40298621934E+02  0.53889711421E+01  0.22025297440E+03  0.22402339760E+03  0.47000000000E+01 0.  1.
         11    1    6    6    0    0 -0.20027355215E+02 -0.19649731139E+02  0.55424089569E+01  0.28599391389E+02  0.00000000000E+00 0. -1.
        -12    1    6    6    0    0 -0.53422429610E+02  0.32180284278E+02  0.13794721747E+03  0.15139009706E+03  0.00000000000E+00 0.  1.
</event>
<event>
12    1  0.8358445E-002  0.2293512E+03  0.7818608E-02  0.1127098E+00
         21   -1    0    0  501  502  0.00000000000E+00  0.00000000000E+00  0.90360083183E+03  0.90360083183E+03  0.00000000000E+00 0. -1.
         21   -1    0    0  502  503 -0.00000000000E+00 -0.00000000000E+00 -0.59401164607E+02  0.59401164607E+02  0.00000000000E+00 0.  1.
         -6    2    1    2    0  503 -0.40502313797E+02 -0.14579498994E+03  0.35398218534E+03  0.42178828797E+03  0.17235241751E+03 0.  0.
        -24    2    3    3    0    0  0.12804054099E+02 -0.10315763291E+03  0.31959507869E+03  0.34521103171E+03  0.78893605971E+02 0.  0.
          6    2    1    2  501    0  0.40502313797E+02  0.14579498994E+03  0.49021748189E+03  0.54121370847E+03  0.17234408075E+03 0.  0.
         24    2    5    5    0    0  0.25911892345E+02  0.15285896021E+03  0.27727350753E+03  0.32760189632E+03  0.80031972440E+02 0.  0.
          5    1    5    5  501    0  0.14590421452E+02 -0.70639702695E+01  0.21294397436E+03  0.21361181215E+03  0.47000000000E+01 0. -1.
        -13    1    6    6    0    0  0.35994661103E+02  0.40692731862E+02  0.49449219889E+02  0.73462503374E+02  0.00000000000E+00 0.  1.
         14    1    6    6    0    0 -0.10082768758E+02  0.11216622835E+03  0.22782428764E+03  0.25413939294E+03  0.00000000000E+00 0. -1.
         -5    1    3    3    0  503 -0.53306367896E+02 -0.42637357030E+02  0.34387106645E+02  0.76577256259E+02  0.47000000000E+01 0.  1.
         13    1    4    4    0    0 -0.28637070696E+02 -0.75239576126E+02  0.20044938583E+03  0.21601164763E+03  0.00000000000E+00 0. -1.
        -14    1    4    4    0    0  0.41441124795E+02 -0.27918056782E+02  0.11914569286E+03  0.12919938408E+03  0.00000000000E+00 0.  1.
</event>
<event>
12    1  0.8358445E-002  0.1990438E+03  0.7818608E-02  0.1150787E+00
         21   -1    0    0  503  502  0.00000000000E+00  0.00000000000E+00  0.31669473928E+02  0.31669473928E+02  0.00000000000E+00 0.  1.
         21   -1    0    0  501  503 -0.00000000000E+00 -0.00000000000E+00 -0.13340596935E+04  0.13340596935E+04  0.00000000000E+00 0.  1.
          6    2    1    2  501    0 -0.81831458684E+02  0.54749417320E+02 -0.47544887710E+03  0.51543190895E+03  0.17298708537E+03 0.  0.
         24    2    3    3    0    0 -0.33900123835E+01  0.15473507897E+02 -0.36992219267E+03  0.37812339252E+03  0.76706907834E+02 0.  0.
         -6    2    1    2    0  502  0.81831458684E+02 -0.54749417320E+02 -0.82694134244E+03  0.85029725845E+03  0.17169611979E+03 0.  0.
        -24    2    5    5    0    0  0.68625006954E+01 -0.81779461171E+02 -0.55704244902E+03  0.56883949855E+03  0.80914219513E+02 0.  0.
          5    1    3    3  501    0 -0.78441446300E+02  0.39275909424E+02 -0.10552668443E+03  0.13730851643E+03  0.47000000000E+01 0. -1.
        -13    1    4    4    0    0 -0.28924266950E+02  0.27386557313E+02 -0.11611978409E+03  0.12276172448E+03  0.00000000000E+00 0.  1.
         14    1    4    4    0    0  0.25534254567E+02 -0.11913049417E+02 -0.25380240858E+03  0.25536166804E+03  0.00000000000E+00 0. -1.
         -5    1    5    5    0  502  0.74968957988E+02  0.27030043851E+02 -0.26989889343E+03  0.28145775990E+03  0.47000000000E+01 0.  1.
         13    1    6    6    0    0 -0.31973813606E+02 -0.35101004993E+02 -0.34574950413E+03  0.34899444826E+03  0.00000000000E+00 0. -1.
        -14    1    6    6    0    0  0.38836314301E+02 -0.46678456178E+02 -0.21129294489E+03  0.21984505029E+03  0.00000000000E+00 0.  1.
</event>
<event>
12    1  0.8358445E-002  0.2428351E+03  0.7818608E-02  0.1118153E+00
         21   -1    0    0  501  502  0.00000000000E+00  0.00000000000E+00  0.36299965927E+03  0.36299965927E+03  0.00000000000E+00 0. -1.
         21   -1    0    0  502  503 -0.00000000000E+00 -0.00000000000E+00 -0.26689788158E+03  0.26689788158E+03  0.00000000000E+00 0. -1.
         -6    2    1    2    0  503  0.13823402305E+02 -0.17073947115E+03 -0.14978451463E+03  0.28531436833E+03  0.17212156893E+03 0.  0.
        -24    2    3    3    0    0  0.71855313409E+00 -0.18105224504E+03 -0.86804755037E+02  0.21999491873E+03  0.89901429465E+02 0.  0.
          6    2    1    2  501    0 -0.13823402305E+02  0.17073947115E+03  0.24588629233E+03  0.34458317252E+03  0.17010126564E+03 0.  0.
         24    2    5    5    0    0  0.26370918236E+02  0.71105915624E+02  0.19239386576E+03  0.22447506085E+03  0.87305078854E+02 0.  0.
          5    1    5    5  501    0 -0.40194320541E+02  0.99633555526E+02  0.53492426563E+02  0.12010811168E+03  0.47000000000E+01 0. -1.
        -11    1    6    6    0    0 -0.56731747025E+01 -0.15116754113E+02  0.71666882314E+01  0.17665293270E+02  0.00000000000E+00 0.  1.
         12    1    6    6    0    0  0.32044092938E+02  0.86222669737E+02  0.18522717753E+03  0.20680976758E+03  0.00000000000E+00 0. -1.
         -5    1    3    3    0  503  0.13104849171E+02  0.10312773887E+02 -0.62979759593E+02  0.65319449596E+02  0.47000000000E+01 0.  1.
         13    1    4    4    0    0  0.23960757819E+02 -0.11041635938E+03 -0.10538716290E+02  0.11347667106E+03  0.00000000000E+00 0. -1.
        -14    1    4    4    0    0 -0.23242204685E+02 -0.70635885658E+02 -0.76266038746E+02  0.10651824767E+03  0.00000000000E+00 0.  1.
</event>
<event>
12    1  0.8358445E-002  0.2274998E+03  0.7818608E-02  0.1128620E+00
         21   -1    0    0  503  502  0.00000000000E+00  0.00000000000E+00  0.69300349803E+03  0.69300349803E+03  0.00000000000E+00 0.  1.
         21   -1    0    0  501  503 -0.00000000000E+00 -0.00000000000E+00 -0.14990748926E+03  0.14990748926E+03  0.00000000000E+00 0.  1.
          6    2    1    2  501    0  0.68153998689E+02  0.12847381640E+03 -0.28101745643E+02  0.22807522125E+03  0.17343041660E+03 0.  0.
         24    2    3    3    0    0  0.11087949494E+03  0.69575266403E+02 -0.20775668892E+02  0.15479310459E+03  0.79964346541E+02 0.  0.
         -6    2    1    2    0  502 -0.68153998689E+02 -0.12847381640E+03  0.57119775441E+03  0.61483576604E+03  0.17494472131E+03 0.  0.
        -24    2    5    5    0    0  0.31313229509E+02 -0.55892360309E+02  0.30021426410E+03  0.31715147140E+03  0.79699292072E+02 0.  0.
          5    1    3    3  501    0 -0.42725496249E+02  0.58898549999E+02 -0.73260767505E+01  0.73282116660E+02  0.47000000000E+01 0. -1.
        -11    1    4    4    0    0  0.77161163869E+02  0.30004279261E+02 -0.48422629517E+02  0.95910651301E+02  0.00000000000E+00 0.  1.
         12    1    4    4    0    0  0.33718331068E+02  0.39570987141E+02  0.27646960625E+02  0.58882453288E+02  0.00000000000E+00 0. -1.
         -5    1    5    5    0  502 -0.99467228199E+02 -0.72581456093E+02  0.27098349031E+03  0.29768429464E+03  0.47000000000E+01 0.  1.
         13    1    6    6    0    0  0.11398596183E+02 -0.68723097321E+02  0.15390249744E+03  0.16893422039E+03  0.00000000000E+00 0. -1.
        -14    1    6    6    0    0  0.19914633327E+02  0.12830737012E+02  0.14631176667E+03  0.14821725101E+03  0.00000000000E+00 0.  1.
</event>
<event>
12    1  0.8358445E-002  0.1766263E+03  0.7818608E-02  0.1171500E+00
         21   -1    0    0  501  502  0.00000000000E+00  0.00000000000E+00  0.24752454187E+03  0.24752454187E+03  0.00000000000E+00 0.  1.
         21   -1    0    0  502  503 -0.00000000000E+00 -0.00000000000E+00 -0.54721624501E+03  0.54721624501E+03  0.00000000000E+00 0.  1.
         -6    2    1    2    0  503 -0.23885308323E+02  0.30263891667E+02 -0.49877329511E+03  0.52860113651E+03  0.17075699257E+03 0.  0.
        -24    2    3    3    0    0  0.21790508172E+02 -0.18401665346E+02 -0.40358961384E+03  0.41225407023E+03  0.79091051879E+02 0.  0.
          6    2    1    2  501    0  0.23885308323E+02 -0.30263891667E+02  0.19908159197E+03  0.26613965037E+03  0.17236711445E+03 0.  0.
         24    2    5    5    0    0  0.15926823432E+02 -0.68050383617E+02  0.19752095330E+03  0.22720788893E+03  0.87888448526E+02 0.  0.
          5    1    5    5  501    0  0.79584848910E+01  0.37786491950E+02  0.15606386707E+01  0.38931761439E+02  0.47000000000E+01 0. -1.
        -13    1    6    6    0    0  0.11260226318E+02 -0.33435615608E+02  0.18761356839E+03  0.19090202757E+03  0.00000000000E+00 0.  1.
         14    1    6    6    0    0  0.46665971136E+01 -0.34614768009E+02  0.99073849080E+01  0.36305861354E+02  0.00000000000E+00 0. -1.
         -5    1    3    3    0  503 -0.45675816495E+02  0.48665557013E+02 -0.95183681265E+02  0.11634706628E+03  0.47000000000E+01 0.  1.
         13    1    4    4    0    0  0.21279756585E+02 -0.33315634513E+02 -0.89876991300E+02  0.98186725724E+02  0.00000000000E+00 0. -1.
        -14    1    4    4    0    0  0.51075158748E+00  0.14913969167E+02 -0.31371262255E+03  0.31406734451E+03  0.00000000000E+00 0.  1.
</event>
<event>
12    1  0.8358445E-002  0.2081409E+03  0.7818608E-02  0.1143048E+00
         21   -1    0    0  501  502  0.00000000000E+00  0.00000000000E+00  0.82447848684E+02  0.82447848684E+02  0.00000000000E+00 0. -1.
         21   -1    0    0  502  503 -0.00000000000E+00 -0.00000000000E+00 -0.57364323981E+03  0.57364323981E+03  0.00000000000E+00 0. -1.
         -6    2    1    2    0  503  0.11090995356E+03 -0.37285933297E+02 -0.34069191038E+03  0.39924130531E+03  0.17213768746E+03 0.  0.
        -24    2    3    3    0    0  0.76812569359E+02 -0.83440870973E+02 -0.29388989099E+03  0.32504272783E+03  0.80118394444E+02 0.  0.
          6    2    1    2  501    0 -0.11090995356E+03  0.37285933297E+02 -0.15050348075E+03  0.25684978319E+03  0.17213150434E+03 0.  0.
         24    2    5    5    0    0 -0.54795657242E+02 -0.79177354957E+00 -0.52007852322E+01  0.96432548038E+02  0.79176999161E+02 0.  0.
          5    1    5    5  501    0 -0.56114296314E+02  0.38077706847E+02 -0.14530269551E+03  0.16041723515E+03  0.47000000000E+01 0. -1.
        -11    1    6    6    0    0  0.66094234729E+01 -0.25488619780E+02 -0.13735942176E+02  0.29698995343E+02  0.00000000000E+00 0.  1.
         12    1    6    6    0    0 -0.61405080715E+02  0.24696846230E+02  0.85351569441E+01  0.66733552695E+02  0.00000000000E+00 0. -1.
         -5    1    3    3    0  503  0.34097384196E+02  0.46154937676E+02 -0.46802019394E+02  0.74198577481E+02  0.47000000000E+01 0.  1.
         13    1    4    4    0    0  0.52558122173E+02 -0.42297333553E+02 -0.25402558766E+03  0.26283154266E+03  0.00000000000E+00 0. -1.
        -14    1    4    4    0    0  0.24254447186E+02 -0.41143537421E+02 -0.39864303325E+02  0.62211185163E+02  0.00000000000E+00 0.  1.
</event>
<event>
12    1  0.8358445E-002  0.2320454E+03  0.7818608E-02  0.1125260E+00
         21   -1    0    0  503  502  0.00000000000E+00  0.00000000000E+00  0.82772266110E+03  0.82772266110E+03  0.00000000000E+00 0. -1.
         21   -1    0    0  501  503 -0.00000000000E+00 -0.00000000000E+00 -0.18433979285E+03  0.18433979285E+03  0.00000000000E+00 0.  1.
          6    2    1    2  501    0  0.29327102939E+02  0.15305700388E+03 -0.85444434499E+02  0.24727683330E+03  0.17192601752E+03 0.  0.
         24    2    3    3    0    0 -0.47367132607E+01  0.15657743342E+03 -0.10898097771E+03  0.20545822663E+03  0.76140004457E+02 0.  0.
         -6    2    1    2    0  502 -0.29327102939E+02 -0.15305700388E+03  0.72882730275E+03  0.76478562064E+03  0.17152633300E+03 0.  0.
        -24    2    5    5    0    0 -0.52006908460E+02 -0.17541247832E+03  0.61849627924E+03  0.64985448663E+03  0.79365926501E+02 0.  0.
          5    1    3    3  501    0  0.34063816199E+02 -0.35204295415E+01  0.23536543206E+02  0.41818606676E+02  0.47000000000E+01 0. -1.
        -11    1    4    4    0    0 -0.16620212328E+02  0.11508183043E+03 -0.11296051106E+03  0.16211149315E+03  0.00000000000E+00 0.  1.
         12    1    4    4    0    0  0.11883499067E+02  0.41495602992E+02  0.39795333508E+01  0.43346733481E+02  0.00000000000E+00 0. -1.
         -5    1    5    5    0  502  0.22679805522E+02  0.22355474445E+02  0.11033102351E+03  0.11493113401E+03  0.47000000000E+01 0.  1.
         13    1    6    6    0    0 -0.29032438143E+02 -0.12829419802E+03  0.53760259902E+03  0.55346078288E+03  0.00000000000E+00 0. -1.
        -14    1    6    6    0    0 -0.22974470317E+02 -0.47118280298E+02  0.80893680214E+02  0.96393703753E+02  0.00000000000E+00 0.  1.
</event>
<event>
12    1  0.8358445E-002  0.1743289E+03  0.7818608E-02  0.1174009E+00
         21   -1    0    0  501  502  0.00000000000E+00  0.00000000000E+00  0.40282135324E+02  0.40282135324E+02  0.00000000000E+00 0. -1.
         21   -1    0    0  502  503 -0.00000000000E+00 -0.00000000000E+00 -0.10789376907E+04  0.10789376907E+04  0.00000000000E+00 0. -1.
         -6    2    1    2    0  503 -0.25472162888E+02 -0.83324913013E+01 -0.82856274452E+03  0.84621880555E+03  0.16985812835E+03 0.  0.
        -24    2    3    3    0    0 -0.60573882822E+02  0.41121998400E+02 -0.48318234155E+03  0.49552294009E+03  0.81960935442E+02 0.  0.
          6    2    1    2  501    0  0.25472162888E+02  0.83324913013E+01 -0.21009281086E+03  0.27300102048E+03  0.17225651370E+03 0.  0.
         24    2    5    5    0    0  0.43160699090E+02  0.43044003900E+02 -0.58066700728E+02  0.11599209850E+03  0.79792186101E+02 0.  0.
          5    1    5    5  501    0 -0.17688536202E+02 -0.34711512599E+02 -0.15202611013E+03  0.15700892198E+03  0.47000000000E+01 0. -1.
        -13    1    6    6    0    0 -0.18782549829E+02 -0.27996697554E+01 -0.26759672495E+02  0.32813143721E+02  0.00000000000E+00 0.  1.
         14    1    6    6    0    0  0.61943248919E+02  0.45843673655E+02 -0.31307028233E+02  0.83178954776E+02  0.00000000000E+00 0. -1.
         -5    1    3    3    0  503  0.35101719935E+02 -0.49454489701E+02 -0.34538040297E+03  0.35069586546E+03  0.47000000000E+01 0.  1.
         13    1    4    4    0    0 -0.60650072645E+02 -0.42779256739E+01 -0.33741234964E+03  0.34284665034E+03  0.00000000000E+00 0. -1.
        -14    1    4    4    0    0  0.76189822495E-01  0.45399924074E+02 -0.14576999191E+03  0.15267628975E+03  0.00000000000E+00 0.  1.
</event>
<event>
12    1  0.8358445E-002  0.1755778E+03  0.7818608E-02  0.1173094E+00
         21   -1    0    0  501  502  0.00000000000E+00  0.00000000000E+00  0.11363359942E+03  0.11363359942E+03  0.00000000000E+00 0. -1.
         21   -1    0    0  502  503 -0.00000000000E+00 -0.00000000000E+00 -0.42742838366E+03  0.42742838366E+03  0.00000000000E+00 0. -1.
         -6    2    1    2    0  503 -0.76414423557E+01  0.68566233726E+01 -0.32441182087E+03  0.36887745439E+03  0.17527732857E+03 0.  0.
        -24    2    3    3    0    0  0.70426620013E+01 -0.60803993197E+02 -0.17202029559E+03  0.20142940593E+03  0.85065262018E+02 0.  0.
          6    2    1    2  501    0  0.76414423557E+01 -0.68566233726E+01  0.10617036632E+02  0.17218452869E+03  0.17154995053E+03 0.  0.
         24    2    5    5    0    0 -0.38449909602E+02  0.47742285750E+02 -0.31817463400E+01  0.99260252798E+02  0.78004825996E+02 0.  0.
          5    1    5    5  501    0  0.46091351958E+02 -0.54598909123E+02  0.13798782972E+02  0.72924275891E+02  0.47000000000E+01 0. -1.
        -11    1    6    6    0    0 -0.60343039366E+02  0.42590106991E+02  0.77283736489E+01  0.74262557004E+02  0.00000000000E+00 0.  1.
         12    1    6    6    0    0  0.21893129764E+02  0.51521787587E+01 -0.10910119989E+02  0.24997695794E+02  0.00000000000E+00 0. -1.
         -5    1    3    3    0  503 -0.14684104357E+02  0.67660616570E+02 -0.15239152528E+03  0.16744804846E+03  0.47000000000E+01 0.  1.
         11    1    4    4    0    0 -0.74805962519E+01 -0.64146039155E+02 -0.17472957791E+03  0.18628231010E+03  0.00000000000E+00 0. -1.
        -12    1    4    4    0    0  0.14523258253E+02  0.33420459578E+01  0.27092823188E+01  0.15147095832E+02  0.00000000000E+00 0.  1.
</event>
<event>
12    1  0.8358445E-002  0.1765882E+03  0.7818608E-02  0.1171223E+00
         21   -1    0    0  501  502  0.00000000000E+00  0.00000000000E+00  0.83486251960E+02  0.83486251960E+02  0.00000000000E+00 0. -1.
         21   -1    0    0  502  503 -0.00000000000E+00 -0.00000000000E+00 -0.38599877550E+03  0.38599877550E+03  0.00000000000E+00 0. -1.
         -6    2    1    2    0  503 -0.41405069854E+02  0.88990962028E+01 -0.19443509217E+03  0.26244846190E+03  0.17111579811E+03 0.  0.
        -24    2    3    3    0    0 -0.84721110339E+02 -0.26491645446E+02 -0.14973687816E+03  0.19069329280E+03  0.77867357854E+02 0.  0.
          6    2    1    2  501    0  0.41405069854E+02 -0.88990962028E+01 -0.10807743137E+03  0.20703656556E+03  0.17143463648E+03 0.  0.
         24    2    5    5    0    0  0.69547665028E+02 -0.13642104576E+02 -0.12616567434E+02  0.10729004515E+03  0.79554957642E+02 0.  0.
          5    1    5    5  501    0 -0.28142595174E+02  0.47430083734E+01 -0.95460863933E+02  0.99746520412E+02  0.47000000000E+01 0. -1.
        -13    1    6    6    0    0  0.63283726558E+02 -0.42918726238E+02 -0.11547796950E+02  0.77331744603E+02  0.00000000000E+00 0.  1.
         14    1    6    6    0    0  0.62639384701E+01  0.29276621662E+02 -0.10687704840E+01  0.29958300543E+02  0.00000000000E+00 0. -1.
         -5    1    3    3    0  503  0.43316040485E+02  0.35390741649E+02 -0.44698214007E+02  0.71755169104E+02  0.47000000000E+01 0.  1.
         13    1    4    4    0    0 -0.12337832339E+02 -0.42220454828E+02 -0.57530312966E+02  0.72419098466E+02  0.00000000000E+00 0. -1.
        -14    1    4    4    0    0 -0.72383278000E+02  0.15728809381E+02 -0.92206565199E+02  0.11827419433E+03  0.00000000000E+00 0.  1.
</event>
<event>
12    1  0.8358445E-002  0.3385762E+03  0.7818608E-02  0.1067631E+00
         21   -1    0    0  501  502  0.00000000000E+00  0.00000000000E+00  0.14324171140E+03  0.14324171140E+03  0.00000000000E+00 0. -1.
         21   -1    0    0  502  503 -0.00000000000E+00 -0.00000000000E+00 -0.12905048110E+04  0.12905048110E+04  0.00000000000E+00 0.  1.
         -6    2    1    2    0  503 -0.68268440525E+02  0.28512289231E+03 -0.12845473352E+03  0.36015240852E+03  0.16508632624E+03 0.  0.
        -24    2    3    3    0    0 -0.30861483289E+02  0.19365591734E+03 -0.14930050007E+03  0.25904788863E+03  0.79750384398E+02 0.  0.
          6    2    1    2  501    0  0.68268440525E+02 -0.28512289231E+03 -0.10188083660E+04  0.10735941138E+04  0.16934636356E+03 0.  0.
         24    2    5    5    0    0 -0.17384688869E+02 -0.15578830139E+03 -0.64513857173E+03  0.66897688710E+03  0.82183188620E+02 0.  0.
          5    1    5    5  501    0  0.85653129394E+02 -0.12933459092E+03 -0.37366979431E+03  0.40461722672E+03  0.47000000000E+01 0. -1.
        -11    1    6    6    0    0  0.77155936325E+01 -0.92135227204E+02 -0.50052790183E+03  0.50899568857E+03  0.00000000000E+00 0.  1.
         12    1    6    6    0    0 -0.25100282501E+02 -0.63653074182E+02 -0.14461066990E+03  0.15998119853E+03  0.00000000000E+00 0. -1.
         -5    1    3    3    0  503 -0.37406957237E+02  0.91466974970E+02  0.20845766549E+02  0.10110451989E+03  0.47000000000E+01 0.  1.
         11    1    4    4    0    0 -0.44969530363E+02  0.60600106583E+02 -0.35497821477E+02  0.83395005297E+02  0.00000000000E+00 0. -1.
        -12    1    4    4    0    0  0.14108047075E+02  0.13305581075E+03 -0.11380267860E+03  0.17565288333E+03  0.00000000000E+00 0.  1.
</event>
<event>
12    1  0.8358445E-002  0.2183645E+03  0.7818608E-02  0.1135266E+00
         21   -1    0    0  503  502  0.00000000000E+00  0.00000000000E+00  0.79893196970E+02  0.79893196970E+02  0.00000000000E+00 0.  1.
         21   -1    0    0  501  503 -0.00000000000E+00 -0.00000000000E+00 -0.65698388396E+03  0.65698388396E+03  0.00000000000E+00 0. -1.
          6    2    1    2  501    0  0.12127750853E+03 -0.52288743483E+02 -0.17446920632E+03  0.27885184460E+03  0.17284820077E+03 0.  0.
         24    2    3    3    0    0  0.13047703380E+03 -0.82563819620E+01 -0.17610416666E+03  0.23359432344E+03  0.80381628722E+02 0.  0.
         -6    2    1    2    0  502 -0.12127750853E+03  0.52288743483E+02 -0.40262148066E+03  0.45802523633E+03  0.17389857289E+03 0.  0.
        -24    2    5    5    0    0 -0.14283795767E+03  0.89895608925E+01 -0.23937885402E+03  0.28770225687E+03  0.70617692527E+02 0.  0.
          5    1    3    3  501    0 -0.91995252624E+01 -0.44032361521E+02  0.16349603347E+01  0.45257521159E+02  0.47000000000E+01 0. -1.
        -13    1    4    4    0    0  0.38636724311E+02 -0.99814545421E+00 -0.46129448053E+01  0.38923926056E+02  0.00000000000E+00 0.  1.
         14    1    4    4    0    0  0.91840309485E+02 -0.72582365078E+01 -0.17149122185E+03  0.19467039738E+03  0.00000000000E+00 0. -1.
         -5    1    5    5    0  502  0.21560449137E+02  0.43299182590E+02 -0.16324262664E+03  0.17032297946E+03  0.47000000000E+01 0.  1.
         13    1    6    6    0    0 -0.97188315843E+02  0.33070954919E+02 -0.19159900826E+03  0.21736935562E+03  0.00000000000E+00 0. -1.
        -14    1    6    6    0    0 -0.45649641829E+02 -0.24081394026E+02 -0.47779845760E+02  0.70332901250E+02  0.00000000000E+00 0.  1.
</event>
<event>
12    1  0.8358445E-002  0.2568565E+03  0.7818608E-02  0.1109114E+00
         21   -1    0    0  501  502  0.00000000000E+00  0.00000000000E+00  0.10904891534E+03  0.10904891534E+03  0.00000000000E+00 0. -1.
         21   -1    0    0  502  503 -0.00000000000E+00 -0.00000000000E+00 -0.62615801622E+03  0.62615801622E+03  0.00000000000E+00 0. -1.
         -6    2    1    2    0  503  0.19049600392E+03 -0.47310679679E+01 -0.32754095092E+03  0.41597135253E+03  0.17157500134E+03 0.  0.
        -24    2    3    3    0    0  0.15395779050E+03 -0.23400511870E+02 -0.13949881207E+03  0.22344726272E+03  0.78855408428E+02 0.  0.
          6    2    1    2  501    0 -0.19049600392E+03  0.47310679679E+01 -0.18956814997E+03  0.31923557902E+03  0.17223286828E+03 0.  0.
         24    2    5    5    0    0 -0.19975824897E+03 -0.15801795624E+02 -0.19941095779E+03  0.29420842305E+03  0.81491173336E+02 0.  0.
          5    1    5    5  501    0  0.92622450456E+01  0.20532863592E+02  0.98428078150E+01  0.25027155976E+02  0.47000000000E+01 0. -1.
        -11    1    6    6    0    0 -0.52117891475E+02 -0.16434691191E+02 -0.12569914678E+02  0.56074739780E+02  0.00000000000E+00 0.  1.
         12    1    6    6    0    0 -0.14764035749E+03  0.63289556708E+00 -0.18684104311E+03  0.23813368327E+03  0.00000000000E+00 0. -1.
         -5    1    3    3    0  503  0.36538213428E+02  0.18669443902E+02 -0.18804213885E+03  0.19252408981E+03  0.47000000000E+01 0.  1.
         11    1    4    4    0    0  0.71650269964E+02 -0.84025327450E+01 -0.11590318187E+03  0.13652073582E+03  0.00000000000E+00 0. -1.
        -12    1    4    4    0    0  0.82307520532E+02 -0.14997979125E+02 -0.23595630202E+02  0.86926526898E+02  0.00000000000E+00 0.  1.
</event>
<event>
12    1  0.8358445E-002  0.1838938E+03  0.7818608E-02  0.1164230E+00
         21   -1    0    0  501  502  0.00000000000E+00  0.00000000000E+00  0.12054060844E+03  0.12054060844E+03  0.00000000000E+00 0.  1.
         21   -1    0    0  502  503 -0.00000000000E+00 -0.00000000000E+00 -0.33873527535E+03  0.33873527535E+03  0.00000000000E+00 0.  1.
         -6    2    1    2    0  503 -0.59976569775E+02  0.23342832498E+02 -0.20488198693E+03  0.27490079566E+03  0.17161509880E+03 0.  0.
        -24    2    3    3    0    0 -0.58882043244E+02  0.19986758243E+02 -0.38932085943E+02  0.10884682594E+03  0.80407454130E+02 0.  0.
          6    2    1    2  501    0  0.59976569775E+02 -0.23342832498E+02 -0.13312679987E+02  0.18437508814E+03  0.17226395133E+03 0.  0.
         24    2    5    5    0    0  0.17493507086E+02 -0.75987542913E+02 -0.26388744058E+02  0.11531461028E+03  0.80752486425E+02 0.  0.
          5    1    5    5  501    0  0.42483062688E+02  0.52644710414E+02  0.13076064071E+02  0.69060477855E+02  0.47000000000E+01 0. -1.
        -11    1    6    6    0    0  0.14824199312E+02  0.97456568287E+01  0.11920492157E+02  0.21373648391E+02  0.00000000000E+00 0.  1.
         12    1    6    6    0    0  0.26693077743E+01 -0.85733199741E+02 -0.38309236215E+02  0.93940961892E+02  0.00000000000E+00 0. -1.
         -5    1    3    3    0  503 -0.10945265302E+01  0.33560742550E+01 -0.16594990098E+03  0.16605396972E+03  0.47000000000E+01 0.  1.
         11    1    4    4    0    0 -0.71146022112E+02  0.31748759228E+01 -0.81374087085E+01  0.71680218470E+02  0.00000000000E+00 0. -1.
        -12    1    4    4    0    0  0.12263978868E+02  0.16811882320E+02 -0.30794677235E+02  0.37166607470E+02  0.00000000000E+00 0.  1.
</event>
<event>
12    1  0.8358445E-002  0.1886812E+03  0.7818608E-02  0.1160034E+00
         21   -1    0    0  503  502  0.00000000000E+00  0.00000000000E+00  0.34604080195E+02  0.34604080195E+02  0.00000000000E+00 0. -1.
         21   -1    0    0  501  503 -0.00000000000E+00 -0.00000000000E+00 -0.12275508912E+04  0.12275508912E+04  0.00000000000E+00 0. -1.
          6    2    1    2  501    0  0.43160951631E+02  0.61752125034E+02 -0.85390390206E+03  0.87414634562E+03  0.17118343063E+03 0.  0.
         24    2    3    3    0    0 -0.30378641703E+02  0.30336782519E+02 -0.27450524747E+03  0.28923619314E+03  0.80381977399E+02 0.  0.
         -6    2    1    2    0  502 -0.43160951631E+02 -0.61752125034E+02 -0.33904290897E+03  0.38800862580E+03  0.17298672457E+03 0.  0.
        -24    2    5    5    0    0 -0.68424222105E+02 -0.74300559251E+00 -0.27677213906E+03  0.29712362002E+03  0.83649282033E+02 0.  0.
          5    1    3    3  501    0  0.73539593335E+02  0.31415342516E+02 -0.57939865459E+03  0.58491015248E+03  0.47000000000E+01 0. -1.
        -11    1    4    4    0    0  0.22283210340E+02 -0.51268990459E+01 -0.37923306360E+02  0.44283221678E+02  0.00000000000E+00 0.  1.
         12    1    4    4    0    0 -0.52661852044E+02  0.35463681564E+02 -0.23658194111E+03  0.24495297146E+03  0.00000000000E+00 0. -1.
         -5    1    5    5    0  502  0.25263270474E+02 -0.61009119442E+02 -0.62270769911E+02  0.90885005779E+02  0.47000000000E+01 0.  1.
         11    1    6    6    0    0 -0.50629500099E+02 -0.37961453252E+02 -0.12875664857E+03  0.14346669566E+03  0.00000000000E+00 0. -1.
        -12    1    6    6    0    0 -0.17794722006E+02  0.37218447659E+02 -0.14801549049E+03  0.15365692436E+03  0.00000000000E+00 0.  1.
</event>
<event>
12    1  0.8358445E-002  0.2325912E+03  0.7818608E-02  0.1125026E+00
         21   -1    0    0  501  502  0.00000000000E+00  0.00000000000E+00  0.15282073259E+03  0.15282073259E+03  0.00000000000E+00 0.  1.
         21   -1    0    0  502  503 -0.00000000000E+00 -0.00000000000E+00 -0.36722150042E+03  0.36722150042E+03  0.00000000000E+00 0. -1.
         -6    2    1    2    0  503  0.15290417798E+03  0.23008641901E+02 -0.55002681223E+02  0.23900617432E+03  0.17375146381E+03 0.  0.
        -24    2    3    3    0    0  0.64700812832E+02 -0.46221095328E+02  0.22425552446E+01  0.11302324993E+03  0.80290977927E+02 0.  0.
          6    2    1    2  501    0 -0.15290417798E+03 -0.23008641901E+02 -0.15939808660E+03  0.28103605868E+03  0.17223365241E+03 0.  0.
         24    2    5    5    0    0 -0.13349621683E+02 -0.27238160195E+02 -0.91712111261E+02  0.12580447599E+03  0.80594820287E+02 0.  0.
          5    1    5    5  501    0 -0.13955455630E+03  0.42295182940E+01 -0.67685975339E+02  0.15523158270E+03  0.47000000000E+01 0. -1.
        -11    1    6    6    0    0  0.20577878947E+02 -0.37129127346E+02 -0.22387643449E+02  0.47991955354E+02  0.00000000000E+00 0.  1.
         12    1    6    6    0    0 -0.33927500630E+02  0.98909671518E+01 -0.69324467812E+02  0.77812520635E+02  0.00000000000E+00 0. -1.
         -5    1    3    3    0  503  0.88203365148E+02  0.69229737229E+02 -0.57245236468E+02  0.12598292439E+03  0.47000000000E+01 0.  1.
         13    1    4    4    0    0 -0.13136838958E+02 -0.13268400135E+02 -0.18185507489E+02  0.26064145153E+02  0.00000000000E+00 0. -1.
        -14    1    4    4    0    0  0.77837651790E+02 -0.32952695194E+02  0.20428062733E+02  0.86959104778E+02  0.00000000000E+00 0.  1.
</event>
<event>
12    1  0.8358445E-002  0.1828084E+03  0.7818608E-02  0.1165414E+00
         21   -1    0    0  501  502  0.00000000000E+00  0.00000000000E+00  0.71515286123E+03  0.71515286123E+03  0.00000000000E+00 0. -1.
         21   -1    0    0  502  503 -0.00000000000E+00 -0.00000000000E+00 -0.49806604849E+02  0.49806604849E+02  0.00000000000E+00 0. -1.
         -6    2    1    2    0  503  0.20114171787E+02  0.55853574340E+02  0.23381765518E+03  0.29679891269E+03  0.17290083003E+03 0.  0.
        -24    2    3    3    0    0  0.72379380950E+02  0.65074008997E+02  0.19002956055E+03  0.22783402499E+03  0.79521743101E+02 0.  0.
          6    2    1    2  501    0 -0.20114171787E+02 -0.55853574340E+02  0.43152860120E+03  0.46816055339E+03  0.17156097581E+03 0.  0.
         24    2    5    5    0    0  0.35908970143E+02  0.17660655144E+02  0.21146890784E+03  0.22943206114E+03  0.79489740346E+02 0.  0.
          5    1    5    5  501    0 -0.56023141930E+02 -0.73514229485E+02  0.22005969336E+03  0.23872849225E+03  0.47000000000E+01 0. -1.
        -13    1    6    6    0    0 -0.13066278996E+02  0.31023961700E+02  0.12205159673E+03  0.12660887059E+03  0.00000000000E+00 0.  1.
         14    1    6    6    0    0  0.48975249139E+02 -0.13363306556E+02  0.89417311107E+02  0.10282319056E+03  0.00000000000E+00 0. -1.
         -5    1    3    3    0  503 -0.52265209164E+02 -0.92204346563E+01  0.43788094623E+02  0.68964887696E+02  0.47000000000E+01 0.  1.
         11    1    4    4    0    0  0.49341311628E+02  0.55151925215E+02  0.59610925392E+02  0.95025061505E+02  0.00000000000E+00 0. -1.
        -12    1    4    4    0    0  0.23038069323E+02  0.99220837820E+01  0.13041863516E+03  0.13280896349E+03  0.00000000000E+00 0.  1.
</event>
<event>
12    1  0.8358445E-002  0.2061872E+03  0.7818608E-02  0.1144935E+00
         21   -1    0    0  503  502  0.00000000000E+00  0.00000000000E+00  0.20168571310E+03  0.20168571310E+03  0.00000000000E+00 0. -1.
         21   -1    0    0  501  503 -0.00000000000E+00 -0.00000000000E+00 -0.29350028821E+03  0.29350028821E+03  0.00000000000E+00 0. -1.
          6    2    1    2  501    0 -0.80953848841E+02 -0.75640314356E+02 -0.17870719195E+03  0.27285422502E+03  0.17389130185E+03 0.  0.
         24    2    3    3    0    0 -0.24566810808E+02  0.11359914996E+02 -0.13682955830E+03  0.16094191933E+03  0.80295687996E+02 0.  0.
         -6    2    1    2    0  502  0.80953848841E+02  0.75640314356E+02  0.86892616852E+02  0.22233177629E+03  0.17206425859E+03 0.  0.
        -24    2    5    5    0    0  0.85412107078E+02  0.48725960927E+02  0.12315114183E+03  0.17671347820E+03  0.79949998998E+02 0.  0.
          5    1    3    3  501    0 -0.56387038033E+02 -0.87000229352E+02 -0.41877633652E+02  0.11191230569E+03  0.47000000000E+01 0. -1.
        -11    1    4    4    0    0 -0.80948813366E+01 -0.15195114594E+02 -0.12703154436E+03  0.12819294783E+03  0.00000000000E+00 0.  1.
         12    1    4    4    0    0 -0.16471929471E+02  0.26555029590E+02 -0.97980139430E+01  0.32748971500E+02  0.00000000000E+00 0. -1.
         -5    1    5    5    0  502 -0.44582582377E+01  0.26914353429E+02 -0.36258524975E+02  0.45618298088E+02  0.47000000000E+01 0.  1.
         11    1    6    6    0    0  0.30324363732E+02  0.59387403411E+02  0.88342391263E+02  0.11068337189E+03  0.00000000000E+00 0. -1.
        -12    1    6    6    0    0  0.55087743346E+02 -0.10661442484E+02  0.34808750564E+02  0.66030106305E+02  0.00000000000E+00 0.  1.
</event>
<event>
12    1  0.8358445E-002  0.3310948E+03  0.7818608E-02  0.1070654E+00
         21   -1    0    0  501  502  0.00000000000E+00  0.00000000000E+00  0.47028621788E+03  0.47028621788E+03  0.00000000000E+00 0. -1.
         21   -1    0    0  502  503 -0.00000000000E+00 -0.00000000000E+00 -0.63412291370E+03  0.63412291370E+03  0.00000000000E+00 0.  1.
         -6    2    1    2    0  503  0.26128129426E+03  0.10811050796E+03 -0.52105486702E+03  0.61735076257E+03  0.17224399246E+03 0.  0.
        -24    2    3    3    0    0  0.86739463943E+02 -0.89423674608E+01 -0.22673779225E+03  0.25567292709E+03  0.79717743772E+02 0.  0.
          6    2    1    2  501    0 -0.26128129426E+03 -0.10811050796E+03  0.35721817120E+03  0.48705836901E+03  0.17223599020E+03 0.  0.
         24    2    5    5    0    0 -0.11807701184E+03 -0.33424200589E+02  0.79114097541E+02  0.16542274163E+03  0.77757862034E+02 0.  0.
          5    1    5    5  501    0 -0.14320428242E+03 -0.74686307375E+02  0.27810407366E+03  0.32163562738E+03  0.47000000000E+01 0. -1.
        -13    1    6    6    0    0 -0.19839152170E+02  0.18035456569E+02  0.39336541559E+02  0.47604969849E+02  0.00000000000E+00 0.  1.
         14    1    6    6    0    0 -0.98237859668E+02 -0.51459657158E+02  0.39777555982E+02  0.11781777178E+03  0.00000000000E+00 0. -1.
         -5    1    3    3    0  503  0.17454183032E+03  0.11705287543E+03 -0.29431707477E+03  0.36167783548E+03  0.47000000000E+01 0.  1.
         11    1    4    4    0    0  0.20954880407E+02  0.17079839042E+02 -0.11991626195E+02  0.29574093619E+02  0.00000000000E+00 0. -1.
        -12    1    4    4    0    0  0.65784583536E+02 -0.26022206503E+02 -0.21474616605E+03  0.22609883347E+03  0.00000000000E+00 0.  1.
</event>
<event>
12    1  0.8358445E-002  0.1761434E+03  0.7818608E-02  0.1171664E+00
         21   -1    0    0  503  502  0.00000000000E+00  0.00000000000E+00  0.39134962176E+03  0.39134962176E+03  0.00000000000E+00 0.  1.
         21   -1    0    0  501  503 -0.00000000000E+00 -0.00000000000E+00 -0.12115280765E+03  0.12115280765E+03  0.00000000000E+00 0. -1.
          6    2    1    2  501    0 -0.15845095313E+02  0.35007104498E+02 -0.15718253279E+02  0.17684331394E+03  0.17190093016E+03 0.  0.
         24    2    3    3    0    0  0.19791492632E+00  0.89752931083E+02 -0.43323951360E+01  0.11848055637E+03  0.77222048542E+02 0.  0.
         -6    2    1    2    0  502  0.15845095313E+02 -0.35007104498E+02  0.28591506739E+03  0.33565911547E+03  0.17158977717E+03 0.  0.
        -24    2    5    5    0    0  0.39747709298E+02 -0.67854996115E+02  0.26908874830E+03  0.29143769585E+03  0.79642923163E+02 0.  0.
          5    1    3    3  501    0 -0.16043010239E+02 -0.54745826586E+02 -0.11385858143E+02  0.58362757575E+02  0.47000000000E+01 0. -1.
        -13    1    4    4    0    0  0.99253395541E+01  0.54124177386E+02  0.34453844406E+02  0.64923080159E+02  0.00000000000E+00 0.  1.
         14    1    4    4    0    0 -0.97274246278E+01  0.35628753698E+02 -0.38786239542E+02  0.53557476208E+02  0.00000000000E+00 0. -1.
         -5    1    5    5    0  502 -0.23902613986E+02  0.32847891617E+02  0.16826319087E+02  0.44221419618E+02  0.47000000000E+01 0.  1.
         13    1    6    6    0    0  0.27560693115E+02 -0.28568885277E+02  0.32509493759E+02  0.51309260328E+02  0.00000000000E+00 0. -1.
        -14    1    6    6    0    0  0.12187016183E+02 -0.39286110839E+02  0.23657925454E+03  0.24012843552E+03  0.00000000000E+00 0.  1.
</event>
<event>
12    1  0.8358445E-002  0.1850362E+03  0.7818608E-02  0.1163773E+00
         21   -1    0    0  503  502  0.00000000000E+00  0.00000000000E+00  0.47821023827E+02  0.47821023827E+02  0.00000000000E+00 0.  1.
         21   -1    0    0  501  503 -0.00000000000E+00 -0.00000000000E+00 -0.94744573549E+03  0.94744573549E+03  0.00000000000E+00 0.  1.
          6    2    1    2  501    0 -0.17782395090E+02  0.56533705150E+02 -0.69934299857E+03  0.72259263927E+03  0.17189304605E+03 0.  0.
         24    2    3    3    0    0 -0.36987505580E+02 -0.26730323569E+02 -0.42835326712E+03  0.43841090287E+03  0.81455586303E+02 0.  0.
         -6    2    1    2    0  502  0.17782395090E+02 -0.56533705150E+02 -0.20028171310E+03  0.27267412006E+03  0.17528872683E+03 0.  0.
        -24    2    5    5    0    0  0.17213543356E+02  0.17727593777E+02 -0.17778319706E+03  0.19493521516E+03  0.76041431448E+02 0.  0.
          5    1    3    3  501    0  0.19205110490E+02  0.83264028720E+02 -0.27098973145E+03  0.28418173639E+03  0.47000000000E+01 0. -1.
        -13    1    4    4    0    0  0.24094323790E+02 -0.35992992011E+01 -0.17879322785E+03  0.18044530950E+03  0.00000000000E+00 0.  1.
         14    1    4    4    0    0 -0.61081829370E+02 -0.23131024368E+02 -0.24956003926E+03  0.25796559337E+03  0.00000000000E+00 0. -1.
         -5    1    5    5    0  502  0.56885173424E+00 -0.74261298928E+02 -0.22498516041E+02  0.77738904898E+02  0.47000000000E+01 0.  1.
         13    1    6    6    0    0  0.45303889063E+02  0.11305425673E+02 -0.76421038514E+02  0.89556854240E+02  0.00000000000E+00 0. -1.
        -14    1    6    6    0    0 -0.28090345707E+02  0.64221681040E+01 -0.10136215854E+03  0.10537836092E+03  0.00000000000E+00 0.  1.
</event>
<event>
12    1  0.8358445E-002  0.2808954E+03  0.7818608E-02  0.1095207E+00
         21   -1    0    0  503  502  0.00000000000E+00  0.00000000000E+00  0.81401274627E+03  0.81401274627E+03  0.00000000000E+00 0. -1.
         21   -1    0    0  501  503 -0.00000000000E+00 -0.00000000000E+00 -0.14396232234E+03  0.14396232234E+03  0.00000000000E+00 0. -1.
          6    2    1    2  501    0 -0.46226838646E+02  0.21689954814E+03  0.61183917454E+02  0.28743750357E+03  0.17232095668E+03 0.  0.
         24    2    3    3    0    0 -0.39619737205E+02  0.33901766432E+02  0.40733380192E+02  0.10312213152E+03  0.79094325995E+02 0.  0.
         -6    2    1    2    0  502  0.46226838646E+02 -0.21689954814E+03  0.60886650648E+03  0.67053756504E+03  0.17239451506E+03 0.  0.
        -24    2    5    5    0    0  0.54546820360E+02 -0.18199718778E+03  0.32410411125E+03  0.38348511584E+03  0.76935214117E+02 0.  0.
          5    1    3    3  501    0 -0.66071014416E+01  0.18299778170E+03  0.20450537262E+02  0.18431537205E+03  0.47000000000E+01 0. -1.
        -13    1    4    4    0    0 -0.37599323557E+02  0.57997355667E+02  0.37758132415E+02  0.78759627727E+02  0.00000000000E+00 0.  1.
         14    1    4    4    0    0 -0.20204136481E+01 -0.24095589235E+02  0.29752477771E+01  0.24362503796E+02  0.00000000000E+00 0. -1.
         -5    1    5    5    0  502 -0.83199817138E+01 -0.34902360359E+02  0.28476239523E+03  0.28705244919E+03  0.47000000000E+01 0.  1.
         13    1    6    6    0    0  0.29104237887E+02 -0.14879002218E+03  0.29751373921E+03  0.33391608584E+03  0.00000000000E+00 0. -1.
        -14    1    6    6    0    0  0.25442582474E+02 -0.33207165601E+02  0.26590372041E+02  0.49569030003E+02  0.00000000000E+00 0.  1.
</event>
<event>
12    1  0.8358445E-002  0.2104920E+03  0.7818608E-02  0.1141531E+00
         21   -1    0    0  501  502  0.00000000000E+00  0.00000000000E+00  0.18795681962E+03  0.18795681962E+03  0.00000000000E+00 0. -1.
         21   -1    0    0  502  503 -0.00000000000E+00 -0.00000000000E+00 -0.37970811027E+03  0.37970811027E+03  0.00000000000E+00 0. -1.
         -6    2    1    2    0  503 -0.72124656290E+02 -0.94802655182E+02 -0.27160756995E+03  0.34253408432E+03  0.17137507810E+03 0.  0.
        -24    2    3    3    0    0 -0.77997074390E+00 -0.52621967486E+02 -0.23070513820E+03  0.24999018396E+03  0.80625997496E+02 0.  0.
          6    2    1    2  501    0  0.72124656290E+02  0.94802655182E+02  0.79856279307E+02  0.22513084557E+03  0.17354354729E+03 0.  0.
         24    2    5    5    0    0  0.35675793581E+02  0.12608001557E+02  0.10006354701E+03  0.13285460624E+03  0.78777592033E+02 0.  0.
          5    1    5    5  501    0  0.36448862709E+02  0.82194653624E+02 -0.20207267706E+02  0.92276239333E+02  0.47000000000E+01 0. -1.
        -13    1    6    6    0    0 -0.36220255036E+01 -0.71509194422E+01 -0.10877507452E+02  0.13512027457E+02  0.00000000000E+00 0.  1.
         14    1    6    6    0    0  0.39297819084E+02  0.19758920999E+02  0.11094105447E+03  0.11934257878E+03  0.00000000000E+00 0. -1.
         -5    1    3    3    0  503 -0.71344685546E+02 -0.42180687696E+02 -0.40902431757E+02  0.92543900359E+02  0.47000000000E+01 0.  1.
         11    1    4    4    0    0 -0.49113678966E+01  0.24813624926E+01 -0.16074603576E+03  0.16084018996E+03  0.00000000000E+00 0. -1.
        -12    1    4    4    0    0  0.41313971527E+01 -0.55103329979E+02 -0.69959102438E+02  0.89149994005E+02  0.00000000000E+00 0.  1.
</event>
<event>
12    1  0.8358445E-002  0.2040289E+03  0.7818608E-02  0.1146472E+00
         21   -1    0    0  503  502  0.00000000000E+00  0.00000000000E+00  0.24538812272E+03  0.24538812272E+03  0.00000000000E+00 0. -1.
         21   -1    0    0  501  503 -0.00000000000E+00 -0.00000000000E+00 -0.30828316270E+03  0.30828316270E+03  0.00000000000E+00 0. -1.
          6    2    1    2  501    0  0.75553094895E+02 -0.78705198890E+02 -0.21735470035E+03  0.29811217793E+03  0.17240947302E+03 0.  0.
         24    2    3    3    0    0 -0.21581774926E+00 -0.87442006445E+02 -0.17317579775E+03  0.20984482630E+03  0.79992769237E+02 0.  0.
         -6    2    1    2    0  502 -0.75553094895E+02  0.78705198890E+02  0.15445966037E+03  0.25555910749E+03  0.17190082099E+03 0.  0.
        -24    2    5    5    0    0 -0.97754265480E+02  0.31532978888E+02  0.15611288898E+03  0.20318608504E+03  0.79769203778E+02 0.  0.
          5    1    3    3  501    0  0.75768912644E+02  0.87368075547E+01 -0.44178902596E+02  0.88267351632E+02  0.47000000000E+01 0. -1.
        -13    1    4    4    0    0 -0.95915071126E+01 -0.56309733234E+02 -0.16732885232E+03  0.17680986365E+03  0.00000000000E+00 0.  1.
         14    1    4    4    0    0  0.93756893633E+01 -0.31132273211E+02 -0.58469454301E+01  0.33034962649E+02  0.00000000000E+00 0. -1.
         -5    1    5    5    0  502  0.22201170585E+02  0.47172220003E+02 -0.16532286099E+01  0.52373022447E+02  0.47000000000E+01 0.  1.
         13    1    6    6    0    0 -0.28111846649E+02  0.45442453060E+02  0.38741079074E+02  0.66001239912E+02  0.00000000000E+00 0. -1.
        -14    1    6    6    0    0 -0.69642418831E+02 -0.13909474172E+02  0.11737180990E+03  0.13718484513E+03  0.00000000000E+00 0.  1.
</event>
<event>
12    1  0.8358445E-002  0.2893570E+03  0.7818608E-02  0.1090809E+00
         21   -1    0    0  503  502  0.00000000000E+00  0.00000000000E+00  0.32276497971E+03  0.32276497971E+03  0.00000000000E+00 0. -1.
         21   -1    0    0  501  503 -0.00000000000E+00 -0.00000000000E+00 -0.45771678393E+03  0.45771678393E+03  0.00000000000E+00 0.  1.
          6    2    1    2  501    0 -0.23356752988E+03  0.10301200091E+01 -0.32494947469E+03  0.43510878192E+03  0.17079999661E+03 0.  0.
         24    2    3    3    0    0 -0.23528686854E+03 -0.16520422713E+02 -0.23380124237E+03  0.34215143724E+03  0.82290644643E+02 0.  0.
         -6    2    1    2    0  502  0.23356752988E+03 -0.10301200091E+01  0.18999767047E+03  0.34537298172E+03  0.16919967362E+03 0.  0.
        -24    2    5    5    0    0  0.15670066427E+03 -0.39192302392E+02  0.18600508222E+03  0.25933288668E+03  0.81021730129E+02 0.  0.
          5    1    3    3  501    0  0.17193386610E+01  0.17550542722E+02 -0.91148232320E+02  0.92957344682E+02  0.47000000000E+01 0. -1.
        -13    1    4    4    0    0 -0.15457586076E+03  0.11970094371E+02 -0.19234092716E+03  0.24704657891E+03  0.00000000000E+00 0.  1.
         14    1    4    4    0    0 -0.80711007784E+02 -0.28490517084E+02 -0.41460315210E+02  0.95104858333E+02  0.00000000000E+00 0. -1.
         -5    1    5    5    0  502  0.76866865609E+02  0.38162182383E+02  0.39925882530E+01  0.86040095035E+02  0.47000000000E+01 0.  1.
         13    1    6    6    0    0  0.10842548497E+03  0.37263548322E+01  0.78489092710E+02  0.13390485124E+03  0.00000000000E+00 0. -1.
        -14    1    6    6    0    0  0.48275179304E+02 -0.42918657224E+02  0.10751598951E+03  0.12542803544E+03  0.00000000000E+00 0.  1.
</event>
<event>
12    1  0.8358445E-002  0.1749870E+03  0.7818608E-02  0.1172841E+00
         21   -1    0    0  501  502  0.00000000000E+00  0.00000000000E+00  0.14521693633E+04  0.14521693633E+04  0.00000000000E+00 0.  1.
         21   -1    0    0  502  503 -0.00000000000E+00 -0.00000000000E+00 -0.26739479512E+02  0.26739479512E+02  0.00000000000E+00 0.  1.
         -6    2    1    2    0  503  0.19112879218E+02 -0.89478508117E+01  0.37193277188E+03  0.41104066074E+03  0.17370973431E+03 0.  0.
        -24    2    3    3    0    0 -0.36654049302E+02 -0.35737260539E+02  0.30497173395E+03  0.31975269115E+03  0.81322529894E+02 0.  0.
          6    2    1    2  501    0 -0.19112879218E+02  0.89478508117E+01  0.10534971119E+04  0.10678681821E+04  0.17332317592E+03 0.  0.
         24    2    5    5    0    0  0.13875992856E+02 -0.17172865819E+02  0.97613325516E+03  0.97967626721E+03  0.80262109343E+02 0.  0.
          5    1    5    5  501    0 -0.32988872073E+02  0.26120716631E+02  0.77363856743E+02  0.88191914868E+02  0.47000000000E+01 0. -1.
        -11    1    6    6    0    0  0.18844962903E+02  0.28865920866E+02  0.53784544601E+03  0.53894906792E+03  0.00000000000E+00 0.  1.
         12    1    6    6    0    0 -0.49689700477E+01 -0.46038786685E+02  0.43828780915E+03  0.44072719929E+03  0.00000000000E+00 0. -1.
         -5    1    3    3    0  503  0.55766928520E+02  0.26789409727E+02  0.66961037927E+02  0.91287969581E+02  0.47000000000E+01 0.  1.
         11    1    4    4    0    0  0.27078605997E+01  0.22797654987E+02  0.46947317038E+02  0.52260081889E+02  0.00000000000E+00 0. -1.
        -12    1    4    4    0    0 -0.39361909902E+02 -0.58534915526E+02  0.25802441692E+03  0.26749260927E+03  0.00000000000E+00 0.  1.
</event>
<event>
12    1  0.8358445E-002  0.1825709E+03  0.7818608E-02  0.1165835E+00
         21   -1    0    0  501  502  0.00000000000E+00  0.00000000000E+00  0.82904723840E+02  0.82904723840E+02  0.00000000000E+00 0. -1.
         21   -1    0    0  502  503 -0.00000000000E+00 -0.00000000000E+00 -0.50125382013E+03  0.50125382013E+03  0.00000000000E+00 0. -1.
         -6    2    1    2    0  503  0.35316193395E+02  0.47387221127E+02 -0.34301671847E+03  0.38857764924E+03  0.17274066717E+03 0.  0.
        -24    2    3    3    0    0 -0.27689777051E+02 -0.21577746980E+02 -0.18845983689E+03  0.20792372932E+03  0.80516111280E+02 0.  0.
          6    2    1    2  501    0 -0.35316193395E+02 -0.47387221127E+02 -0.75332377821E+02  0.19558089473E+03  0.17054071946E+03 0.  0.
         24    2    5    5    0    0  0.24841466755E+02  0.52226897106E+01 -0.78783242763E+02  0.11545134175E+03  0.80485017317E+02 0.  0.
          5    1    5    5  501    0 -0.60157660150E+02 -0.52609910838E+02  0.34508649416E+01  0.80129552987E+02  0.47000000000E+01 0. -1.
        -11    1    6    6    0    0 -0.14063562393E+02  0.23517726389E+02 -0.20292420085E+01  0.27476991554E+02  0.00000000000E+00 0.  1.
         12    1    6    6    0    0  0.38905029148E+02 -0.18295036679E+02 -0.76754000754E+02  0.87974350193E+02  0.00000000000E+00 0. -1.
         -5    1    3    3    0  503  0.63005970447E+02  0.68964968107E+02 -0.15455688158E+03  0.18065391992E+03  0.47000000000E+01 0.  1.
         13    1    4    4    0    0 -0.12150830601E+02 -0.52722453395E+01 -0.18459622717E+03  0.18507081439E+03  0.00000000000E+00 0. -1.
        -14    1    4    4    0    0 -0.15538946451E+02 -0.16305501640E+02 -0.38636097214E+01  0.22852914926E+02  0.00000000000E+00 0.  1.
</event>
<event>
12    1  0.8358445E-002  0.1804200E+03  0.7818608E-02  0.1168279E+00
         21   -1    0    0  503  502  0.00000000000E+00  0.00000000000E+00  0.12496725223E+03  0.12496725223E+03  0.00000000000E+00 0.  1.
         21   -1    0    0  501  503 -0.00000000000E+00 -0.00000000000E+00 -0.32388150661E+03  0.32388150661E+03  0.00000000000E+00 0.  1.
          6    2    1    2  501    0 -0.47123251079E+02 -0.12391372137E+02 -0.20352992275E+03  0.27198492703E+03  0.17371592954E+03 0.  0.
         24    2    3    3    0    0 -0.84721960142E+02 -0.37241730296E+02 -0.18566601188E+03  0.22327750936E+03  0.82560409481E+02 0.  0.
         -6    2    1    2    0  502  0.47123251079E+02  0.12391372137E+02  0.46156683729E+01  0.17686383182E+03  0.16995694666E+03 0.  0.
        -24    2    5    5    0    0  0.13703988954E+02 -0.31366654363E+02  0.56120091031E+02  0.10132306457E+03  0.77105333649E+02 0.  0.
          5    1    3    3  501    0  0.37598709063E+02  0.24850358160E+02 -0.17863910877E+02  0.48707417666E+02  0.47000000000E+01 0. -1.
        -13    1    4    4    0    0 -0.85937328152E+02 -0.23229443958E+01 -0.10742258938E+03  0.13758718381E+03  0.00000000000E+00 0.  1.
         14    1    4    4    0    0  0.12153680107E+01 -0.34918785900E+02 -0.78243422495E+02  0.85690325545E+02  0.00000000000E+00 0. -1.
         -5    1    5    5    0  502  0.33419262124E+02  0.43758026500E+02 -0.51504422658E+02  0.75540767255E+02  0.47000000000E+01 0.  1.
         11    1    6    6    0    0 -0.26709128097E+02 -0.28789520710E+02  0.11184171142E+02  0.40832581483E+02  0.00000000000E+00 0. -1.
        -12    1    6    6    0    0  0.40413117052E+02 -0.25771336536E+01  0.44935919889E+02  0.60490483086E+02  0.00000000000E+00 0.  1.
</event>
<event>
12    1  0.8358445E-002  0.2192574E+03  0.7818608E-02  0.1134441E+00
         21   -1    0    0  501  502  0.00000000000E+00  0.00000000000E+00  0.16473683061E+03  0.16473683061E+03  0.00000000000E+00 0. -1.
         21   -1    0    0  502  503 -0.00000000000E+00 -0.00000000000E+00 -0.30678764912E+03  0.30678764912E+03  0.00000000000E+00 0.  1.
         -6    2    1    2    0  503  0.11710813048E+03  0.69370912811E+02 -0.12313699649E+03  0.25145283281E+03  0.17186962925E+03 0.  0.
        -24    2    3    3    0    0  0.12692514306E+02  0.30490508335E+02  0.96181914633E+00  0.84608855414E+02  0.77890707408E+02 0.  0.
          6    2    1    2  501    0 -0.11710813048E+03 -0.69370912811E+02 -0.18913822017E+02  0.22007164691E+03  0.17189287171E+03 0.  0.
         24    2    5    5    0    0 -0.12233699700E+03 -0.55048824737E+02  0.38581828712E+02  0.16040337139E+03  0.79018795905E+02 0.  0.
          5    1    5    5  501    0  0.52288665144E+01 -0.14322088074E+02 -0.57495650729E+02  0.59668275528E+02  0.47000000000E+01 0. -1.
        -11    1    6    6    0    0 -0.44394456948E+02 -0.56976617217E+02 -0.25046342253E+01  0.72273618353E+02  0.00000000000E+00 0.  1.
         12    1    6    6    0    0 -0.77942540047E+02  0.19277924808E+01  0.41086462937E+02  0.88129753032E+02  0.00000000000E+00 0. -1.
         -5    1    3    3    0  503  0.10441561617E+03  0.38880404476E+02 -0.12409881563E+03  0.16684397740E+03  0.47000000000E+01 0.  1.
         13    1    4    4    0    0  0.10045861566E+02 -0.26067881498E+02 -0.10014545383E+01  0.27954546886E+02  0.00000000000E+00 0. -1.
        -14    1    4    4    0    0  0.26466527401E+01  0.56558389833E+02  0.19632736846E+01  0.56654308528E+02  0.00000000000E+00 0.  1.
</event>
<event>
12    1  0.8358445E-002  0.3089664E+03  0.7818608E-02  0.1080996E+00
         21   -1    0    0  503  502  0.00000000000E+00  0.00000000000E+00  0.46447167610E+03  0.46447167610E+03  0.00000000000E+00 0.  1.
         21   -1    0    0  501  503 -0.00000000000E+00 -0.00000000000E+00 -0.23964224081E+03  0.23964224081E+03  0.00000000000E+00 0. -1.
          6    2    1    2  501    0 -0.13123059850E+03 -0.21833616991E+03 -0.21864274845E+02  0.30973903882E+03  0.17483727458E+03 0.  0.
         24    2    3    3    0    0 -0.89092474578E+02 -0.19572632136E+03  0.38236691767E+02  0.23279072548E+03  0.80518416346E+02 0.  0.
         -6    2    1    2    0  502  0.13123059850E+03  0.21833616991E+03  0.24669371014E+03  0.39437487809E+03  0.17257347643E+03 0.  0.
        -24    2    5    5    0    0  0.11269376984E+03  0.13204308461E+03  0.23907921515E+03  0.30566083679E+03  0.78322500477E+02 0.  0.
          5    1    3    3  501    0 -0.42138123923E+02 -0.22609848552E+02 -0.60100966612E+02  0.76948313347E+02  0.47000000000E+01 0. -1.
        -13    1    4    4    0    0  0.11580720839E+02 -0.53460552751E+02  0.16634282878E+02  0.57173797867E+02  0.00000000000E+00 0.  1.
         14    1    4    4    0    0 -0.10067319542E+03 -0.14226576861E+03  0.21602408889E+02  0.17561692761E+03  0.00000000000E+00 0. -1.
         -5    1    5    5    0  502  0.18536828660E+02  0.86293085305E+02  0.76144949947E+01  0.88714041291E+02  0.47000000000E+01 0.  1.
         11    1    6    6    0    0  0.64996397542E+02  0.70275300505E+02  0.67387268440E+02  0.11706491149E+03  0.00000000000E+00 0. -1.
        -12    1    6    6    0    0  0.47697372298E+02  0.61767784102E+02  0.17169194671E+03  0.18859592530E+03  0.00000000000E+00 0.  1.
</event>
<event>
12    1  0.8358445E-002  0.2234936E+03  0.7818608E-02  0.1131392E+00
         21   -1    0    0  503  502  0.00000000000E+00  0.00000000000E+00  0.68105776455E+02  0.68105776455E+02  0.00000000000E+00 0.  1.
         21   -1    0    0  501  503 -0.00000000000E+00 -0.00000000000E+00 -0.77387375107E+03  0.77387375107E+03  0.00000000000E+00 0. -1.
          6    2    1    2  501    0 -0.54727221281E+02 -0.13242187205E+03 -0.45064187666E+03  0.50280598285E+03  0.17089509777E+03 0.  0.
         24    2    3    3    0    0 -0.63829264933E+02 -0.67258381296E+02 -0.40415544637E+03  0.42210774293E+03  0.78964909231E+02 0.  0.
         -6    2    1    2    0  502  0.54727221281E+02  0.13242187205E+03 -0.25512609795E+03  0.33917354467E+03  0.17151893949E+03 0.  0.
        -24    2    5    5    0    0  0.45779817085E+00  0.51295486444E+01 -0.64092040317E+02  0.10324006452E+03  0.80772516621E+02 0.  0.
          5    1    3    3  501    0  0.91020436529E+01 -0.65163490752E+02 -0.46486430293E+02  0.80698239925E+02  0.47000000000E+01 0. -1.
        -11    1    4    4    0    0 -0.24434517124E+02  0.16321608070E+02 -0.95354793408E+02  0.99779642928E+02  0.00000000000E+00 0.  1.
         12    1    4    4    0    0 -0.39394747809E+02 -0.83579989365E+02 -0.30880065296E+03  0.32232810000E+03  0.00000000000E+00 0. -1.
         -5    1    5    5    0  502  0.54269423110E+02  0.12729232340E+03 -0.19103405763E+03  0.23593348015E+03  0.47000000000E+01 0.  1.
         11    1    6    6    0    0  0.16868195584E+02 -0.34301554945E+02 -0.29896925469E+02  0.48527918217E+02  0.00000000000E+00 0. -1.
        -12    1    6    6    0    0 -0.16410397413E+02  0.39431103589E+02 -0.34195114848E+02  0.54712146302E+02  0.00000000000E+00 0.  1.
</event>
<event>
12    1  0.8358445E-002  0.2109641E+03  0.7818608E-02  0.1142805E+00
         21   -1    0    0  503  502  0.00000000000E+00  0.00000000000E+00  0.57700388632E+02  0.57700388632E+02  0.00000000000E+00 0. -1.
         21   -1    0    0  501  503 -0.00000000000E+00 -0.00000000000E+00 -0.17755551061E+04  0.17755551061E+04  0.00000000000E+00 0. -1.
          6    2    1    2  501    0 -0.75523393647E+02  0.70363237738E+02 -0.15689271837E+04  0.15830471801E+04  0.18398668064E+03 0.  0.
         24    2    3    3    0    0 -0.64844378706E+02 -0.24733726905E+02 -0.93277240666E+03  0.93971797641E+03  0.90492882992E+02 0.  0.
         -6    2    1    2    0  502  0.75523393647E+02 -0.70363237738E+02 -0.14892753378E+03  0.25020831458E+03  0.17253991467E+03 0.  0.
        -24    2    5    5    0    0  0.11090412007E+03 -0.73649792071E+02 -0.87233840085E+02  0.17885847868E+03  0.81587969811E+02 0.  0.
          5    1    3    3  501    0 -0.10679014941E+02  0.95096964644E+02 -0.63615477700E+03  0.64332920371E+03  0.47000000000E+01 0. -1.
        -11    1    4    4    0    0 -0.69172875281E+02  0.52490687911E+01 -0.82059709103E+03  0.82352414974E+03  0.00000000000E+00 0.  1.
         12    1    4    4    0    0  0.43284965750E+01 -0.29982795697E+02 -0.11217531563E+03  0.11619382667E+03  0.00000000000E+00 0. -1.
         -5    1    5    5    0  502 -0.35380726426E+02  0.32865543325E+01 -0.61693693697E+02  0.71349835905E+02  0.47000000000E+01 0.  1.
         11    1    6    6    0    0  0.36726458289E+02  0.13400426625E+02 -0.37405267613E+02  0.54106914691E+02  0.00000000000E+00 0. -1.
        -12    1    6    6    0    0  0.74177661784E+02 -0.87050218695E+02 -0.49828572472E+02  0.12475156399E+03  0.00000000000E+00 0.  1.
</event>
<event>
12    1  0.8358445E-002  0.2011706E+03  0.7818608E-02  0.1148949E+00
         21   -1    0    0  501  502  0.00000000000E+00  0.00000000000E+00  0.41834255569E+02  0.41834255569E+02  0.00000000000E+00 0. -1.
         21   -1    0    0  502  503 -0.00000000000E+00 -0.00000000000E+00 -0.10580539566E+04  0.10580539566E+04  0.00000000000E+00 0.  1.
         -6    2    1    2    0  503  0.76289140631E+02 -0.74161663612E+02 -0.67192527313E+03  0.70112982521E+03  0.16964514082E+03 0.  0.
        -24    2    3    3    0    0 -0.60183151550E+01  0.83641163921E+01 -0.35524006848E+03  0.36364407664E+03  0.77041090744E+02 0.  0.
          6    2    1    2  501    0 -0.76289140631E+02  0.74161663612E+02 -0.34429442790E+03  0.39875838696E+03  0.17073257673E+03 0.  0.
         24    2    5    5    0    0 -0.44469790600E+02 -0.26495457254E+02 -0.15260521014E+03  0.17987217628E+03  0.79912940803E+02 0.  0.
          5    1    5    5  501    0 -0.31819350031E+02  0.10065712087E+03 -0.19168921776E+03  0.21888621067E+03  0.47000000000E+01 0. -1.
        -11    1    6    6    0    0 -0.30090302498E+02  0.11046612692E+00 -0.14580026081E+03  0.14887294770E+03  0.00000000000E+00 0.  1.
         12    1    6    6    0    0 -0.14379488101E+02 -0.26605923381E+02 -0.68049493338E+01  0.30999228578E+02  0.00000000000E+00 0. -1.
         -5    1    3    3    0  503  0.82307455786E+02 -0.82525780004E+02 -0.31668520465E+03  0.33748574857E+03  0.47000000000E+01 0.  1.
         13    1    4    4    0    0  0.19167016483E+02 -0.16762746653E+02 -0.47859603850E+02  0.54211676573E+02  0.00000000000E+00 0. -1.
        -14    1    4    4    0    0 -0.25185331638E+02  0.25126863045E+02 -0.30738046463E+03  0.30943240006E+03  0.00000000000E+00 0.  1.
</event>
<event>
12    1  0.8358445E-002  0.2717201E+03  0.7818608E-02  0.1100355E+00
         21   -1    0    0  501  502  0.00000000000E+00  0.00000000000E+00  0.36274760027E+03  0.36274760027E+03  0.00000000000E+00 0.  1.
         21   -1    0    0  502  503 -0.00000000000E+00 -0.00000000000E+00 -0.93784452387E+03  0.93784452387E+03  0.00000000000E+00 0. -1.
         -6    2    1    2    0  503  0.19128078602E+03  0.85942322640E+02 -0.86303907984E+03  0.90468496052E+03  0.17217433763E+03 0.  0.
        -24    2    3    3    0    0  0.20678655183E+03  0.85643108830E+02 -0.85310218531E+03  0.88567574762E+03  0.80887398464E+02 0.  0.
          6    2    1    2  501    0 -0.19128078602E+03 -0.85942322640E+02  0.28794215624E+03  0.39590716362E+03  0.17279286716E+03 0.  0.
         24    2    5    5    0    0 -0.94155835652E+02 -0.10861248668E+03  0.22155405749E+03  0.27600444481E+03  0.80188898956E+02 0.  0.
          5    1    5    5  501    0 -0.97124950366E+02  0.22670164038E+02  0.66388098748E+02  0.11990271880E+03  0.47000000000E+01 0. -1.
        -13    1    6    6    0    0 -0.10256431662E+03 -0.68733284024E+02  0.17437316230E+03  0.21365791141E+03  0.00000000000E+00 0.  1.
         14    1    6    6    0    0  0.84084809697E+01 -0.39879202654E+02  0.47180895192E+02  0.62346533405E+02  0.00000000000E+00 0. -1.
         -5    1    3    3    0  503 -0.15505765808E+02  0.29921381005E+00 -0.99368945273E+01  0.19009212899E+02  0.47000000000E+01 0.  1.
         13    1    4    4    0    0  0.29788452244E+02 -0.10018449433E+02 -0.19465597688E+03  0.19717674952E+03  0.00000000000E+00 0. -1.
        -14    1    4    4    0    0  0.17699809958E+03  0.95661558263E+02 -0.65844620843E+03  0.68849899810E+03  0.00000000000E+00 0.  1.
</event>
<event>
12    1  0.8358445E-002  0.1854239E+03  0.7818608E-02  0.1165674E+00
         21   -1    0    0  501  502  0.00000000000E+00  0.00000000000E+00  0.10260048157E+04  0.10260048157E+04  0.00000000000E+00 0. -1.
         21   -1    0    0  502  503 -0.00000000000E+00 -0.00000000000E+00 -0.35862537282E+02  0.35862537282E+02  0.00000000000E+00 0.  1.
         -6    2    1    2    0  503 -0.46902953664E+02  0.47078019542E+02  0.32066020335E+03  0.37041192234E+03  0.17310632343E+03 0.  0.
        -24    2    3    3    0    0 -0.12292053788E+02  0.12131369487E+02  0.35939175834E+02  0.81435563012E+02  0.71006069117E+02 0.  0.
          6    2    1    2  501    0  0.46902953664E+02 -0.47078019542E+02  0.66948207512E+03  0.69145543069E+03  0.15965004461E+03 0.  0.
         24    2    5    5    0    0  0.90195424563E+02 -0.22279577756E+02  0.44037544017E+03  0.45693221025E+03  0.78898176520E+02 0.  0.
          5    1    5    5  501    0 -0.43292470899E+02 -0.24798441786E+02  0.22910663495E+03  0.23452322044E+03  0.47000000000E+01 0. -1.
        -13    1    6    6    0    0  0.77639268070E+02 -0.23574348011E+02  0.19467144383E+03  0.21090418885E+03  0.00000000000E+00 0.  1.
         14    1    6    6    0    0  0.12556156493E+02  0.12947702544E+01  0.24570399634E+03  0.24602802140E+03  0.00000000000E+00 0. -1.
         -5    1    3    3    0  503 -0.34610899876E+02  0.34946650055E+02  0.28472102751E+03  0.28897635932E+03  0.47000000000E+01 0.  1.
         11    1    4    4    0    0 -0.23083538913E+02 -0.18750181420E+02  0.38470391727E+02  0.48624994722E+02  0.00000000000E+00 0. -1.
        -12    1    4    4    0    0  0.10791485125E+02  0.30881550907E+02 -0.25312158929E+01  0.32810568290E+02  0.00000000000E+00 0.  1.
</event>
<event>
12    1  0.8358445E-002  0.2464903E+03  0.7818608E-02  0.1115591E+00
         21   -1    0    0  503  502  0.00000000000E+00  0.00000000000E+00  0.54105310666E+02  0.54105310666E+02  0.00000000000E+00 0.  1.
         21   -1    0    0  501  503 -0.00000000000E+00 -0.00000000000E+00 -0.12663176681E+04  0.12663176681E+04  0.00000000000E+00 0.  1.
          6    2    1    2  501    0 -0.21899734628E+02  0.17472697271E+03 -0.82961484671E+03  0.86545842360E+03  0.17247717449E+03 0.  0.
         24    2    3    3    0    0  0.25735359480E+02  0.17904299855E+03 -0.61988261743E+03  0.65029005169E+03  0.76837411946E+02 0.  0.
         -6    2    1    2    0  502  0.21899734628E+02 -0.17472697271E+03 -0.38259751070E+03  0.45496455514E+03  0.17205457820E+03 0.  0.
        -24    2    5    5    0    0 -0.33390515921E+02 -0.16291331625E+03 -0.32645153197E+03  0.37514579036E+03  0.80672709973E+02 0.  0.
          5    1    3    3  501    0 -0.47635094108E+02 -0.43160258484E+01 -0.20973222928E+03  0.21516837191E+03  0.47000000000E+01 0. -1.
        -13    1    4    4    0    0 -0.26144870764E+02  0.51139264321E+02 -0.21438518601E+03  0.22194545862E+03  0.00000000000E+00 0.  1.
         14    1    4    4    0    0  0.51880230244E+02  0.12790373423E+03 -0.40549743143E+03  0.42834459307E+03  0.00000000000E+00 0. -1.
         -5    1    5    5    0  502  0.55290250549E+02 -0.11813656458E+02 -0.56145978730E+02  0.79818764788E+02  0.47000000000E+01 0.  1.
         13    1    6    6    0    0  0.28251134046E+01  0.59237008847E+01 -0.41054408553E+02  0.41575665473E+02  0.00000000000E+00 0. -1.
        -14    1    6    6    0    0 -0.36215629326E+02 -0.16883701713E+03 -0.28539712341E+03  0.33357012488E+03  0.00000000000E+00 0.  1.
</event>
<event>
12    1  0.8358445E-002  0.2477493E+03  0.7818608E-02  0.1115147E+00
         21   -1    0    0  503  502  0.00000000000E+00  0.00000000000E+00  0.15809064865E+03  0.15809064865E+03  0.00000000000E+00 0.  1.
         21   -1    0    0  501  503 -0.00000000000E+00 -0.00000000000E+00 -0.40839617177E+03  0.40839617177E+03  0.00000000000E+00 0. -1.
          6    2    1    2  501    0  0.32849246365E+02 -0.17553917581E+03 -0.19462846814E+03  0.31505547467E+03  0.17171673266E+03 0.  0.
         24    2    3    3    0    0  0.80806572293E+02 -0.73493157822E+02 -0.10652585488E+03  0.17188615058E+03  0.79158983254E+02 0.  0.
         -6    2    1    2    0  502 -0.32849246365E+02  0.17553917581E+03 -0.55677054972E+02  0.25143134575E+03  0.16800211887E+03 0.  0.
        -24    2    5    5    0    0  0.29407551908E+02  0.81002198369E+02 -0.71876054616E+02  0.13698639556E+03  0.78568092073E+02 0.  0.
          5    1    3    3  501    0 -0.47957325928E+02 -0.10204601799E+03 -0.88102613259E+02  0.14316932409E+03  0.47000000000E+01 0. -1.
        -13    1    4    4    0    0 -0.15147420672E+02 -0.21232561024E+01 -0.12902053159E+02  0.20010385933E+02  0.00000000000E+00 0.  1.
         14    1    4    4    0    0  0.95953992965E+02 -0.71369901719E+02 -0.93623801726E+02  0.15187576465E+03  0.00000000000E+00 0. -1.
         -5    1    5    5    0  502 -0.62256798272E+02  0.94536977442E+02  0.16198999644E+02  0.11444495019E+03  0.47000000000E+01 0.  1.
         13    1    6    6    0    0  0.48610048236E+02  0.28233275700E+02 -0.17640473262E+02  0.58917238081E+02  0.00000000000E+00 0. -1.
        -14    1    6    6    0    0 -0.19202496328E+02  0.52768922670E+02 -0.54235581354E+02  0.78069157480E+02  0.00000000000E+00 0.  1.
</event>
<event>
12    1  0.8358445E-002  0.2239777E+03  0.7818608E-02  0.1130966E+00
         21   -1    0    0  503  502  0.00000000000E+00  0.00000000000E+00  0.29749063358E+03  0.29749063358E+03  0.00000000000E+00 0.  1.
         21   -1    0    0  501  503 -0.00000000000E+00 -0.00000000000E+00 -0.26994678822E+03  0.26994678822E+03  0.00000000000E+00 0.  1.
          6    2    1    2  501    0  0.12157394462E+03  0.76231031107E+02 -0.16009716607E+03  0.27524716398E+03  0.17186769499E+03 0.  0.
         24    2    3    3    0    0  0.13956680539E+03  0.26334087587E+02 -0.86869015467E+02  0.18470490836E+03  0.79983123155E+02 0.  0.
         -6    2    1    2    0  502 -0.12157394462E+03 -0.76231031107E+02  0.18764101143E+03  0.29219025782E+03  0.17197268237E+03 0.  0.
        -24    2    5    5    0    0  0.74977645872E+01 -0.46848275781E+02  0.86439881388E+02  0.12549709314E+03  0.77631758163E+02 0.  0.
          5    1    3    3  501    0 -0.17992860766E+02  0.49896943520E+02 -0.73228150607E+02  0.90542255619E+02  0.47000000000E+01 0. -1.
        -11    1    4    4    0    0  0.80220565822E+02  0.51438420572E+01 -0.91163917690E+02  0.12154282447E+03  0.00000000000E+00 0.  1.
         12    1    4    4    0    0  0.59346239567E+02  0.21190245530E+02  0.42949022235E+01  0.63162083891E+02  0.00000000000E+00 0. -1.
         -5    1    5    5    0  502 -0.12907170921E+03 -0.29382755327E+02  0.10120113004E+03  0.16669316468E+03  0.47000000000E+01 0.  1.
         11    1    6    6    0    0 -0.11996808867E+02  0.14824719411E+02  0.20641658820E+01  0.19182192507E+02  0.00000000000E+00 0. -1.
        -12    1    6    6    0    0  0.19494573454E+02 -0.61672995191E+02  0.84375715506E+02  0.10631490064E+03  0.00000000000E+00 0.  1.
</event>
<event>
12    1  0.8358445E-002  0.1768171E+03  0.7818608E-02  0.1172087E+00
         21   -1    0    0  503  502  0.00000000000E+00  0.00000000000E+00  0.10281949101E+03  0.10281949101E+03  0.00000000000E+00 0. -1.
         21   -1    0    0  501  503 -0.00000000000E+00 -0.00000000000E+00 -0.29702662830E+03  0.29702662830E+03  0.00000000000E+00 0. -1.
          6    2    1    2  501    0  0.30643482934E+02 -0.28517180255E+02 -0.87404442431E+02  0.19724049662E+03  0.17179064099E+03 0.  0.
         24    2    3    3    0    0 -0.27839836365E+01  0.47497612063E+02 -0.55587195219E+02  0.10818954832E+03  0.79694845358E+02 0.  0.
         -6    2    1    2    0  502 -0.30643482934E+02  0.28517180255E+02 -0.10680269486E+03  0.20260562270E+03  0.16700290447E+03 0.  0.
        -24    2    5    5    0    0 -0.81672341331E+02  0.31336808166E+02 -0.56537727006E+02  0.13076864277E+03  0.79066784894E+02 0.  0.
          5    1    3    3  501    0  0.33427466570E+02 -0.76014792317E+02 -0.31817247212E+02  0.89050948296E+02  0.47000000000E+01 0. -1.
        -13    1    4    4    0    0 -0.34233648482E+02  0.31669590526E+02 -0.56131781339E+02  0.72977274057E+02  0.00000000000E+00 0.  1.
         14    1    4    4    0    0  0.31449664846E+02  0.15828021537E+02  0.54458612001E+00  0.35212274263E+02  0.00000000000E+00 0. -1.
         -5    1    5    5    0  502  0.51028858398E+02 -0.28196279109E+01 -0.50264967857E+02  0.71836979924E+02  0.47000000000E+01 0.  1.
         13    1    6    6    0    0 -0.14052526526E+02 -0.16032818900E+02 -0.41771440048E+02  0.46897526452E+02  0.00000000000E+00 0. -1.
        -14    1    6    6    0    0 -0.67619814805E+02  0.47369627065E+02 -0.14766286958E+02  0.83871116322E+02  0.00000000000E+00 0.  1.
</event>
<event>
12    1  0.8358445E-002  0.2157347E+03  0.7818608E-02  0.1137865E+00
         21   -1    0    0  503  502  0.00000000000E+00  0.00000000000E+00  0.82861345846E+03  0.82861345846E+03  0.00000000000E+00 0.  1.
         21   -1    0    0  501  503 -0.00000000000E+00 -0.00000000000E+00 -0.11794554474E+04  0.11794554474E+04  0.00000000000E+00 0.  1.
          6    2    1    2  501    0 -0.11526802237E+03 -0.61118432117E+02 -0.11557761304E+04  0.11757380336E+04  0.17181175877E+03 0.  0.
         24    2    3    3    0    0 -0.10219314310E+03 -0.53969808387E+02 -0.11509012471E+04  0.11593700840E+04  0.78798047546E+02 0.  0.
         -6    2    1    2    0  502  0.11526802237E+03  0.61118432117E+02  0.80493414147E+03  0.83233087220E+03  0.16683383650E+03 0.  0.
        -24    2    5    5    0    0  0.72211756872E+02 -0.21312760441E+02  0.27588872229E+03  0.29515316506E+03  0.73020765323E+02 0.  0.
          5    1    3    3  501    0 -0.13074879268E+02 -0.71486237298E+01 -0.48748832646E+01  0.16367949656E+02  0.47000000000E+01 0. -1.
        -11    1    4    4    0    0 -0.91949778476E+02 -0.39518201229E+02 -0.60817444923E+03  0.61635428991E+03  0.00000000000E+00 0.  1.
         12    1    4    4    0    0 -0.10243364627E+02 -0.14451607158E+02 -0.54272679786E+03  0.54301579405E+03  0.00000000000E+00 0. -1.
         -5    1    5    5    0  502  0.43056265498E+02  0.82431192558E+02  0.52904541917E+03  0.53717770714E+03  0.47000000000E+01 0.  1.
         11    1    6    6    0    0  0.83184201612E+02 -0.30140244491E+01  0.22826519122E+03  0.24296850261E+03  0.00000000000E+00 0. -1.
        -12    1    6    6    0    0 -0.10972444739E+02 -0.18298735992E+02  0.47623531077E+02  0.52184662447E+02  0.00000000000E+00 0.  1.
</event>
<event>
12    1  0.8358445E-002  0.1903704E+03  0.7818608E-02  0.1158363E+00
         21   -1    0    0  503  502  0.00000000000E+00  0.00000000000E+00  0.73540424927E+03  0.73540424927E+03  0.00000000000E+00 0.  1.
         21   -1    0    0  501  503 -0.00000000000E+00 -0.00000000000E+00 -0.56185980718E+02  0.56185980718E+02  0.00000000000E+00 0.  1.
          6    2    1    2  501    0  0.70337083302E+02 -0.38922808656E+02  0.48024030333E+03  0.51621212457E+03  0.17141154654E+03 0.  0.
         24    2    3    3    0    0  0.86343990568E+01 -0.72753726056E+01  0.40865490447E+03  0.41643567052E+03  0.79324352150E+02 0.  0.
         -6    2    1    2    0  502 -0.70337083302E+02  0.38922808656E+02  0.19897796522E+03  0.27537810542E+03  0.17256471244E+03 0.  0.
        -24    2    5    5    0    0 -0.92551018965E+02 -0.16906226304E+02  0.16436439871E+03  0.20587609776E+03  0.80732895815E+02 0.  0.
          5    1    3    3  501    0  0.61702684245E+02 -0.31647436050E+02  0.71585398862E+02  0.99776454045E+02  0.47000000000E+01 0. -1.
        -11    1    4    4    0    0  0.11316717810E+02  0.21039864908E+02  0.39330678328E+02  0.46017890815E+02  0.00000000000E+00 0.  1.
         12    1    4    4    0    0 -0.26823187529E+01 -0.28315237513E+02  0.36932422614E+03  0.37041777971E+03  0.00000000000E+00 0. -1.
         -5    1    5    5    0  502  0.22213935663E+02  0.55829034960E+02  0.34613566516E+02  0.69502007662E+02  0.47000000000E+01 0.  1.
         11    1    6    6    0    0 -0.25713510441E+01 -0.24870703273E+02  0.73978669830E+02  0.78089738873E+02  0.00000000000E+00 0. -1.
        -12    1    6    6    0    0 -0.89979667921E+02  0.79644769696E+01  0.90385728878E+02  0.12778635889E+03  0.00000000000E+00 0.  1.
</event>
<event>
12    1  0.8358445E-002  0.1987496E+03  0.7818608E-02  0.1150807E+00
         21   -1    0    0  501  502  0.00000000000E+00  0.00000000000E+00  0.13821692306E+04  0.13821692306E+04  0.00000000000E+00 0.  1.
         21   -1    0    0  502  503 -0.00000000000E+00 -0.00000000000E+00 -0.28733627355E+02  0.28733627355E+02  0.00000000000E+00 0.  1.
         -6    2    1    2    0  503  0.91811272394E+02  0.32304014819E+02  0.72933408021E+03  0.75591880507E+03  0.17324023836E+03 0.  0.
        -24    2    3    3    0    0  0.11156389884E+03 -0.12897988272E+02  0.40494181207E+03  0.42776362689E+03  0.79943653301E+02 0.  0.
          6    2    1    2  501    0 -0.91811272394E+02 -0.32304014819E+02  0.62410152301E+03  0.65498405286E+03  0.17328744724E+03 0.  0.
         24    2    5    5    0    0 -0.57198309434E+02  0.32681273696E+02  0.21001911704E+03  0.23438035118E+03  0.80538234699E+02 0.  0.
          5    1    5    5  501    0 -0.34612962960E+02 -0.64985288515E+02  0.41408240598E+03  0.42060370168E+03  0.47000000000E+01 0. -1.
        -11    1    6    6    0    0  0.14706455747E+02  0.16013589875E+02  0.96904386387E+02  0.99313518729E+02  0.00000000000E+00 0.  1.
         12    1    6    6    0    0 -0.71904765182E+02  0.16667683822E+02  0.11311473065E+03  0.13506683246E+03  0.00000000000E+00 0. -1.
         -5    1    3    3    0  503 -0.19752626442E+02  0.45202003092E+02  0.32439226814E+03  0.32815517818E+03  0.47000000000E+01 0.  1.
         11    1    4    4    0    0 -0.12475606357E+02  0.14196649194E+01  0.28194902440E+02  0.30864360128E+02  0.00000000000E+00 0. -1.
        -12    1    4    4    0    0  0.12403950519E+03 -0.14317653192E+02  0.37674690963E+03  0.39689926676E+03  0.00000000000E+00 0.  1.
</event>
<event>
12    1  0.8358445E-002  0.1928327E+03  0.7818608E-02  0.1156585E+00
         21   -1    0    0  501  502  0.00000000000E+00  0.00000000000E+00  0.15453807162E+04  0.15453807162E+04  0.00000000000E+00 0.  1.
         21   -1    0    0  502  503 -0.00000000000E+00 -0.00000000000E+00 -0.24141438254E+02  0.24141438254E+02  0.00000000000E+00 0.  1.
         -6    2    1    2    0  503  0.86401635350E+02 -0.28973605401E+01  0.64845474985E+03  0.67568923775E+03  0.16908206921E+03 0.  0.
        -24    2    3    3    0    0  0.12596200485E+02  0.38550030792E+02  0.47128951708E+03  0.47928471091E+03  0.77170305568E+02 0.  0.
          6    2    1    2  501    0 -0.86401635350E+02  0.28973605401E+01  0.87278452814E+03  0.89383291674E+03  0.17236824881E+03 0.  0.
         24    2    5    5    0    0 -0.11631621029E+03  0.34504197378E+02  0.73554052667E+03  0.74977778886E+03  0.80167735926E+02 0.  0.
          5    1    5    5  501    0  0.29914574935E+02 -0.31606836838E+02  0.13724400147E+03  0.14405512788E+03  0.47000000000E+01 0. -1.
        -11    1    6    6    0    0 -0.47415440206E+02  0.53377437572E+02  0.29729416116E+03  0.30574694287E+03  0.00000000000E+00 0.  1.
         12    1    6    6    0    0 -0.68900770080E+02 -0.18873240194E+02  0.43824636551E+03  0.44403084600E+03  0.00000000000E+00 0. -1.
         -5    1    3    3    0  503  0.73805434866E+02 -0.41447391332E+02  0.17716523276E+03  0.19640452684E+03  0.47000000000E+01 0.  1.
         13    1    4    4    0    0  0.61627978200E+01  0.15355172466E+02  0.14915320067E+02  0.22276179456E+02  0.00000000000E+00 0. -1.
        -14    1    4    4    0    0  0.64334026649E+01  0.23194858326E+02  0.45637419701E+03  0.45700853145E+03  0.00000000000E+00 0.  1.
</event>
<event>
12    1  0.8358445E-002  0.1752976E+03  0.7818608E-02  0.1172545E+00
         21   -1    0    0  503  502  0.00000000000E+00  0.00000000000E+00  0.11630217081E+03  0.11630217081E+03  0.00000000000E+00 0. -1.
         21   -1    0    0  501  503 -0.00000000000E+00 -0.00000000000E+00 -0.34347134912E+03  0.34347134912E+03  0.00000000000E+00 0. -1.
          6    2    1    2  501    0 -0.11505823222E+02  0.15119613977E+02 -0.22436674595E+03  0.28445355234E+03  0.17381714545E+03 0.  0.
         24    2    3    3    0    0 -0.14593413060E+01  0.43802881617E+01 -0.24067057660E+02  0.83559749427E+02  0.79885492165E+02 0.  0.
         -6    2    1    2    0  502  0.11505823222E+02 -0.15119613977E+02 -0.28024323554E+01  0.17531996759E+03  0.17426488664E+03 0.  0.
        -24    2    5    5    0    0 -0.15720142486E+02 -0.51885111776E+02 -0.50149273533E+02  0.10931414659E+03  0.80594325508E+02 0.  0.
          5    1    3    3  501    0 -0.10046481916E+02  0.10739325815E+02 -0.20029968829E+03  0.20089380291E+03  0.47000000000E+01 0. -1.
        -11    1    4    4    0    0 -0.15743889459E+02  0.13307348528E+02 -0.49177155016E+02  0.53323054635E+02  0.00000000000E+00 0.  1.
         12    1    4    4    0    0  0.14284548153E+02 -0.89270603662E+01  0.25110097356E+02  0.30236694792E+02  0.00000000000E+00 0. -1.
         -5    1    5    5    0  502  0.27225965709E+02  0.36765497800E+02  0.47346841178E+02  0.66005821006E+02  0.47000000000E+01 0.  1.
         11    1    6    6    0    0 -0.46925973184E+02 -0.16197085099E+02 -0.23403312467E+02  0.54882670848E+02  0.00000000000E+00 0. -1.
        -12    1    6    6    0    0  0.31205830698E+02 -0.35688026678E+02 -0.26745961066E+02  0.54431475738E+02  0.00000000000E+00 0.  1.
</event>
<event>
12    1  0.8358445E-002  0.1832627E+03  0.7818608E-02  0.1164756E+00
         21   -1    0    0  503  502  0.00000000000E+00  0.00000000000E+00  0.10089789665E+04  0.10089789665E+04  0.00000000000E+00 0. -1.
         21   -1    0    0  501  503 -0.00000000000E+00 -0.00000000000E+00 -0.44720624525E+02  0.44720624525E+02  0.00000000000E+00 0. -1.
          6    2    1    2  501    0  0.33584888024E+02 -0.55348775310E+02  0.74949048601E+03  0.77157060123E+03  0.17144612108E+03 0.  0.
         24    2    3    3    0    0  0.26927557155E+02 -0.73621250872E+02  0.28418698441E+03  0.30583715599E+03  0.81418314646E+02 0.  0.
         -6    2    1    2    0  502 -0.33584888024E+02  0.55348775310E+02  0.21476785592E+03  0.28212898975E+03  0.17111429890E+03 0.  0.
        -24    2    5    5    0    0  0.45645585736E+02  0.25455944821E+02  0.13989442059E+03  0.16899557026E+03  0.79104546217E+02 0.  0.
          5    1    3    3  501    0  0.66573308684E+01  0.18272475562E+02  0.46530350160E+03  0.46573344524E+03  0.47000000000E+01 0. -1.
        -13    1    4    4    0    0 -0.50557057230E+01  0.12455724244E+02  0.10207884705E+02  0.16879162804E+02  0.00000000000E+00 0.  1.
         14    1    4    4    0    0  0.31983262879E+02 -0.86076975116E+02  0.27397909970E+03  0.28895799318E+03  0.00000000000E+00 0. -1.
         -5    1    5    5    0  502 -0.79230473760E+02  0.29892830489E+02  0.74873435331E+02  0.11313341949E+03  0.47000000000E+01 0.  1.
         11    1    6    6    0    0  0.47478624113E+01  0.44812524630E+02  0.44094571916E+02  0.63047885243E+02  0.00000000000E+00 0. -1.
        -12    1    6    6    0    0  0.40897723324E+02 -0.19356579809E+02  0.95799848672E+02  0.10594768502E+03  0.00000000000E+00 0.  1.
</event>
<event>
12    1  0.8358445E-002  0.1836874E+03  0.7818608E-02  0.1164532E+00
         21   -1    0    0  503  502  0.00000000000E+00  0.00000000000E+00  0.16063079141E+03  0.16063079141E+03  0.00000000000E+00 0.  1.
         21   -1    0    0  501  503 -0.00000000000E+00 -0.00000000000E+00 -0.52311033697E+03  0.52311033697E+03  0.00000000000E+00 0.  1.
          6    2    1    2  501    0  0.62988599493E+02 -0.13600557864E+01 -0.44601048859E+03  0.48195289199E+03  0.17141709586E+03 0.  0.
         24    2    3    3    0    0  0.87004322489E+02  0.35460853780E+02 -0.22634777183E+03  0.25788519360E+03  0.80275992551E+02 0.  0.
         -6    2    1    2    0  502 -0.62988599493E+02  0.13600557864E+01  0.83530943030E+02  0.20178823639E+03  0.17254466229E+03 0.  0.
        -24    2    5    5    0    0  0.23942706941E+02 -0.42980653328E+02  0.44406651582E+02  0.96545893654E+02  0.70203768421E+02 0.  0.
          5    1    3    3  501    0 -0.24015722996E+02 -0.36820909566E+02 -0.21966271675E+03  0.22406769839E+03  0.47000000000E+01 0. -1.
        -13    1    4    4    0    0  0.65298683816E+02  0.35545344884E+02 -0.22404407133E+03  0.23605748357E+03  0.00000000000E+00 0.  1.
         14    1    4    4    0    0  0.21705638673E+02 -0.84491103574E-01 -0.23037005008E+01  0.21827710025E+02  0.00000000000E+00 0. -1.
         -5    1    5    5    0  502 -0.86931306434E+02  0.44340709114E+02  0.39124291448E+02  0.10524234274E+03  0.47000000000E+01 0.  1.
         11    1    6    6    0    0  0.22258713470E+02  0.15249771023E+02  0.18952994153E+02  0.32973047008E+02  0.00000000000E+00 0. -1.
        -12    1    6    6    0    0  0.16839934714E+01 -0.58230424351E+02  0.25453657429E+02  0.63572846646E+02  0.00000000000E+00 0.  1.
</event>
<event>
12    1  0.8358445E-002  0.1747821E+03  0.7818608E-02  0.1173001E+00
         21   -1    0    0  503  502  0.00000000000E+00  0.00000000000E+00  0.32594244387E+03  0.32594244387E+03  0.00000000000E+00 0.  1.
         21   -1    0    0  501  503 -0.00000000000E+00 -0.00000000000E+00 -0.93922055403E+02  0.93922055403E+02  0.00000000000E+00 0.  1.
          6    2    1    2  501    0  0.23139216178E+02  0.18506823406E+02  0.10410786882E+03  0.20343849027E+03  0.17225227179E+03 0.  0.
         24    2    3    3    0    0 -0.48469171739E+02 -0.12286884007E+02  0.80539674605E+02  0.12186911235E+03  0.76584680135E+02 0.  0.
         -6    2    1    2    0  502 -0.23139216178E+02 -0.18506823406E+02  0.12791251965E+03  0.21642600900E+03  0.17204847820E+03 0.  0.
        -24    2    5    5    0    0 -0.37928705783E+02 -0.67596396290E+02  0.12202811269E+03  0.16460679042E+03  0.78718966289E+02 0.  0.
          5    1    3    3  501    0  0.71608387917E+02  0.30793707413E+02  0.23568194212E+02  0.81569377923E+02  0.47000000000E+01 0. -1.
        -11    1    4    4    0    0 -0.55898181817E+02 -0.22238655612E+02  0.25320938495E+02  0.65271084411E+02  0.00000000000E+00 0.  1.
         12    1    4    4    0    0  0.74290100774E+01  0.99517716058E+01  0.55218736110E+02  0.56598027937E+02  0.00000000000E+00 0. -1.
         -5    1    5    5    0  502  0.14789489605E+02  0.49089572884E+02  0.58844069599E+01  0.51819218577E+02  0.47000000000E+01 0.  1.
         13    1    6    6    0    0 -0.31921890586E+02 -0.16464027312E+02  0.10404878480E+03  0.11007370673E+03  0.00000000000E+00 0. -1.
        -14    1    6    6    0    0 -0.60068151969E+01 -0.51132368978E+02  0.17979327885E+02  0.54533083695E+02  0.00000000000E+00 0.  1.
</event>
<event>
12    1  0.8358445E-002  0.1890541E+03  0.7818608E-02  0.1159497E+00
         21   -1    0    0  501  502  0.00000000000E+00  0.00000000000E+00  0.21602950376E+03  0.21602950376E+03  0.00000000000E+00 0.  1.
         21   -1    0    0  502  503 -0.00000000000E+00 -0.00000000000E+00 -0.18017796134E+03  0.18017796134E+03  0.00000000000E+00 0. -1.
         -6    2    1    2    0  503 -0.59123910060E+01 -0.76119637657E+02  0.75918087265E+02  0.20372778236E+03  0.17295172080E+03 0.  0.
        -24    2    3    3    0    0  0.75903137450E+01 -0.23898946990E+02  0.10748585580E+03  0.14105452188E+03  0.87831636756E+02 0.  0.
          6    2    1    2  501    0  0.59123910060E+01  0.76119637657E+02 -0.40066544838E+02  0.19247968274E+03  0.17208702638E+03 0.  0.
         24    2    5    5    0    0 -0.61405907849E+01  0.56465050772E+02  0.42601755172E+02  0.10652786495E+03  0.79418308047E+02 0.  0.
          5    1    5    5  501    0  0.12052981791E+02  0.19654586886E+02 -0.82668300010E+02  0.85951817795E+02  0.47000000000E+01 0. -1.
        -13    1    6    6    0    0 -0.31197215515E+01 -0.19863928414E+02  0.15804572683E+02  0.25575238656E+02  0.00000000000E+00 0.  1.
         14    1    6    6    0    0 -0.30208692334E+01  0.76328979186E+02  0.26797182488E+02  0.80952626293E+02  0.00000000000E+00 0. -1.
         -5    1    3    3    0  503 -0.13502704751E+02 -0.52220690667E+02 -0.31567768532E+02  0.62673260482E+02  0.47000000000E+01 0.  1.
         13    1    4    4    0    0 -0.36285033851E+02  0.41940075260E+01  0.28033042599E+02  0.46043944858E+02  0.00000000000E+00 0. -1.
        -14    1    4    4    0    0  0.43875347597E+02 -0.28092954516E+02  0.79452813198E+02  0.95010577017E+02  0.00000000000E+00 0.  1.
</event>
<event>
12    1  0.8358445E-002  0.1946647E+03  0.7818608E-02  0.1154323E+00
         21   -1    0    0  503  502  0.00000000000E+00  0.00000000000E+00  0.15462126110E+03  0.15462126110E+03  0.00000000000E+00 0. -1.
         21   -1    0    0  501  503 -0.00000000000E+00 -0.00000000000E+00 -0.28189837217E+03  0.28189837217E+03  0.00000000000E+00 0.  1.
          6    2    1    2  501    0 -0.51534185645E+02 -0.75060182642E+02 -0.14253688640E+03  0.24126978984E+03  0.17205971114E+03 0.  0.
         24    2    3    3    0    0 -0.26822271959E+02  0.14779142496E+02 -0.22651670277E+02  0.89360810303E+02  0.80835629061E+02 0.  0.
         -6    2    1    2    0  502  0.51534185645E+02  0.75060182642E+02  0.15259775334E+02  0.19524984343E+03  0.17204603252E+03 0.  0.
        -24    2    5    5    0    0  0.91068386326E+02  0.63535839465E+02  0.45364422387E+02  0.14402345098E+03  0.79715555125E+02 0.  0.
          5    1    3    3  501    0 -0.24711913685E+02 -0.89839325138E+02 -0.11988521613E+03  0.15190897954E+03  0.47000000000E+01 0. -1.
        -13    1    4    4    0    0  0.17622912710E+02  0.21868638825E+02 -0.32843122172E+02  0.43214292664E+02  0.00000000000E+00 0.  1.
         14    1    4    4    0    0 -0.44445184669E+02 -0.70894963290E+01  0.10191451895E+02  0.46146517639E+02  0.00000000000E+00 0. -1.
         -5    1    5    5    0  502 -0.39534200681E+02  0.11524343177E+02 -0.30104647053E+02  0.51226392449E+02  0.47000000000E+01 0.  1.
         11    1    6    6    0    0  0.13114193812E+02  0.51366184000E+02  0.37072949613E+02  0.64690575288E+02  0.00000000000E+00 0. -1.
        -12    1    6    6    0    0  0.77954192514E+02  0.12169655466E+02  0.82914727733E+01  0.79332875691E+02  0.00000000000E+00 0.  1.
</event>
<event>
12    1  0.8358445E-002  0.1873824E+03  0.7818608E-02  0.1161023E+00
         21   -1    0    0  501  502  0.00000000000E+00  0.00000000000E+00  0.54515877526E+03  0.54515877526E+03  0.00000000000E+00 0.  1.
         21   -1    0    0  502  503 -0.00000000000E+00 -0.00000000000E+00 -0.76748996648E+02  0.76748996648E+02  0.00000000000E+00 0.  1.
         -6    2    1    2    0  503 -0.69795692777E+02 -0.19465514010E+02  0.10857190268E+03  0.21656410867E+03  0.17280570056E+03 0.  0.
        -24    2    3    3    0    0  0.12986636030E+02 -0.37265064110E+02  0.94677634677E+02  0.13062879213E+03  0.80886890816E+02 0.  0.
          6    2    1    2  501    0  0.69795692777E+02  0.19465514010E+02  0.35983787594E+03  0.40534366324E+03  0.17195884218E+03 0.  0.
         24    2    5    5    0    0  0.59683851499E+02  0.48066222289E+02  0.35748023104E+03  0.37455570557E+03  0.81408458623E+02 0.  0.
          5    1    5    5  501    0  0.10111841278E+02 -0.28600708279E+02  0.23576448987E+01  0.30787957671E+02  0.47000000000E+01 0. -1.
        -11    1    6    6    0    0 -0.39838314903E+01  0.45910175887E+02  0.11611571841E+03  0.12492587892E+03  0.00000000000E+00 0.  1.
         12    1    6    6    0    0  0.63667682990E+02  0.21560464013E+01  0.24136451263E+03  0.24962982664E+03  0.00000000000E+00 0. -1.
         -5    1    3    3    0  503 -0.82782328807E+02  0.17799550100E+02  0.13894268001E+02  0.85935316545E+02  0.47000000000E+01 0.  1.
         13    1    4    4    0    0  0.24706766696E+02  0.75162657832E+01  0.65960733362E+00  0.25833188996E+02  0.00000000000E+00 0. -1.
        -14    1    4    4    0    0 -0.11720130666E+02 -0.44781329893E+02  0.94018027344E+02  0.10479560313E+03  0.00000000000E+00 0.  1.
</event>
<event>
12    1  0.8358445E-002  0.2511328E+03  0.7818608E-02  0.1112648E+00
         21   -1    0    0  503  502  0.00000000000E+00  0.00000000000E+00  0.16017527884E+03  0.16017527884E+03  0.00000000000E+00 0. -1.
         21   -1    0    0  501  503 -0.00000000000E+00 -0.00000000000E+00 -0.47035344942E+03  0.47035344942E+03  0.00000000000E+00 0. -1.
          6    2    1    2  501    0 -0.18275196692E+03  0.12350254613E+01 -0.27476511530E+02  0.25263141418E+03  0.17224362410E+03 0.  0.
         24    2    3    3    0    0 -0.73438736454E+02  0.43630240211E+02  0.29903120417E+02  0.12201269901E+03  0.81829433804E+02 0.  0.
         -6    2    1    2    0  502  0.18275196692E+03 -0.12350254613E+01 -0.28270165905E+03  0.37789731408E+03  0.17171588528E+03 0.  0.
        -24    2    5    5    0    0  0.10540815176E+03  0.63157997073E+02 -0.19116023731E+03  0.24177072231E+03  0.82528993588E+02 0.  0.
          5    1    3    3  501    0 -0.10931323047E+03 -0.42395214750E+02 -0.57379631947E+02  0.13061871516E+03  0.47000000000E+01 0. -1.
        -11    1    4    4    0    0 -0.89014898080E+01  0.37940179950E+02 -0.16502042118E+02  0.42320339903E+02  0.00000000000E+00 0.  1.
         12    1    4    4    0    0 -0.64537246646E+02  0.56900602605E+01  0.46405162535E+02  0.79692359109E+02  0.00000000000E+00 0. -1.
         -5    1    5    5    0  502  0.77343815156E+02 -0.64393022534E+02 -0.91541421744E+02  0.13612659178E+03  0.47000000000E+01 0.  1.
         13    1    6    6    0    0  0.64791331530E+02  0.17854393849E+02 -0.15971790666E+03  0.17328157932E+03  0.00000000000E+00 0. -1.
        -14    1    6    6    0    0  0.40616820233E+02  0.45303603224E+02 -0.31442330648E+02  0.68489142990E+02  0.00000000000E+00 0.  1.
</event>
<event>
12    1  0.8358445E-002  0.3280355E+03  0.7818608E-02  0.1072055E+00
         21   -1    0    0  503  502  0.00000000000E+00  0.00000000000E+00  0.73281549879E+03  0.73281549879E+03  0.00000000000E+00 0.  1.
         21   -1    0    0  501  503 -0.00000000000E+00 -0.00000000000E+00 -0.14909662359E+03  0.14909662359E+03  0.00000000000E+00 0. -1.
          6    2    1    2  501    0 -0.66758192132E+02 -0.27079549981E+03  0.23528388027E+03  0.40335777876E+03  0.17190734259E+03 0.  0.
         24    2    3    3    0    0 -0.53036706544E+02 -0.20868684864E+03  0.24967723824E+03  0.33797412277E+03  0.74328267371E+02 0.  0.
         -6    2    1    2    0  502  0.66758192132E+02  0.27079549981E+03  0.34843499493E+03  0.47855434362E+03  0.17268600165E+03 0.  0.
        -24    2    5    5    0    0  0.82342064791E+02  0.23241228101E+03  0.20865936009E+03  0.33269329101E+03  0.79689480679E+02 0.  0.
          5    1    3    3  501    0 -0.13721485588E+02 -0.62108651171E+02 -0.14393357969E+02  0.65383655991E+02  0.47000000000E+01 0. -1.
        -13    1    4    4    0    0 -0.67527392170E+02 -0.12358253413E+03  0.16683305169E+03  0.21832512125E+03  0.00000000000E+00 0.  1.
         14    1    4    4    0    0  0.14490685626E+02 -0.85104314509E+02  0.82844186553E+02  0.11964900152E+03  0.00000000000E+00 0. -1.
         -5    1    5    5    0  502 -0.15583872660E+02  0.38383218803E+02  0.13977563484E+03  0.14586105261E+03  0.47000000000E+01 0.  1.
         13    1    6    6    0    0  0.34849860054E+02  0.66835382110E+02  0.21609183359E+02  0.78411975189E+02  0.00000000000E+00 0. -1.
        -14    1    6    6    0    0  0.47492204738E+02  0.16557689890E+03  0.18705017673E+03  0.25428131582E+03  0.00000000000E+00 0.  1.
</event>
<event>
12    1  0.8358445E-002  0.2073592E+03  0.7818608E-02  0.1143683E+00
         21   -1    0    0  501  502  0.00000000000E+00  0.00000000000E+00  0.30839133360E+03  0.30839133360E+03  0.00000000000E+00 0. -1.
         21   -1    0    0  502  503 -0.00000000000E+00 -0.00000000000E+00 -0.40507799226E+03  0.40507799226E+03  0.00000000000E+00 0. -1.
         -6    2    1    2    0  503  0.26704135171E+02 -0.11177403712E+03 -0.33724695096E+03  0.39587354184E+03  0.17255088812E+03 0.  0.
        -24    2    3    3    0    0 -0.47142993504E+02 -0.75491889175E+02 -0.22797703963E+03  0.25900938951E+03  0.84798856633E+02 0.  0.
          6    2    1    2  501    0 -0.26704135171E+02  0.11177403712E+03  0.24056029230E+03  0.31759578402E+03  0.17260151095E+03 0.  0.
         24    2    5    5    0    0  0.15602305228E+02  0.54769388591E+02  0.21984426995E+03  0.24349714411E+03  0.87842121483E+02 0.  0.
          5    1    5    5  501    0 -0.42306440399E+02  0.57004648527E+02  0.20716022353E+02  0.74098639900E+02  0.47000000000E+01 0. -1.
        -11    1    6    6    0    0  0.45830687262E+02  0.12431017125E+02  0.67614086354E+02  0.82623524223E+02  0.00000000000E+00 0.  1.
         12    1    6    6    0    0 -0.30228382034E+02  0.42338371466E+02  0.15223018360E+03  0.16087361989E+03  0.00000000000E+00 0. -1.
         -5    1    3    3    0  503  0.73847128675E+02 -0.36282147943E+02 -0.10926991133E+03  0.13686415234E+03  0.47000000000E+01 0.  1.
         11    1    4    4    0    0 -0.28867573605E+02 -0.72681149646E+02 -0.22744190791E+03  0.24051134650E+03  0.00000000000E+00 0. -1.
        -12    1    4    4    0    0 -0.18275419898E+02 -0.28107395293E+01 -0.53513171721E+00  0.18498043007E+02  0.00000000000E+00 0.  1.
</event>
<event>
12    1  0.8358445E-002  0.1909536E+03  0.7818608E-02  0.1157664E+00
         21   -1    0    0  503  502  0.00000000000E+00  0.00000000000E+00  0.22212250400E+03  0.22212250400E+03  0.00000000000E+00 0. -1.
         21   -1    0    0  501  503 -0.00000000000E+00 -0.00000000000E+00 -0.37856240055E+03  0.37856240055E+03  0.00000000000E+00 0. -1.
          6    2    1    2  501    0 -0.69096032945E+02  0.48432176373E+02 -0.30439459590E+03  0.35933180803E+03  0.17129898066E+03 0.  0.
         24    2    3    3    0    0  0.15040473015E+02  0.47510387651E+02 -0.22307577788E+03  0.24222228027E+03  0.80158453192E+02 0.  0.
         -6    2    1    2    0  502  0.69096032945E+02 -0.48432176373E+02  0.14795469935E+03  0.24135309653E+03  0.17099937622E+03 0.  0.
        -24    2    5    5    0    0  0.30893353943E+02 -0.94525030121E+02  0.11777638019E+03  0.17414582909E+03  0.81031558177E+02 0.  0.
          5    1    3    3  501    0 -0.84136505960E+02  0.92178872249E+00 -0.81318818014E+02  0.11710952776E+03  0.47000000000E+01 0. -1.
        -13    1    4    4    0    0  0.18489886461E+02  0.16672230329E+02 -0.98884064967E+01  0.26788425645E+02  0.00000000000E+00 0.  1.
         14    1    4    4    0    0 -0.34494134466E+01  0.30838157321E+02 -0.21318737138E+03  0.21543385462E+03  0.00000000000E+00 0. -1.
         -5    1    5    5    0  502  0.38202679002E+02  0.46092853748E+02  0.30178319152E+02  0.67207267438E+02  0.47000000000E+01 0.  1.
         11    1    6    6    0    0 -0.15795354022E+02 -0.51828681613E+01  0.49955217194E+02  0.52648637741E+02  0.00000000000E+00 0. -1.
        -12    1    6    6    0    0  0.46688707965E+02 -0.89342161960E+02  0.67821162999E+02  0.12149719135E+03  0.00000000000E+00 0.  1.
</event>
<event>
12    1  0.8358445E-002  0.1734284E+03  0.7818608E-02  0.1174483E+00
         21   -1    0    0  503  502  0.00000000000E+00  0.00000000000E+00  0.21633217036E+03  0.21633217036E+03  0.00000000000E+00 0. -1.
         21   -1    0    0  501  503 -0.00000000000E+00 -0.00000000000E+00 -0.41151074968E+03  0.41151074968E+03  0.00000000000E+00 0. -1.
          6    2    1    2  501    0 -0.10169008586E+02 -0.20998185048E+02 -0.35333610653E+03  0.39360361986E+03  0.17185189228E+03 0.  0.
         24    2    3    3    0    0 -0.48332926991E+02 -0.40276309798E+01 -0.83522385623E+02  0.12053582908E+03  0.72115210247E+02 0.  0.
         -6    2    1    2    0  502  0.10169008586E+02  0.20998185048E+02  0.15815752720E+03  0.23423930018E+03  0.17120138383E+03 0.  0.
        -24    2    5    5    0    0 -0.40752044282E+02 -0.36348728043E+02  0.94720683452E+02  0.13460022545E+03  0.78506392572E+02 0.  0.
          5    1    3    3  501    0  0.38163918405E+02 -0.16970554068E+02 -0.26981372091E+03  0.27306779078E+03  0.47000000000E+01 0. -1.
        -11    1    4    4    0    0 -0.94384795665E+01 -0.28786457633E+02 -0.68354891244E+01  0.31055900424E+02  0.00000000000E+00 0.  1.
         12    1    4    4    0    0 -0.38894447424E+02  0.24758826653E+02 -0.76686896499E+02  0.89479928656E+02  0.00000000000E+00 0. -1.
         -5    1    5    5    0  502  0.50921052868E+02  0.57346913092E+02  0.63436843752E+02  0.99639074723E+02  0.47000000000E+01 0.  1.
         11    1    6    6    0    0 -0.58481318856E+02 -0.17049974790E+02  0.37162594422E+02  0.71357022918E+02  0.00000000000E+00 0. -1.
        -12    1    6    6    0    0  0.17729274574E+02 -0.19298753253E+02  0.57558089030E+02  0.63243202535E+02  0.00000000000E+00 0.  1.
</event>
<event>
12    1  0.8358445E-002  0.2335911E+03  0.7818608E-02  0.1124277E+00
         21   -1    0    0  503  502  0.00000000000E+00  0.00000000000E+00  0.24500168423E+03  0.24500168423E+03  0.00000000000E+00 0.  1.
         21   -1    0    0  501  503 -0.00000000000E+00 -0.00000000000E+00 -0.27355336367E+03  0.27355336367E+03  0.00000000000E+00 0.  1.
          6    2    1    2  501    0 -0.16581810924E+02 -0.15836127795E+03 -0.12687803265E+03  0.26511296012E+03  0.16980458076E+03 0.  0.
         24    2    3    3    0    0  0.31671460622E+01 -0.17512283249E+03 -0.80745531403E+02  0.21199734393E+03  0.88005657290E+02 0.  0.
         -6    2    1    2    0  502  0.16581810924E+02  0.15836127795E+03  0.98326353214E+02  0.25344208777E+03  0.17091392369E+03 0.  0.
        -24    2    5    5    0    0  0.57610498400E+02  0.16438438695E+03  0.82661715013E+02  0.20886516630E+03  0.80315019558E+02 0.  0.
          5    1    3    3  501    0 -0.19748956986E+02  0.16761554544E+02 -0.46132501247E+02  0.53115616198E+02  0.47000000000E+01 0. -1.
        -13    1    4    4    0    0  0.10036396832E+02 -0.15378275598E+03 -0.98929970801E+02  0.18313111265E+03  0.00000000000E+00 0.  1.
         14    1    4    4    0    0 -0.68692507694E+01 -0.21340076514E+02  0.18184439398E+02  0.28866231275E+02  0.00000000000E+00 0. -1.
         -5    1    5    5    0  502 -0.41028687476E+02 -0.60231089992E+01  0.15664638202E+02  0.44576921473E+02  0.47000000000E+01 0.  1.
         13    1    6    6    0    0 -0.20077748892E+02  0.25046048374E+02  0.10527420188E+02  0.33782349171E+02  0.00000000000E+00 0. -1.
        -14    1    6    6    0    0  0.77688247292E+02  0.13933833857E+03  0.72134294825E+02  0.17508281713E+03  0.00000000000E+00 0.  1.
</event>
<event>
12    1  0.8358445E-002  0.1989525E+03  0.7818608E-02  0.1150798E+00
         21   -1    0    0  501  502  0.00000000000E+00  0.00000000000E+00  0.12653535923E+03  0.12653535923E+03  0.00000000000E+00 0. -1.
         21   -1    0    0  502  503 -0.00000000000E+00 -0.00000000000E+00 -0.77610371844E+03  0.77610371844E+03  0.00000000000E+00 0. -1.
         -6    2    1    2    0  503 -0.76497745102E+02  0.61156026162E+02 -0.67422680870E+03  0.70296791321E+03  0.17317659454E+03 0.  0.
        -24    2    3    3    0    0 -0.10101432156E+03  0.66626622394E+02 -0.65555634721E+03  0.67131880459E+03  0.79194779227E+02 0.  0.
          6    2    1    2  501    0  0.76497745102E+02 -0.61156026162E+02  0.24658449482E+02  0.19967116446E+03  0.17224566829E+03 0.  0.
         24    2    5    5    0    0  0.11736635246E+03 -0.35433378443E+02  0.30367355926E+01  0.14655350087E+03  0.80239154144E+02 0.  0.
          5    1    5    5  501    0 -0.40868607358E+02 -0.25722647719E+02  0.21621713890E+02  0.53117663584E+02  0.47000000000E+01 0. -1.
        -11    1    6    6    0    0  0.84279321771E+02 -0.39199728113E+02 -0.31916456925E+02  0.98276563763E+02  0.00000000000E+00 0.  1.
         12    1    6    6    0    0  0.33087030689E+02  0.37663496701E+01  0.34953192518E+02  0.48276937112E+02  0.00000000000E+00 0. -1.
         -5    1    3    3    0  503  0.24516576459E+02 -0.54705962318E+01 -0.18670461488E+02  0.31649108623E+02  0.47000000000E+01 0.  1.
         13    1    4    4    0    0 -0.48410907751E+02 -0.47120961939E+01 -0.34321526895E+03  0.34664468939E+03  0.00000000000E+00 0. -1.
        -14    1    4    4    0    0 -0.52603413810E+02  0.71338718588E+02 -0.31234107826E+03  0.32467411520E+03  0.00000000000E+00 0.  1.
</event>
<event>
12    1  0.8358445E-002  0.2059441E+03  0.7818608E-02  0.1146879E+00
         21   -1    0    0  503  502  0.00000000000E+00  0.00000000000E+00  0.82787801505E+03  0.82787801505E+03  0.00000000000E+00 0.  1.
         21   -1    0    0  501  503 -0.00000000000E+00 -0.00000000000E+00 -0.52773368130E+02  0.52773368130E+02  0.00000000000E+00 0. -1.
          6    2    1    2  501    0  0.67503494785E+02  0.68915355342E+02  0.51711999541E+03  0.55662022094E+03  0.18195310577E+03 0.  0.
         24    2    3    3    0    0  0.41510813843E+02 -0.15500727910E+02  0.39073909979E+03  0.40236097372E+03  0.85169764824E+02 0.  0.
         -6    2    1    2    0  502 -0.67503494785E+02 -0.68915355342E+02  0.25798465151E+03  0.32403116224E+03  0.17068704016E+03 0.  0.
        -24    2    5    5    0    0 -0.23473485699E+02 -0.93829396559E+02  0.10569080317E+03  0.16348566280E+03  0.78753132478E+02 0.  0.
          5    1    3    3  501    0  0.25992680941E+02  0.84416083252E+02  0.12638089562E+03  0.15425924721E+03  0.47000000000E+01 0. -1.
        -11    1    4    4    0    0 -0.14748888286E+02 -0.22388308803E+02  0.23690769786E+03  0.23841984687E+03  0.00000000000E+00 0.  1.
         12    1    4    4    0    0  0.56259702129E+02  0.68875808933E+01  0.15383140193E+03  0.16394112685E+03  0.00000000000E+00 0. -1.
         -5    1    5    5    0  502 -0.44030009086E+02  0.24914041217E+02  0.15229384834E+03  0.16054549945E+03  0.47000000000E+01 0.  1.
         13    1    6    6    0    0  0.84858986438E+01 -0.45310437683E+02  0.93319033400E+02  0.10408404409E+03  0.00000000000E+00 0. -1.
        -14    1    6    6    0    0 -0.31959384343E+02 -0.48518958876E+02  0.12371769773E+02  0.59401618710E+02  0.00000000000E+00 0.  1.
</event>
<event>
12    1  0.8358445E-002  0.3519066E+03  0.7818608E-02  0.1061839E+00
         21   -1    0    0  501  502  0.00000000000E+00  0.00000000000E+00  0.21482212540E+03  0.21482212540E+03  0.00000000000E+00 0.  1.
         21   -1    0    0  502  503 -0.00000000000E+00 -0.00000000000E+00 -0.62267116344E+03  0.62267116344E+03  0.00000000000E+00 0.  1.
         -6    2    1    2    0  503  0.28316864765E+03  0.11838397981E+03 -0.31808098501E+03  0.47435614336E+03  0.17215977470E+03 0.  0.
        -24    2    3    3    0    0  0.25556910411E+03  0.85024655127E+02 -0.19155926124E+03  0.34054875966E+03  0.82059418586E+02 0.  0.
          6    2    1    2  501    0 -0.28316864765E+03 -0.11838397981E+03 -0.89768053026E+02  0.36313714549E+03  0.17207856752E+03 0.  0.
         24    2    5    5    0    0 -0.11622240675E+03 -0.10899785962E+03 -0.81287635085E+02  0.19564638726E+03  0.79256848253E+02 0.  0.
          5    1    5    5  501    0 -0.16694624090E+03 -0.93861201822E+01 -0.84804179403E+01  0.16749075823E+03  0.47000000000E+01 0. -1.
        -13    1    6    6    0    0 -0.87193646301E+02 -0.69214618924E+02 -0.92959558068E+02  0.14503404726E+03  0.00000000000E+00 0.  1.
         14    1    6    6    0    0 -0.29028760450E+02 -0.39783240700E+02  0.11671922983E+02  0.50612339997E+02  0.00000000000E+00 0. -1.
         -5    1    3    3    0  503  0.27599543540E+02  0.33359324678E+02 -0.12652172377E+03  0.13380738370E+03  0.47000000000E+01 0.  1.
         11    1    4    4    0    0  0.53760942910E+02 -0.14089893693E+02 -0.50746550405E+02  0.75259394529E+02  0.00000000000E+00 0. -1.
        -12    1    4    4    0    0  0.20180816120E+03  0.99114548820E+02 -0.14081271084E+03  0.26528936513E+03  0.00000000000E+00 0.  1.
</event>
<event>
12    1  0.8358445E-002  0.1858681E+03  0.7818608E-02  0.1164836E+00
         21   -1    0    0  501  502  0.00000000000E+00  0.00000000000E+00  0.85921323003E+02  0.85921323003E+02  0.00000000000E+00 0.  1.
         21   -1    0    0  502  503 -0.00000000000E+00 -0.00000000000E+00 -0.73552989693E+03  0.73552989693E+03  0.00000000000E+00 0. -1.
         -6    2    1    2    0  503  0.18112388273E+02 -0.68063654232E+02 -0.60567473742E+03  0.63046130684E+03  0.16024622377E+03 0.  0.
        -24    2    3    3    0    0  0.26113537570E+02  0.19316802288E+02 -0.21371491192E+03  0.22877242551E+03  0.74884600575E+02 0.  0.
          6    2    1    2  501    0 -0.18112388273E+02  0.68063654232E+02 -0.43933836500E+02  0.19098991309E+03  0.17200652684E+03 0.  0.
         24    2    5    5    0    0 -0.60097208212E+02  0.19071542690E+02  0.15737199067E+02  0.10298039892E+03  0.79886825899E+02 0.  0.
          5    1    5    5  501    0  0.41984819938E+02  0.48992111542E+02 -0.59671035568E+02  0.88009514169E+02  0.47000000000E+01 0. -1.
        -13    1    6    6    0    0  0.13705429496E+02  0.17940830515E+02  0.18393966669E+02  0.29121301603E+02  0.00000000000E+00 0.  1.
         14    1    6    6    0    0 -0.73802637708E+02  0.11307121757E+01 -0.26567676012E+01  0.73859097319E+02  0.00000000000E+00 0. -1.
         -5    1    3    3    0  503 -0.80011492964E+01 -0.87380456520E+02 -0.39195982550E+03  0.40168888133E+03  0.47000000000E+01 0.  1.
         11    1    4    4    0    0  0.15169743294E+02  0.21435825838E+00 -0.20424360152E+03  0.20480628853E+03  0.00000000000E+00 0. -1.
        -12    1    4    4    0    0  0.10943794276E+02  0.19102444030E+02 -0.94713104011E+01  0.23966136981E+02  0.00000000000E+00 0.  1.
</event>
<event>
12    1  0.8358445E-002  0.1991880E+03  0.7818608E-02  0.1150694E+00
         21   -1    0    0  503  502  0.00000000000E+00  0.00000000000E+00  0.12406913729E+04  0.12406913729E+04  0.00000000000E+00 0. -1.
         21   -1    0    0  501  503 -0.00000000000E+00 -0.00000000000E+00 -0.14843996419E+03  0.14843996419E+03  0.00000000000E+00 0.  1.
          6    2    1    2  501    0  0.77194609449E+02  0.62527104306E+02 -0.69994568323E+02  0.20994026374E+03  0.17119295618E+03 0.  0.
         24    2    3    3    0    0  0.56853827909E+02  0.25494504937E+01 -0.10083285983E+03  0.13934170445E+03  0.77524109358E+02 0.  0.
         -6    2    1    2    0  502 -0.77194609449E+02 -0.62527104306E+02  0.11622459771E+04  0.11791910734E+04  0.17264770435E+03 0.  0.
        -24    2    5    5    0    0  0.13833430122E+02 -0.27405922129E+02  0.78080156385E+03  0.78543793777E+03  0.79493544513E+02 0.  0.
          5    1    3    3  501    0  0.20340781540E+02  0.59977653812E+02  0.30838291510E+02  0.70598559289E+02  0.47000000000E+01 0. -1.
        -13    1    4    4    0    0 -0.19087441152E+01 -0.13804572416E+01 -0.74990587719E+02  0.75027576349E+02  0.00000000000E+00 0.  1.
         14    1    4    4    0    0  0.58762572024E+02  0.39299077353E+01 -0.25842272115E+02  0.64314128104E+02  0.00000000000E+00 0. -1.
         -5    1    5    5    0  502 -0.91028039570E+02 -0.35121182177E+02  0.38144441324E+03  0.39375313562E+03  0.47000000000E+01 0.  1.
         13    1    6    6    0    0 -0.33243811206E+02 -0.80967338951E+01  0.33427840450E+03  0.33602493925E+03  0.00000000000E+00 0. -1.
        -14    1    6    6    0    0  0.47077241328E+02 -0.19309188234E+02  0.44652315935E+03  0.44941299851E+03  0.00000000000E+00 0.  1.
</event>
<event>
12    1  0.8358445E-002  0.2359510E+03  0.7818608E-02  0.1122826E+00
         21   -1    0    0  501  502  0.00000000000E+00  0.00000000000E+00  0.14250917474E+03  0.14250917474E+03  0.00000000000E+00 0.  1.
         21   -1    0    0  502  503 -0.00000000000E+00 -0.00000000000E+00 -0.41846286736E+03  0.41846286736E+03  0.00000000000E+00 0. -1.
         -6    2    1    2    0  503  0.45304431734E+02  0.15249726080E+03 -0.21353722404E+03  0.31690504119E+03  0.17182186414E+03 0.  0.
        -24    2    3    3    0    0  0.26964561032E+02  0.96090667326E+01 -0.47105398025E+02  0.96734585473E+02  0.79493646214E+02 0.  0.
          6    2    1    2  501    0 -0.45304431734E+02 -0.15249726080E+03 -0.62416468588E+02  0.24406700091E+03  0.17425550005E+03 0.  0.
         24    2    5    5    0    0  0.33666912277E+02 -0.60238024378E+02 -0.62160183824E+02  0.12253348470E+03  0.79928004212E+02 0.  0.
          5    1    5    5  501    0 -0.78971344010E+02 -0.92259236423E+02 -0.25628476390E+00  0.12153351621E+03  0.47000000000E+01 0. -1.
        -13    1    6    6    0    0  0.19079601397E+02  0.41458655288E+01  0.12258257415E+02  0.23053942511E+02  0.00000000000E+00 0.  1.
         14    1    6    6    0    0  0.14587310879E+02 -0.64383889907E+02 -0.74418441239E+02  0.99479542192E+02  0.00000000000E+00 0. -1.
         -5    1    3    3    0  503  0.18339870702E+02  0.14288819407E+03 -0.16643182601E+03  0.22017045572E+03  0.47000000000E+01 0.  1.
         11    1    4    4    0    0  0.18764831160E+02 -0.26307836708E+02 -0.50267419986E+02  0.59758134783E+02  0.00000000000E+00 0. -1.
        -12    1    4    4    0    0  0.81997298725E+01  0.35916903441E+02  0.31620219609E+01  0.36976450690E+02  0.00000000000E+00 0.  1.
</event>
<event>
12    1  0.8358445E-002  0.2767677E+03  0.7818608E-02  0.1097496E+00
         21   -1    0    0  503  502  0.00000000000E+00  0.00000000000E+00  0.32425238121E+03  0.32425238121E+03  0.00000000000E+00 0.  1.
         21   -1    0    0  501  503 -0.00000000000E+00 -0.00000000000E+00 -0.76647618087E+03  0.76647618087E+03  0.00000000000E+00 0.  1.
          6    2    1    2  501    0  0.20498887444E+03 -0.70261387639E+02 -0.67476232717E+03  0.72923922235E+03  0.17183871510E+03 0.  0.
         24    2    3    3    0    0  0.14213556964E+03 -0.16040532183E+02 -0.58065744925E+03  0.60366750126E+03  0.82410920814E+02 0.  0.
         -6    2    1    2    0  502 -0.20498887444E+03  0.70261387639E+02  0.23253852751E+03  0.36148933973E+03  0.17217222402E+03 0.  0.
        -24    2    5    5    0    0 -0.15663719957E+03  0.30962172061E+02  0.23914923606E+03  0.29865539767E+03  0.80677264805E+02 0.  0.
          5    1    3    3  501    0  0.62853304804E+02 -0.54220855456E+02 -0.94104877919E+02  0.12557172110E+03  0.47000000000E+01 0. -1.
        -13    1    4    4    0    0  0.10711991181E+03  0.24708724823E+02 -0.42547408210E+03  0.43944668747E+03  0.00000000000E+00 0.  1.
         14    1    4    4    0    0  0.35015657828E+02 -0.40749257005E+02 -0.15518336715E+03  0.16422081378E+03  0.00000000000E+00 0. -1.
         -5    1    5    5    0  502 -0.48351674871E+02  0.39299215578E+02 -0.66107085525E+01  0.62833942065E+02  0.47000000000E+01 0.  1.
         13    1    6    6    0    0 -0.79327416097E+02 -0.22212152771E+02  0.13774737268E+03  0.16050095749E+03  0.00000000000E+00 0. -1.
        -14    1    6    6    0    0 -0.77309783474E+02  0.53174324832E+02  0.10140186339E+03  0.13815444018E+03  0.00000000000E+00 0.  1.
</event>
<event>
12    1  0.8358445E-002  0.1828620E+03  0.7818608E-02  0.1165276E+00
         21   -1    0    0  503  502  0.00000000000E+00  0.00000000000E+00  0.24565227808E+03  0.24565227808E+03  0.00000000000E+00 0. -1.
         21   -1    0    0  501  503 -0.00000000000E+00 -0.00000000000E+00 -0.35489327214E+03  0.35489327214E+03  0.00000000000E+00 0. -1.
          6    2    1    2  501    0 -0.42546069182E+02  0.41100380437E+02 -0.29078911189E+03  0.34350663482E+03  0.17302916314E+03 0.  0.
         24    2    3    3    0    0  0.36065966548E+02  0.44899158726E+02 -0.11815436186E+03  0.15371957047E+03  0.79702978114E+02 0.  0.
         -6    2    1    2    0  502  0.42546069182E+02 -0.41100380437E+02  0.18154811783E+03  0.25703891541E+03  0.17207520354E+03 0.  0.
        -24    2    5    5    0    0  0.95349373700E+02 -0.18630019499E+02  0.13173684618E+03  0.18090509328E+03  0.77029055826E+02 0.  0.
          5    1    3    3  501    0 -0.78612035730E+02 -0.37987782885E+01 -0.17263475003E+03  0.18978706435E+03  0.47000000000E+01 0. -1.
        -13    1    4    4    0    0  0.19536665533E+02 -0.13584054675E+02 -0.36322600470E+01  0.24070753096E+02  0.00000000000E+00 0.  1.
         14    1    4    4    0    0  0.16529301015E+02  0.58483213400E+02 -0.11452210181E+03  0.12964881737E+03  0.00000000000E+00 0. -1.
         -5    1    5    5    0  502 -0.52803304518E+02 -0.22470360938E+02  0.49811271645E+02  0.76133822127E+02  0.47000000000E+01 0.  1.
         13    1    6    6    0    0 -0.10739684187E+02 -0.14194522386E+02  0.18491077735E+02  0.25666032767E+02  0.00000000000E+00 0. -1.
        -14    1    6    6    0    0  0.10608905789E+03 -0.44354971126E+01  0.11324576845E+03  0.15523906051E+03  0.00000000000E+00 0.  1.
</event>
<event>
12    1  0.8358445E-002  0.1995346E+03  0.7818608E-02  0.1150386E+00
         21   -1    0    0  503  502  0.00000000000E+00  0.00000000000E+00  0.51845025322E+03  0.51845025322E+03  0.00000000000E+00 0.  1.
         21   -1    0    0  501  503 -0.00000000000E+00 -0.00000000000E+00 -0.98263478623E+02  0.98263478623E+02  0.00000000000E+00 0. -1.
          6    2    1    2  501    0 -0.79190075255E+02 -0.52554923763E+02  0.64916967776E+02  0.20982916331E+03  0.17544508269E+03 0.  0.
         24    2    3    3    0    0 -0.17194284511E+02  0.37173368881E+02  0.28191399594E+02  0.94653202587E+02  0.80541734369E+02 0.  0.
         -6    2    1    2    0  502  0.79190075255E+02  0.52554923763E+02  0.35526980682E+03  0.40688456853E+03  0.17408425672E+03 0.  0.
        -24    2    5    5    0    0  0.12252698166E+03  0.32598535361E+02  0.28979659050E+03  0.32573546533E+03  0.77756052934E+02 0.  0.
          5    1    3    3  501    0 -0.61995790744E+02 -0.89728292644E+02  0.36725568182E+02  0.11517596073E+03  0.47000000000E+01 0. -1.
        -11    1    4    4    0    0 -0.31665357487E+02  0.57285828099E+02  0.22654498314E+02  0.69264617660E+02  0.00000000000E+00 0.  1.
         12    1    4    4    0    0  0.14471072975E+02 -0.20112459217E+02  0.55369012807E+01  0.25388584928E+02  0.00000000000E+00 0. -1.
         -5    1    5    5    0  502 -0.43336906401E+02  0.19956388402E+02  0.65473216314E+02  0.81149103193E+02  0.47000000000E+01 0.  1.
         11    1    6    6    0    0  0.53563724960E+02 -0.21355610825E+02  0.82013320565E+02  0.10025626911E+03  0.00000000000E+00 0. -1.
        -12    1    6    6    0    0  0.68963256696E+02  0.53954146187E+02  0.20778326994E+03  0.22547919623E+03  0.00000000000E+00 0.  1.
</event>
<event>
12    1  0.8358445E-002  0.1961672E+03  0.7818608E-02  0.1153208E+00
         21   -1    0    0  503  502  0.00000000000E+00  0.00000000000E+00  0.41288281368E+03  0.41288281368E+03  0.00000000000E+00 0.  1.
         21   -1    0    0  501  503 -0.00000000000E+00 -0.00000000000E+00 -0.11843067240E+03  0.11843067240E+03  0.00000000000E+00 0.  1.
          6    2    1    2  501    0 -0.71691950489E+02  0.61912133644E+02  0.23848333377E+02  0.19761154753E+03  0.17178106024E+03 0.  0.
         24    2    3    3    0    0  0.21433711483E+02  0.32872388246E+02 -0.19258144569E+02  0.90859713023E+02  0.79653081682E+02 0.  0.
         -6    2    1    2    0  502  0.71691950489E+02 -0.61912133644E+02  0.27060380790E+03  0.33370193855E+03  0.17075630261E+03 0.  0.
        -24    2    5    5    0    0  0.10722816882E+03 -0.18980935839E+02  0.16128628235E+03  0.21090811968E+03  0.81306912126E+02 0.  0.
          5    1    3    3  501    0 -0.93125661972E+02  0.29039745398E+02  0.43106477947E+02  0.10675183451E+03  0.47000000000E+01 0. -1.
        -11    1    4    4    0    0 -0.15349977267E+02  0.34872250065E+02 -0.34111519834E+02  0.51139919946E+02  0.00000000000E+00 0.  1.
         12    1    4    4    0    0  0.36783688750E+02 -0.19998618190E+01  0.14853375265E+02  0.39719793077E+02  0.00000000000E+00 0. -1.
         -5    1    5    5    0  502 -0.35536218335E+02 -0.42931197804E+02  0.10931752555E+03  0.12279381887E+03  0.47000000000E+01 0.  1.
         13    1    6    6    0    0  0.18301804758E+02 -0.42300465640E+01 -0.69627709200E+01  0.20033210682E+02  0.00000000000E+00 0. -1.
        -14    1    6    6    0    0  0.88926364066E+02 -0.14750889275E+02  0.16824905327E+03  0.19087490900E+03  0.00000000000E+00 0.  1.
</event>
<event>
12    1  0.8358445E-002  0.1921042E+03  0.7818608E-02  0.1161140E+00
         21   -1    0    0  501  502  0.00000000000E+00  0.00000000000E+00  0.16602083215E+03  0.16602083215E+03  0.00000000000E+00 0. -1.
         21   -1    0    0  502  503 -0.00000000000E+00 -0.00000000000E+00 -0.66427573653E+03  0.66427573653E+03  0.00000000000E+00 0.  1.
         -6    2    1    2    0  503 -0.72777799587E+02  0.43490808549E+02 -0.59989270029E+03  0.62990099312E+03  0.17238315094E+03 0.  0.
        -24    2    3    3    0    0 -0.14272074047E+01  0.75817803830E+02 -0.26276902001E+03  0.28376459308E+03  0.75659831534E+02 0.  0.
          6    2    1    2  501    0  0.72777799587E+02 -0.43490808549E+02  0.10163779591E+03  0.20039557556E+03  0.15046623079E+03 0.  0.
         24    2    5    5    0    0  0.53669763990E+02  0.21778293435E+02  0.87842419912E+02  0.13084289699E+03  0.77774258753E+02 0.  0.
          5    1    5    5  501    0  0.19108035597E+02 -0.65269101984E+02  0.13795375994E+02  0.69552678575E+02  0.47000000000E+01 0. -1.
        -13    1    6    6    0    0  0.42517716600E+02 -0.20855815487E+02  0.23530655695E+02  0.52881121603E+02  0.00000000000E+00 0.  1.
         14    1    6    6    0    0  0.11152047389E+02  0.42634108922E+02  0.64311764217E+02  0.77961775385E+02  0.00000000000E+00 0. -1.
         -5    1    3    3    0  503 -0.71350592182E+02 -0.32326995282E+02 -0.33712368028E+03  0.34613640004E+03  0.47000000000E+01 0.  1.
         11    1    4    4    0    0  0.26042889431E+02 -0.35455323383E-01 -0.75211701132E+02  0.79592922639E+02  0.00000000000E+00 0. -1.
        -12    1    4    4    0    0 -0.27470096835E+02  0.75853259154E+02 -0.18755731888E+03  0.20417167044E+03  0.00000000000E+00 0.  1.
</event>
<event>
12    1  0.8358445E-002  0.2745967E+03  0.7818608E-02  0.1098754E+00
         21   -1    0    0  501  502  0.00000000000E+00  0.00000000000E+00  0.22794266431E+03  0.22794266431E+03  0.00000000000E+00 0. -1.
         21   -1    0    0  502  503 -0.00000000000E+00 -0.00000000000E+00 -0.33064073103E+03  0.33064073103E+03  0.00000000000E+00 0. -1.
         -6    2    1    2    0  503  0.20239914578E+03  0.67267409095E+02 -0.40405375303E+02  0.27700972706E+03  0.17207985354E+03 0.  0.
        -24    2    3    3    0    0  0.18813098149E+03  0.84906181821E+01  0.80246109910E-03  0.20411911818E+03  0.78735364412E+02 0.  0.
          6    2    1    2  501    0 -0.20239914578E+03 -0.67267409095E+02 -0.62292691425E+02  0.28157366828E+03  0.17295384564E+03 0.  0.
         24    2    5    5    0    0 -0.46875398647E+02 -0.44859232998E+02 -0.69713457870E+02  0.12419857478E+03  0.79722430877E+02 0.  0.
          5    1    5    5  501    0 -0.15552374714E+03 -0.22408176097E+02  0.74207664445E+01  0.15737509350E+03  0.47000000000E+01 0. -1.
        -13    1    6    6    0    0 -0.38318111363E+02  0.12146650327E+02 -0.47979813150E+02  0.62592980777E+02  0.00000000000E+00 0.  1.
         14    1    6    6    0    0 -0.85572872837E+01 -0.57005883325E+02 -0.21733644719E+02  0.61605594000E+02  0.00000000000E+00 0. -1.
         -5    1    3    3    0  503  0.14268164290E+02  0.58776790913E+02 -0.40406177764E+02  0.72890608885E+02  0.47000000000E+01 0.  1.
         11    1    4    4    0    0  0.10837778369E+03  0.38061285872E+01 -0.38965008130E+02  0.11523238465E+03  0.00000000000E+00 0. -1.
        -12    1    4    4    0    0  0.79753197803E+02  0.46844895949E+01  0.38965810591E+02  0.88886733530E+02  0.00000000000E+00 0.  1.
</event>
<event>
12    1  0.8358445E-002  0.3932291E+03  0.7818608E-02  0.1046557E+00
         21   -1    0    0  501  502  0.00000000000E+00  0.00000000000E+00  0.55473903322E+03  0.55473903322E+03  0.00000000000E+00 0. -1.
         21   -1    0    0  502  503 -0.00000000000E+00 -0.00000000000E+00 -0.47708969702E+03  0.47708969702E+03  0.00000000000E+00 0.  1.
         -6    2    1    2    0  503  0.27152718041E+03  0.22633510971E+03 -0.29639532036E+03  0.49242186596E+03  0.17226292857E+03 0.  0.
        -24    2    3    3    0    0  0.22859517773E+03  0.10311449369E+03 -0.18856532350E+03  0.32308233930E+03  0.77051688182E+02 0.  0.
          6    2    1    2  501    0 -0.27152718041E+03 -0.22633510971E+03  0.37404465656E+03  0.53940686428E+03  0.16154184764E+03 0.  0.
         24    2    5    5    0    0 -0.16664819797E+03 -0.15778836579E+03  0.16146183687E+03  0.29260369921E+03  0.82934973088E+02 0.  0.
          5    1    5    5  501    0 -0.10487898244E+03 -0.68546743924E+02  0.21258281969E+03  0.24680316507E+03  0.47000000000E+01 0. -1.
        -13    1    6    6    0    0 -0.28873679650E+02  0.31236249700E+01  0.55267973422E+01  0.29563353976E+02  0.00000000000E+00 0.  1.
         14    1    6    6    0    0 -0.13777451832E+03 -0.16091199076E+03  0.15593503953E+03  0.26304034523E+03  0.00000000000E+00 0. -1.
         -5    1    3    3    0  503  0.42932002677E+02  0.12322061602E+03 -0.10782999686E+03  0.16933952666E+03  0.47000000000E+01 0.  1.
         11    1    4    4    0    0  0.34848120682E+02 -0.12138274925E+02 -0.27447730926E+02  0.45990294261E+02  0.00000000000E+00 0. -1.
        -12    1    4    4    0    0  0.19374705705E+03  0.11525276862E+03 -0.16111759257E+03  0.27709204504E+03  0.00000000000E+00 0.  1.
</event>
<event>
12    1  0.8358445E-002  0.1876892E+03  0.7818608E-02  0.1160775E+00
         21   -1    0    0  503  502  0.00000000000E+00  0.00000000000E+00  0.74438143835E+02  0.74438143835E+02  0.00000000000E+00 0. -1.
         21   -1    0    0  501  503 -0.00000000000E+00 -0.00000000000E+00 -0.49153335070E+03  0.49153335070E+03  0.00000000000E+00 0. -1.
          6    2    1    2  501    0  0.15982425724E+02  0.74340407807E+02 -0.15008381796E+03  0.23959395395E+03  0.17058187534E+03 0.  0.
         24    2    3    3    0    0 -0.64484141661E+01 -0.24255279233E+02 -0.42589901866E+02  0.91941374980E+02  0.77520423607E+02 0.  0.
         -6    2    1    2    0  502 -0.15982425724E+02 -0.74340407807E+02 -0.26701138891E+03  0.32637754058E+03  0.17159627917E+03 0.  0.
        -24    2    5    5    0    0 -0.67769329103E+02 -0.52576681340E+02 -0.11521028897E+03  0.16444790434E+03  0.80079417887E+02 0.  0.
          5    1    3    3  501    0  0.22430839890E+02  0.98595687040E+02 -0.10749391609E+03  0.14765257897E+03  0.47000000000E+01 0. -1.
        -13    1    4    4    0    0  0.26773106880E+02 -0.90223131946E+01 -0.47296367392E+02  0.55092175087E+02  0.00000000000E+00 0.  1.
         14    1    4    4    0    0 -0.33221521047E+02 -0.15232966038E+02  0.47064655254E+01  0.36849199892E+02  0.00000000000E+00 0. -1.
         -5    1    5    5    0  502  0.51786903379E+02 -0.21763726468E+02 -0.15180109994E+03  0.16192963625E+03  0.47000000000E+01 0.  1.
         13    1    6    6    0    0 -0.28411297062E+02 -0.30686852820E+00 -0.89915612553E+02  0.94298002895E+02  0.00000000000E+00 0. -1.
        -14    1    6    6    0    0 -0.39358032041E+02 -0.52269812811E+02 -0.25294676414E+02  0.70149901442E+02  0.00000000000E+00 0.  1.
</event>
<event>
12    1  0.8358445E-002  0.1972023E+03  0.7818608E-02  0.1152809E+00
         21   -1    0    0  501  502  0.00000000000E+00  0.00000000000E+00  0.51016171613E+02  0.51016171613E+02  0.00000000000E+00 0.  1.
         21   -1    0    0  502  503 -0.00000000000E+00 -0.00000000000E+00 -0.75257319138E+03  0.75257319138E+03  0.00000000000E+00 0.  1.
         -6    2    1    2    0  503  0.42189988013E+02 -0.86516576799E+02 -0.37685734207E+03  0.42533538591E+03  0.17211513905E+03 0.  0.
        -24    2    3    3    0    0 -0.28320575546E+02 -0.34135272700E+02 -0.98040788830E+02  0.13297208290E+03  0.78117262586E+02 0.  0.
          6    2    1    2  501    0 -0.42189988013E+02  0.86516576799E+02 -0.32469967770E+03  0.37825397708E+03  0.16846684341E+03 0.  0.
         24    2    5    5    0    0 -0.36078783524E+02  0.78856634290E+02 -0.33984281249E+03  0.35961460824E+03  0.79432247028E+02 0.  0.
          5    1    5    5  501    0 -0.61112044885E+01  0.76599425089E+01  0.15143134787E+02  0.18639368839E+02  0.47000000000E+01 0. -1.
        -13    1    6    6    0    0 -0.50503233300E+02  0.22475183092E+02 -0.11867126420E+03  0.13091439713E+03  0.00000000000E+00 0.  1.
         14    1    6    6    0    0  0.14424449776E+02  0.56381451198E+02 -0.22117154828E+03  0.22870021111E+03  0.00000000000E+00 0. -1.
         -5    1    3    3    0  503  0.70510563559E+02 -0.52381304099E+02 -0.27881655323E+03  0.29236330302E+03  0.47000000000E+01 0.  1.
         11    1    4    4    0    0  0.58309554271E+01  0.22669007856E+02 -0.22357577881E+02  0.32368893202E+02  0.00000000000E+00 0. -1.
        -12    1    4    4    0    0 -0.34151530973E+02 -0.56804280556E+02 -0.75683210949E+02  0.10060318970E+03  0.00000000000E+00 0.  1.
</event>
<event>
12    1  0.8358445E-002  0.1749833E+03  0.7818608E-02  0.1173898E+00
         21   -1    0    0  501  502  0.00000000000E+00  0.00000000000E+00  0.26943125149E+03  0.26943125149E+03  0.00000000000E+00 0.  1.
         21   -1    0    0  502  503 -0.00000000000E+00 -0.00000000000E+00 -0.11127839924E+03  0.11127839924E+03  0.00000000000E+00 0.  1.
         -6    2    1    2    0  503 -0.12794189911E+02  0.24150028827E+02  0.64692666666E+02  0.18233130766E+03  0.16826363078E+03 0.  0.
        -24    2    3    3    0    0  0.17937520494E+02 -0.38224803745E+02  0.14048131005E+01  0.88190454830E+02  0.77412483234E+02 0.  0.
          6    2    1    2  501    0  0.12794189911E+02 -0.24150028827E+02  0.93460185586E+02  0.19837834307E+03  0.17283589187E+03 0.  0.
         24    2    5    5    0    0  0.30658382200E+02 -0.72094455112E+02  0.92277601331E+02  0.14698490104E+03  0.83377806212E+02 0.  0.
          5    1    5    5  501    0 -0.17864192289E+02  0.47944426285E+02  0.11825842552E+01  0.51393442028E+02  0.47000000000E+01 0. -1.
        -13    1    6    6    0    0  0.56527134757E+02 -0.33903060246E+02  0.39306920925E+02  0.76744827125E+02  0.00000000000E+00 0.  1.
         14    1    6    6    0    0 -0.25868752556E+02 -0.38191394866E+02  0.52970680406E+02  0.70240073913E+02  0.00000000000E+00 0. -1.
         -5    1    3    3    0  503 -0.30731710405E+02  0.62374832572E+02  0.63287853565E+02  0.94140852831E+02  0.47000000000E+01 0.  1.
         13    1    4    4    0    0  0.20399364188E+02  0.48796399777E+01 -0.28706280773E+02  0.35552714403E+02  0.00000000000E+00 0. -1.
        -14    1    4    4    0    0 -0.24618436935E+01 -0.43104443722E+02  0.30111093874E+02  0.52637740427E+02  0.00000000000E+00 0.  1.
</event>
<event>
12    1  0.8358445E-002  0.2372898E+03  0.7818608E-02  0.1121771E+00
         21   -1    0    0  503  502  0.00000000000E+00  0.00000000000E+00  0.27838882974E+02  0.27838882974E+02  0.00000000000E+00 0.  1.
         21   -1    0    0  501  503 -0.00000000000E+00 -0.00000000000E+00 -0.21263966366E+04  0.21263966366E+04  0.00000000000E+00 0.  1.
          6    2    1    2  501    0  0.14486952299E+03  0.75653125877E+02 -0.12943283454E+04  0.13157300803E+04  0.17073138049E+03 0.  0.
         24    2    3    3    0    0  0.16722724811E+03  0.91303342282E+02 -0.10758412702E+04  0.10954950032E+04  0.79834895491E+02 0.  0.
         -6    2    1    2    0  502 -0.14486952299E+03 -0.75653125877E+02 -0.80422940822E+03  0.83850543930E+03  0.17203446323E+03 0.  0.
        -24    2    5    5    0    0 -0.10857945977E+03 -0.32643382787E+01 -0.65457390569E+03  0.66828216035E+03  0.79585757772E+02 0.  0.
          5    1    3    3  501    0 -0.22357725119E+02 -0.15650216404E+02 -0.21848707525E+03  0.22023507712E+03  0.47000000000E+01 0. -1.
        -13    1    4    4    0    0  0.88546547386E+00  0.19623645379E+02 -0.20966508126E+03  0.21058327998E+03  0.00000000000E+00 0.  1.
         14    1    4    4    0    0  0.16634178263E+03  0.71679696902E+02 -0.86617618893E+03  0.88491172320E+03  0.00000000000E+00 0. -1.
         -5    1    5    5    0  502 -0.36290063222E+02 -0.72388787599E+02 -0.14965550253E+03  0.17022327895E+03  0.47000000000E+01 0.  1.
         13    1    6    6    0    0 -0.32667847193E+01 -0.20793424413E+02 -0.48404872693E+02  0.52783236748E+02  0.00000000000E+00 0. -1.
        -14    1    6    6    0    0 -0.10531267505E+03  0.17529086134E+02 -0.60616903300E+03  0.61549892360E+03  0.00000000000E+00 0.  1.
</event>
<event>
12    1  0.8358445E-002  0.2137555E+03  0.7818608E-02  0.1138778E+00
         21   -1    0    0  501  502  0.00000000000E+00  0.00000000000E+00  0.10452355256E+03  0.10452355256E+03  0.00000000000E+00 0. -1.
         21   -1    0    0  502  503 -0.00000000000E+00 -0.00000000000E+00 -0.51711422747E+03  0.51711422747E+03  0.00000000000E+00 0. -1.
         -6    2    1    2    0  503 -0.72747764099E+02 -0.10453077373E+03 -0.33006794211E+03  0.39323816732E+03  0.17167553695E+03 0.  0.
        -24    2    3    3    0    0 -0.68952446689E+02 -0.13920772563E+03 -0.29478495985E+03  0.34339968556E+03  0.83017713201E+02 0.  0.
          6    2    1    2  501    0  0.72747764099E+02  0.10453077373E+03 -0.82522732795E+02  0.22839961272E+03  0.17069698833E+03 0.  0.
         24    2    5    5    0    0  0.10314924449E+02 -0.42142592953E+01 -0.95661165055E+01  0.83251069719E+02  0.81945545191E+02 0.  0.
          5    1    5    5  501    0  0.62432839650E+02  0.10874503303E+03 -0.72956616290E+02  0.14514854300E+03  0.47000000000E+01 0. -1.
        -13    1    6    6    0    0 -0.15816484639E+02  0.55242668492E+00 -0.39904055135E+02  0.42927846182E+02  0.00000000000E+00 0.  1.
         14    1    6    6    0    0  0.26131409088E+02 -0.47666859802E+01  0.30337938630E+02  0.40323223537E+02  0.00000000000E+00 0. -1.
         -5    1    3    3    0  503 -0.37953174098E+01  0.34676951897E+02 -0.35282982258E+02  0.49838481760E+02  0.47000000000E+01 0.  1.
         11    1    4    4    0    0 -0.59190710313E+02 -0.31294970288E+02 -0.96715024025E+02  0.11762955081E+03  0.00000000000E+00 0. -1.
        -12    1    4    4    0    0 -0.97617363763E+01 -0.10791275534E+03 -0.19806993583E+03  0.22577013474E+03  0.00000000000E+00 0.  1.
</event>
<event>
12    1  0.8358445E-002  0.2422276E+03  0.7818608E-02  0.1118342E+00
         21   -1    0    0  503  502  0.00000000000E+00  0.00000000000E+00  0.51001606258E+03  0.51001606258E+03  0.00000000000E+00 0.  1.
         21   -1    0    0  501  503 -0.00000000000E+00 -0.00000000000E+00 -0.16341795472E+03  0.16341795472E+03  0.00000000000E+00 0.  1.
          6    2    1    2  501    0  0.60246407250E+02 -0.15977414550E+03 -0.10066784163E+02  0.24229129890E+03  0.17159931884E+03 0.  0.
         24    2    3    3    0    0  0.83196124991E+02 -0.15745248731E+03 -0.45035478961E+02  0.20013706712E+03  0.79459236700E+02 0.  0.
         -6    2    1    2    0  502 -0.60246407250E+02  0.15977414550E+03  0.35666489202E+03  0.43114271840E+03  0.17180451469E+03 0.  0.
        -24    2    5    5    0    0  0.13910142947E+02  0.82837913736E+02  0.10333777277E+03  0.15616072436E+03  0.81558963470E+02 0.  0.
          5    1    3    3  501    0 -0.22949717741E+02 -0.23216581841E+01  0.34968694798E+02  0.42154231780E+02  0.47000000000E+01 0. -1.
        -11    1    4    4    0    0  0.21099584971E+02 -0.12000170577E+03 -0.20321493236E+02  0.12352556400E+03  0.00000000000E+00 0.  1.
         12    1    4    4    0    0  0.62096540020E+02 -0.37450781542E+02 -0.24713985725E+02  0.76611503124E+02  0.00000000000E+00 0. -1.
         -5    1    5    5    0  502 -0.74156550197E+02  0.76936231763E+02  0.25332711926E+03  0.27498199404E+03  0.47000000000E+01 0.  1.
         13    1    6    6    0    0  0.28821102283E+02  0.71567403605E+02  0.11164238097E+03  0.13570766531E+03  0.00000000000E+00 0. -1.
        -14    1    6    6    0    0 -0.14910959336E+02  0.11270510131E+02 -0.83046082027E+01  0.20453059046E+02  0.00000000000E+00 0.  1.
</event>
<event>
12    1  0.8358445E-002  0.1874338E+03  0.7818608E-02  0.1161254E+00
         21   -1    0    0  503  502  0.00000000000E+00  0.00000000000E+00  0.42527152745E+02  0.42527152745E+02  0.00000000000E+00 0.  1.
         21   -1    0    0  501  503 -0.00000000000E+00 -0.00000000000E+00 -0.22948997186E+04  0.22948997186E+04  0.00000000000E+00 0.  1.
          6    2    1    2  501    0 -0.68441399206E+02 -0.21350793841E+02 -0.20618111571E+04  0.20701347793E+04  0.17103413475E+03 0.  0.
         24    2    3    3    0    0 -0.98916293041E+02  0.14658461250E+02 -0.11609548105E+04  0.11680318845E+04  0.80517746935E+02 0.  0.
         -6    2    1    2    0  502  0.68441399206E+02  0.21350793841E+02 -0.19056140871E+03  0.26729209204E+03  0.17318005212E+03 0.  0.
        -24    2    5    5    0    0 -0.30796813175E+01  0.62607031367E+02 -0.10609947460E+03  0.14908358808E+03  0.83902877850E+02 0.  0.
          5    1    3    3  501    0  0.30474893835E+02 -0.36009255092E+02 -0.90085634659E+03  0.90210289479E+03  0.47000000000E+01 0. -1.
        -11    1    4    4    0    0 -0.26041993459E+02 -0.18847700920E+01 -0.74236129313E+03  0.74282031967E+03  0.00000000000E+00 0.  1.
         12    1    4    4    0    0 -0.72874299582E+02  0.16543231342E+02 -0.41859351742E+03  0.42521156484E+03  0.00000000000E+00 0. -1.
         -5    1    5    5    0  502  0.71521080524E+02 -0.41256237526E+02 -0.84461934111E+02  0.11820850396E+03  0.47000000000E+01 0.  1.
         11    1    6    6    0    0  0.19225674597E+02 -0.12267654325E+02 -0.42938818242E+02  0.48619584720E+02  0.00000000000E+00 0. -1.
        -12    1    6    6    0    0 -0.22305355914E+02  0.74874685692E+02 -0.63160656362E+02  0.10046400336E+03  0.00000000000E+00 0.  1.
</event>
<event>
12    1  0.8358445E-002  0.1890602E+03  0.7818608E-02  0.1159426E+00
         21   -1    0    0  503  502  0.00000000000E+00  0.00000000000E+00  0.72905120271E+03  0.72905120271E+03  0.00000000000E+00 0.  1.
         21   -1    0    0  501  503 -0.00000000000E+00 -0.00000000000E+00 -0.14873406434E+03  0.14873406434E+03  0.00000000000E+00 0.  1.
          6    2    1    2  501    0  0.92293348095E+01  0.77922880094E+02 -0.69296216933E+02  0.20135966844E+03  0.17200754207E+03 0.  0.
         24    2    3    3    0    0 -0.12733077371E+02  0.78644595271E+02 -0.10873768860E+03  0.15596596724E+03  0.78449948305E+02 0.  0.
         -6    2    1    2    0  502 -0.92293348095E+01 -0.77922880094E+02  0.64961335530E+03  0.67642559860E+03  0.17145530961E+03 0.  0.
        -24    2    5    5    0    0  0.22562035174E+02 -0.10808081775E+02  0.19766595538E+03  0.21839325296E+03  0.89431107334E+02 0.  0.
          5    1    3    3  501    0  0.21962412181E+02 -0.72171517695E+00  0.39441471668E+02  0.45393701203E+02  0.47000000000E+01 0. -1.
        -13    1    4    4    0    0 -0.26351280008E+02  0.25412216518E+02 -0.91224299325E+02  0.98295694177E+02  0.00000000000E+00 0.  1.
         14    1    4    4    0    0  0.13618202637E+02  0.53232378754E+02 -0.17513389276E+02  0.57670273060E+02  0.00000000000E+00 0. -1.
         -5    1    5    5    0  502 -0.31791369984E+02 -0.67114798319E+02  0.45194739992E+03  0.45803234564E+03  0.47000000000E+01 0.  1.
         11    1    6    6    0    0 -0.60061637341E+01 -0.45897256688E+02  0.81527193067E+02  0.93751348703E+02  0.00000000000E+00 0. -1.
        -12    1    6    6    0    0  0.28568198908E+02  0.35089174913E+02  0.11613876231E+03  0.12464190426E+03  0.00000000000E+00 0.  1.
</event>
<event>
12    1  0.8358445E-002  0.2554139E+03  0.7818608E-02  0.1110088E+00
         21   -1    0    0  501  502  0.00000000000E+00  0.00000000000E+00  0.16615660310E+03  0.16615660310E+03  0.00000000000E+00 0. -1.
         21   -1    0    0  502  503 -0.00000000000E+00 -0.00000000000E+00 -0.42267208415E+03  0.42267208415E+03  0.00000000000E+00 0.  1.
         -6    2    1    2    0  503 -0.15735525398E+03 -0.10458235013E+03 -0.47491881126E+02  0.25878758218E+03  0.17034491482E+03 0.  0.
        -24    2    3    3    0    0 -0.73395178571E+02 -0.13522785603E+02 -0.66920070749E+02  0.13332570308E+03  0.87907504034E+02 0.  0.
          6    2    1    2  501    0  0.15735525398E+03  0.10458235013E+03 -0.20902359992E+03  0.33004110508E+03  0.17186658140E+03 0.  0.
         24    2    5    5    0    0  0.29895284416E+02  0.76198441363E+02 -0.53325731401E+02  0.12677869739E+03  0.80803923083E+02 0.  0.
          5    1    5    5  501    0  0.12745996956E+03  0.28383908769E+02 -0.15569786852E+03  0.20326240769E+03  0.47000000000E+01 0. -1.
        -11    1    6    6    0    0 -0.17718469355E+01  0.21218289528E+02 -0.59342049216E+02  0.63046285039E+02  0.00000000000E+00 0.  1.
         12    1    6    6    0    0  0.31667131351E+02  0.54980151835E+02  0.60163178149E+01  0.63732412349E+02  0.00000000000E+00 0. -1.
         -5    1    3    3    0  503 -0.83960075405E+02 -0.91059564529E+02  0.19428189623E+02  0.12546187910E+03  0.47000000000E+01 0.  1.
         11    1    4    4    0    0 -0.55216316506E+02 -0.16876544250E+02  0.60468191107E+01  0.58053625000E+02  0.00000000000E+00 0. -1.
        -12    1    4    4    0    0 -0.18178862065E+02  0.33537586471E+01 -0.72966889860E+02  0.75272078082E+02  0.00000000000E+00 0.  1.
</event>
<event>
12    1  0.8358445E-002  0.2118359E+03  0.7818608E-02  0.1140166E+00
         21   -1    0    0  503  502  0.00000000000E+00  0.00000000000E+00  0.70016065755E+02  0.70016065755E+02  0.00000000000E+00 0. -1.
         21   -1    0    0  501  503 -0.00000000000E+00 -0.00000000000E+00 -0.64268265670E+03  0.64268265670E+03  0.00000000000E+00 0.  1.
          6    2    1    2  501    0  0.23573891542E+02  0.12142610849E+03 -0.26408054848E+03  0.33839965396E+03  0.17168506495E+03 0.  0.
         24    2    3    3    0    0 -0.20590075053E+02  0.42195883100E+02 -0.22555403541E+03  0.23973726613E+03  0.66293967632E+02 0.  0.
         -6    2    1    2    0  502 -0.23573891542E+02 -0.12142610849E+03 -0.30858604246E+03  0.37429906850E+03  0.17197214567E+03 0.  0.
        -24    2    5    5    0    0 -0.71632978529E+01 -0.77519156772E+02 -0.30750931379E+03  0.32717818842E+03  0.80143972988E+02 0.  0.
          5    1    3    3  501    0  0.44163966595E+02  0.79230225394E+02 -0.38526513078E+02  0.98662387825E+02  0.47000000000E+01 0. -1.
        -11    1    4    4    0    0  0.22433706022E+01 -0.61021231385E+01 -0.13079212592E+03  0.13095361324E+03  0.00000000000E+00 0.  1.
         12    1    4    4    0    0 -0.22833445655E+02  0.48298006238E+02 -0.94761909483E+02  0.10878365289E+03  0.00000000000E+00 0. -1.
         -5    1    5    5    0  502 -0.16410593689E+02 -0.43906951723E+02 -0.10767286744E+01  0.47120880079E+02  0.47000000000E+01 0.  1.
         13    1    6    6    0    0 -0.44825743050E+01 -0.55745840057E+02 -0.74587042142E+02  0.93225098614E+02  0.00000000000E+00 0. -1.
        -14    1    6    6    0    0 -0.26807235479E+01 -0.21773316715E+02 -0.23292227164E+03  0.23395308980E+03  0.00000000000E+00 0.  1.
</event>
<event>
12    1  0.8358445E-002  0.2944308E+03  0.7818608E-02  0.1088074E+00
         21   -1    0    0  503  502  0.00000000000E+00  0.00000000000E+00  0.13043572289E+03  0.13043572289E+03  0.00000000000E+00 0. -1.
         21   -1    0    0  501  503 -0.00000000000E+00 -0.00000000000E+00 -0.67705304556E+03  0.67705304556E+03  0.00000000000E+00 0.  1.
          6    2    1    2  501    0 -0.63348787472E+02 -0.22996560661E+03 -0.32870120838E+03  0.44128674022E+03  0.17260432673E+03 0.  0.
         24    2    3    3    0    0 -0.37719332984E+02 -0.23224890970E+03 -0.22756754502E+03  0.33682531062E+03  0.79385125746E+02 0.  0.
         -6    2    1    2    0  502  0.63348787472E+02  0.22996560661E+03 -0.21791611429E+03  0.36620202822E+03  0.17239270143E+03 0.  0.
        -24    2    5    5    0    0  0.55249025634E+02  0.22823194523E+03 -0.13356586484E+03  0.28131583201E+03  0.78463248931E+02 0.  0.
          5    1    3    3  501    0 -0.25629454488E+02  0.22833030875E+01 -0.10113366336E+03  0.10446142960E+03  0.47000000000E+01 0. -1.
        -13    1    4    4    0    0 -0.43931599983E+02 -0.23178561555E+03 -0.23060140862E+03  0.32989629690E+03  0.00000000000E+00 0.  1.
         14    1    4    4    0    0  0.62122669992E+01 -0.46329414391E+00  0.30338635961E+01  0.69290137143E+01  0.00000000000E+00 0. -1.
         -5    1    5    5    0  502  0.80997618380E+01  0.17336613770E+01 -0.84350249457E+02  0.84886196210E+02  0.47000000000E+01 0.  1.
         13    1    6    6    0    0  0.69270587482E+02  0.21531107255E+03 -0.11155212617E+03  0.25219268250E+03  0.00000000000E+00 0. -1.
        -14    1    6    6    0    0 -0.14021561848E+02  0.12920872684E+02 -0.22013738665E+02  0.29123149514E+02  0.00000000000E+00 0.  1.
</event>
<event>
12    1  0.8358445E-002  0.2490317E+03  0.7818608E-02  0.1114066E+00
         21   -1    0    0  501  502  0.00000000000E+00  0.00000000000E+00  0.17817258238E+03  0.17817258238E+03  0.00000000000E+00 0. -1.
         21   -1    0    0  502  503 -0.00000000000E+00 -0.00000000000E+00 -0.45312728166E+03  0.45312728166E+03  0.00000000000E+00 0. -1.
         -6    2    1    2    0  503  0.48566837555E+02 -0.17216692383E+03 -0.29059415246E+03  0.38270322304E+03  0.17325301761E+03 0.  0.
        -24    2    3    3    0    0  0.23882997692E+02 -0.23022064557E+02 -0.91012365402E+02  0.13228664866E+03  0.90089365204E+02 0.  0.
          6    2    1    2  501    0 -0.48566837555E+02  0.17216692383E+03  0.15639453177E+02  0.24859664100E+03  0.17191716043E+03 0.  0.
         24    2    5    5    0    0  0.14662985043E+02  0.82154042660E+02 -0.38146370246E+02  0.12605956889E+03  0.86438298738E+02 0.  0.
          5    1    5    5  501    0 -0.63229822598E+02  0.90012881165E+02  0.53785823423E+02  0.12253707212E+03  0.47000000000E+01 0. -1.
        -11    1    6    6    0    0 -0.98972582074E+01 -0.14074056803E+02 -0.17659735369E+02  0.24655649418E+02  0.00000000000E+00 0.  1.
         12    1    6    6    0    0  0.24560243250E+02  0.96228099463E+02 -0.20486634877E+02  0.10140391947E+03  0.00000000000E+00 0. -1.
         -5    1    3    3    0  503  0.24683839864E+02 -0.14914485927E+03 -0.19958178706E+03  0.25041657438E+03  0.47000000000E+01 0.  1.
         11    1    4    4    0    0  0.22945985711E+02 -0.42485005515E+02 -0.99833602001E+02  0.11089743930E+03  0.00000000000E+00 0. -1.
        -12    1    4    4    0    0  0.93701198086E+00  0.19462940957E+02  0.88212365995E+01  0.21389209366E+02  0.00000000000E+00 0.  1.
</event>
<event>
12    1  0.8358445E-002  0.2367830E+03  0.7818608E-02  0.1122244E+00
         21   -1    0    0  501  502  0.00000000000E+00  0.00000000000E+00  0.17968958600E+03  0.17968958600E+03  0.00000000000E+00 0.  1.
         21   -1    0    0  502  503 -0.00000000000E+00 -0.00000000000E+00 -0.40127166121E+03  0.40127166121E+03  0.00000000000E+00 0.  1.
         -6    2    1    2    0  503  0.15868911317E+03 -0.21265404573E+02  0.28221687014E+02  0.23676929187E+03  0.17213013067E+03 0.  0.
        -24    2    3    3    0    0  0.64329748062E+02 -0.29088131600E+02  0.75609555950E+02  0.13078540176E+03  0.80022374848E+02 0.  0.
          6    2    1    2  501    0 -0.15868911317E+03  0.21265404573E+02 -0.24980376223E+03  0.34419195533E+03  0.17444692723E+03 0.  0.
         24    2    5    5    0    0 -0.10947124309E+03  0.58636168080E+02 -0.23972559923E+03  0.28140157335E+03  0.79349412617E+02 0.  0.
          5    1    5    5  501    0 -0.49217870081E+02 -0.37370763507E+02 -0.10078162993E+02  0.62790381985E+02  0.47000000000E+01 0. -1.
        -13    1    6    6    0    0 -0.54509935423E+01  0.21427743169E+02 -0.60433317559E+01  0.22921242694E+02  0.00000000000E+00 0.  1.
         14    1    6    6    0    0 -0.10402024955E+03  0.37208424911E+02 -0.23368226748E+03  0.25848033065E+03  0.00000000000E+00 0. -1.
         -5    1    3    3    0  503  0.94359365109E+02  0.78227270267E+01 -0.47387868936E+02  0.10598389012E+03  0.47000000000E+01 0.  1.
         13    1    4    4    0    0 -0.25199652902E+01 -0.37524502962E+02  0.38676172674E+02  0.53947056271E+02  0.00000000000E+00 0. -1.
        -14    1    4    4    0    0  0.66849713352E+02  0.84363713621E+01  0.36933383276E+02  0.76838345487E+02  0.00000000000E+00 0.  1.
</event>
<event>
12    1  0.8358445E-002  0.1851763E+03  0.7818608E-02  0.1162953E+00
         21   -1    0    0  503  502  0.00000000000E+00  0.00000000000E+00  0.20674575687E+03  0.20674575687E+03  0.00000000000E+00 0.  1.
         21   -1    0    0  501  503 -0.00000000000E+00 -0.00000000000E+00 -0.21359522061E+03  0.21359522061E+03  0.00000000000E+00 0.  1.
          6    2    1    2  501    0  0.24503326867E+02  0.62948723890E+02 -0.10305666429E+03  0.21192199726E+03  0.17241607233E+03 0.  0.
         24    2    3    3    0    0 -0.40394749802E+01  0.28279671287E+02  0.15328719352E+02  0.85218312202E+02  0.78810747563E+02 0.  0.
         -6    2    1    2    0  502 -0.24503326867E+02 -0.62948723890E+02  0.96207200561E+02  0.20841898022E+03  0.17210372167E+03 0.  0.
        -24    2    5    5    0    0  0.17428076724E+02  0.21593361143E+02  0.28139468061E+02  0.91967647229E+02  0.83043406543E+02 0.  0.
          5    1    3    3  501    0  0.28542801847E+02  0.34669052603E+02 -0.11838538364E+03  0.12670368505E+03  0.47000000000E+01 0. -1.
        -13    1    4    4    0    0  0.35673380385E+02  0.14798749467E+02  0.19145883434E+02  0.43106355753E+02  0.00000000000E+00 0.  1.
         14    1    4    4    0    0 -0.39712855365E+02  0.13480921820E+02 -0.38171640818E+01  0.42111956449E+02  0.00000000000E+00 0. -1.
         -5    1    5    5    0  502 -0.41931403591E+02 -0.84542085033E+02  0.68067732500E+02  0.11645133300E+03  0.47000000000E+01 0.  1.
         13    1    6    6    0    0 -0.26525971270E+02  0.14708802633E+02 -0.11443402168E+02  0.32418011659E+02  0.00000000000E+00 0. -1.
        -14    1    6    6    0    0  0.43954047994E+02  0.68845585103E+01  0.39582870229E+02  0.59549635570E+02  0.00000000000E+00 0.  1.
</event>
<event>
12    1  0.8358445E-002  0.1778020E+03  0.7818608E-02  0.1170230E+00
         21   -1    0    0  501  502  0.00000000000E+00  0.00000000000E+00  0.39793919802E+02  0.39793919802E+02  0.00000000000E+00 0.  1.
         21   -1    0    0  502  503 -0.00000000000E+00 -0.00000000000E+00 -0.81315286993E+03  0.81315286993E+03  0.00000000000E+00 0.  1.
         -6    2    1    2    0  503  0.23303221314E+02  0.37693313599E+02 -0.31244746299E+03  0.35892964709E+03  0.17100657418E+03 0.  0.
        -24    2    3    3    0    0 -0.46701340961E+02  0.30306306848E+02 -0.24098184555E+03  0.25850738320E+03  0.75195277782E+02 0.  0.
          6    2    1    2  501    0 -0.23303221314E+02 -0.37693313599E+02 -0.46091148714E+03  0.49401714265E+03  0.17219091800E+03 0.  0.
         24    2    5    5    0    0  0.21595478420E+02 -0.37238834265E+02 -0.12066558150E+03  0.15078913375E+03  0.79524114785E+02 0.  0.
          5    1    5    5  501    0 -0.44898699733E+02 -0.45447933344E+00 -0.34024590564E+03  0.34322800890E+03  0.47000000000E+01 0. -1.
        -11    1    6    6    0    0 -0.14917754584E+02  0.16528294996E+02 -0.50262387031E+02  0.54973006897E+02  0.00000000000E+00 0.  1.
         12    1    6    6    0    0  0.36513233003E+02 -0.53767129261E+02 -0.70403194469E+02  0.95816126852E+02  0.00000000000E+00 0. -1.
         -5    1    3    3    0  503  0.70004562275E+02  0.73870067506E+01 -0.71465617440E+02  0.10042226389E+03  0.47000000000E+01 0.  1.
         11    1    4    4    0    0 -0.54847800368E+02  0.69041573400E+01 -0.90869743556E+02  0.10636380441E+03  0.00000000000E+00 0. -1.
        -12    1    4    4    0    0  0.81464594067E+01  0.23402149508E+02 -0.15011210200E+03  0.15214357879E+03  0.00000000000E+00 0.  1.
</event>
<event>
12    1  0.8358445E-002  0.1956760E+03  0.7818608E-02  0.1153711E+00
         21   -1    0    0  501  502  0.00000000000E+00  0.00000000000E+00  0.29288058022E+04  0.29288058022E+04  0.00000000000E+00 0. -1.
         21   -1    0    0  502  503 -0.00000000000E+00 -0.00000000000E+00 -0.17052878685E+02  0.17052878685E+02  0.00000000000E+00 0. -1.
         -6    2    1    2    0  503 -0.91941237225E+02 -0.11031589279E+01  0.74048485615E+03  0.76590267108E+03  0.17272715859E+03 0.  0.
        -24    2    3    3    0    0 -0.28541838963E+02 -0.64167182595E+02  0.41419751134E+03  0.42755067069E+03  0.79422501328E+02 0.  0.
          6    2    1    2  501    0  0.91941237225E+02  0.11031589279E+01  0.21712680674E+04  0.21799560098E+04  0.17131484546E+03 0.  0.
         24    2    5    5    0    0  0.47734428246E+01 -0.43830224431E+02  0.12871902883E+04  0.12904433102E+04  0.80257237828E+02 0.  0.
          5    1    5    5  501    0  0.87167794401E+02  0.44933383359E+02  0.88407777906E+03  0.88951269960E+03  0.47000000000E+01 0. -1.
        -11    1    6    6    0    0  0.23344405183E+02 -0.38523471713E+02  0.33021215293E+03  0.33327028831E+03  0.00000000000E+00 0.  1.
         12    1    6    6    0    0 -0.18570962359E+02 -0.53067527179E+01  0.95697813538E+03  0.95717302190E+03  0.00000000000E+00 0. -1.
         -5    1    3    3    0  503 -0.63399398262E+02  0.63064023667E+02  0.32628734482E+03  0.33835200039E+03  0.47000000000E+01 0.  1.
         13    1    4    4    0    0 -0.38494529846E+02 -0.37103458227E+02  0.11337262058E+03  0.12534690477E+03  0.00000000000E+00 0. -1.
        -14    1    4    4    0    0  0.99526908826E+01 -0.27063724368E+02  0.30082489076E+03  0.30220376592E+03  0.00000000000E+00 0.  1.
</event>
<event>
12    1  0.8358445E-002  0.2249756E+03  0.7818608E-02  0.1130714E+00
         21   -1    0    0  503  502  0.00000000000E+00  0.00000000000E+00  0.64976930764E+03  0.64976930764E+03  0.00000000000E+00 0.  1.
         21   -1    0    0  501  503 -0.00000000000E+00 -0.00000000000E+00 -0.24565555396E+03  0.24565555396E+03  0.00000000000E+00 0.  1.
          6    2    1    2  501    0 -0.62579209566E+02 -0.13129977074E+03 -0.16856106931E+03  0.28111714624E+03  0.17163399592E+03 0.  0.
         24    2    3    3    0    0 -0.10465749874E+03 -0.12311766595E+03 -0.14622487273E+03  0.23255249926E+03  0.81165262235E+02 0.  0.
         -6    2    1    2    0  502  0.62579209566E+02  0.13129977074E+03  0.57267482299E+03  0.61430771537E+03  0.16811225123E+03 0.  0.
        -24    2    5    5    0    0 -0.21661080521E+02  0.83462870863E+02  0.38833155461E+03  0.40600666866E+03  0.81269708189E+02 0.  0.
          5    1    3    3  501    0  0.42078289177E+02 -0.81821047927E+01 -0.22336196576E+02  0.48564646981E+02  0.47000000000E+01 0. -1.
        -11    1    4    4    0    0 -0.78994241448E+02 -0.13184565854E+03 -0.12297332908E+03  0.19683954766E+03  0.00000000000E+00 0.  1.
         12    1    4    4    0    0 -0.25663257296E+02  0.87279925903E+01 -0.23251543654E+02  0.35712951600E+02  0.00000000000E+00 0. -1.
         -5    1    5    5    0  502  0.84240290087E+02  0.47836899881E+02  0.18434326838E+03  0.20830104671E+03  0.47000000000E+01 0.  1.
         11    1    6    6    0    0 -0.11024106191E+02  0.29752864680E+02  0.30503943805E+02  0.44014252937E+02  0.00000000000E+00 0. -1.
        -12    1    6    6    0    0 -0.10636974330E+02  0.53710006184E+02  0.35782761080E+03  0.36199241572E+03  0.00000000000E+00 0.  1.
</event>
<event>
12    1  0.8358445E-002  0.2105728E+03  0.7818608E-02  0.1141432E+00
         21   -1    0    0  501  502  0.00000000000E+00  0.00000000000E+00  0.14646401839E+03  0.14646401839E+03  0.00000000000E+00 0.  1.
         21   -1    0    0  502  503 -0.00000000000E+00 -0.00000000000E+00 -0.34830855223E+03  0.34830855223E+03  0.00000000000E+00 0.  1.
         -6    2    1    2    0  503 -0.10907002804E+03  0.48671391350E+02 -0.19230708585E+03  0.28398385039E+03  0.17146322248E+03 0.  0.
        -24    2    3    3    0    0 -0.73428121569E+01 -0.11229752650E+02 -0.12355371621E+03  0.14728824204E+03  0.79046070244E+02 0.  0.
          6    2    1    2  501    0  0.10907002804E+03 -0.48671391350E+02 -0.95374479961E+01  0.21078872023E+03  0.17342360367E+03 0.  0.
         24    2    5    5    0    0  0.13330870251E+03 -0.68359436459E+02  0.15610291811E+02  0.17042002843E+03  0.79718769209E+02 0.  0.
          5    1    5    5  501    0 -0.24238674463E+02  0.19688045109E+02 -0.25147739807E+02  0.40368691797E+02  0.47000000000E+01 0. -1.
        -11    1    6    6    0    0  0.64209096572E+02 -0.23657682800E+02  0.46261543291E+02  0.82599179329E+02  0.00000000000E+00 0.  1.
         12    1    6    6    0    0  0.69099605934E+02 -0.44701753659E+02 -0.30651251480E+02  0.87820849106E+02  0.00000000000E+00 0. -1.
         -5    1    3    3    0  503 -0.10172721589E+03  0.59901144000E+02 -0.68753369641E+02  0.13669560835E+03  0.47000000000E+01 0.  1.
         11    1    4    4    0    0  0.25250817607E+02 -0.23946677166E+02 -0.25395030219E+02  0.43080792669E+02  0.00000000000E+00 0. -1.
        -12    1    4    4    0    0 -0.32593629764E+02  0.12716924516E+02 -0.98158685988E+02  0.10420744938E+03  0.00000000000E+00 0.  1.
</event>
<event>
12    1  0.8358445E-002  0.1902213E+03  0.7818608E-02  0.1158275E+00
         21   -1    0    0  503  502  0.00000000000E+00  0.00000000000E+00  0.44725548902E+02  0.44725548902E+02  0.00000000000E+00 0. -1.
         21   -1    0    0  501  503 -0.00000000000E+00 -0.00000000000E+00 -0.84913443731E+03  0.84913443731E+03  0.00000000000E+00 0.  1.
          6    2    1    2  501    0  0.20259307568E+02 -0.76667118872E+02 -0.49957733941E+03  0.53454616243E+03  0.17284037449E+03 0.  0.
         24    2    3    3    0    0 -0.89642089625E+01 -0.97624703070E+02 -0.47252734713E+03  0.48930208728E+03  0.80768181476E+02 0.  0.
         -6    2    1    2    0  502 -0.20259307568E+02  0.76667118872E+02 -0.30483154899E+03  0.35931382378E+03  0.17290420480E+03 0.  0.
        -24    2    5    5    0    0  0.26334984931E+02  0.50366503337E+02 -0.78105663616E+02  0.12631282041E+03  0.81388683621E+02 0.  0.
          5    1    3    3  501    0  0.29223516531E+02  0.20957584198E+02 -0.27049992286E+02  0.45244075154E+02  0.47000000000E+01 0. -1.
        -11    1    4    4    0    0  0.12934965404E+02 -0.55468949806E+02 -0.38952352783E+03  0.39366571664E+03  0.00000000000E+00 0.  1.
         12    1    4    4    0    0 -0.21899174366E+02 -0.42155753264E+02 -0.83003819296E+02  0.95636370639E+02  0.00000000000E+00 0. -1.
         -5    1    5    5    0  502 -0.46594292499E+02  0.26300615535E+02 -0.22672588538E+03  0.23300100337E+03  0.47000000000E+01 0.  1.
         13    1    6    6    0    0 -0.34750426646E+01 -0.93056207666E+01 -0.54741582780E+02  0.55635522687E+02  0.00000000000E+00 0. -1.
        -14    1    6    6    0    0  0.29810027595E+02  0.59672124104E+02 -0.23364080836E+02  0.70677297724E+02  0.00000000000E+00 0.  1.
</event>
<event>
12    1  0.8358445E-002  0.1845618E+03  0.7818608E-02  0.1163543E+00
         21   -1    0    0  501  502  0.00000000000E+00  0.00000000000E+00  0.45863112983E+03  0.45863112983E+03  0.00000000000E+00 0. -1.
         21   -1    0    0  502  503 -0.00000000000E+00 -0.00000000000E+00 -0.85085346034E+02  0.85085346034E+02  0.00000000000E+00 0. -1.
         -6    2    1    2    0  503  0.62786657973E+02  0.23007043732E+02  0.89370303809E+02  0.20506120778E+03  0.17202197317E+03 0.  0.
        -24    2    3    3    0    0 -0.27618224436E+02 -0.15189984792E+02  0.50513584519E+02  0.99401421742E+02  0.79595970152E+02 0.  0.
          6    2    1    2  501    0 -0.62786657973E+02 -0.23007043732E+02  0.28417547999E+03  0.33865526809E+03  0.17163973519E+03 0.  0.
         24    2    5    5    0    0 -0.43432075455E+02 -0.78320202884E+02  0.22309149135E+03  0.25387620753E+03  0.81626686094E+02 0.  0.
          5    1    5    5  501    0 -0.19354582518E+02  0.55313159152E+02  0.61083988639E+02  0.84779060551E+02  0.47000000000E+01 0. -1.
        -11    1    6    6    0    0 -0.17831927540E+02  0.79380874758E+01  0.87019981925E+01  0.21370906511E+02  0.00000000000E+00 0.  1.
         12    1    6    6    0    0 -0.25600147915E+02 -0.86258290360E+02  0.21438949315E+03  0.23250530102E+03  0.00000000000E+00 0. -1.
         -5    1    3    3    0  503  0.90404882409E+02  0.38197028524E+02  0.38856719290E+02  0.10565978604E+03  0.47000000000E+01 0.  1.
         13    1    4    4    0    0 -0.17086407834E+02  0.55540685540E+01 -0.18969358979E+02  0.26127181062E+02  0.00000000000E+00 0. -1.
        -14    1    4    4    0    0 -0.10531816601E+02 -0.20744053346E+02  0.69482943498E+02  0.73274240680E+02  0.00000000000E+00 0.  1.
</event>
<event>
12    1  0.8358445E-002  0.2628324E+03  0.7818608E-02  0.1105465E+00
         21   -1    0    0  503  502  0.00000000000E+00  0.00000000000E+00  0.97169069652E+03  0.97169069652E+03  0.00000000000E+00 0. -1.
         21   -1    0    0  501  503 -0.00000000000E+00 -0.00000000000E+00 -0.73165774401E+02  0.73165774401E+02  0.00000000000E+00 0.  1.
          6    2    1    2  501    0  0.16016765614E+03 -0.11896829754E+03  0.36081243301E+03  0.44634533184E+03  0.17097195543E+03 0.  0.
         24    2    3    3    0    0  0.73070736289E+02 -0.55496560744E+02  0.29741203705E+03  0.32122045410E+03  0.79432106839E+02 0.  0.
         -6    2    1    2    0  502 -0.16016765614E+03  0.11896829754E+03  0.53771248911E+03  0.59851113909E+03  0.17109567139E+03 0.  0.
        -24    2    5    5    0    0 -0.11780541924E+03  0.14935646305E+03  0.47254004654E+03  0.51491965035E+03  0.75250786522E+02 0.  0.
          5    1    3    3  501    0  0.87096919852E+02 -0.63471736799E+02  0.63400395963E+02  0.12512487774E+03  0.47000000000E+01 0. -1.
        -11    1    4    4    0    0  0.62159897366E+02 -0.61631509672E+02  0.15302788167E+03  0.17629472027E+03  0.00000000000E+00 0.  1.
         12    1    4    4    0    0  0.10910838923E+02  0.61349489272E+01  0.14438415538E+03  0.14492573384E+03  0.00000000000E+00 0. -1.
         -5    1    5    5    0  502 -0.42362236905E+02 -0.30388165511E+02  0.65172442572E+02  0.83591488739E+02  0.47000000000E+01 0.  1.
         13    1    6    6    0    0 -0.94864590324E+02  0.67117662809E+02  0.31466061616E+03  0.33543311483E+03  0.00000000000E+00 0. -1.
        -14    1    6    6    0    0 -0.22940828912E+02  0.82238800246E+02  0.15787943038E+03  0.17948653552E+03  0.00000000000E+00 0.  1.
</event>
<event>
12    1  0.8358445E-002  0.2491001E+03  0.7818608E-02  0.1113898E+00
         21   -1    0    0  503  502  0.00000000000E+00  0.00000000000E+00  0.20055560082E+03  0.20055560082E+03  0.00000000000E+00 0. -1.
         21   -1    0    0  501  503 -0.00000000000E+00 -0.00000000000E+00 -0.33670565219E+03  0.33670565219E+03  0.00000000000E+00 0.  1.
          6    2    1    2  501    0 -0.51752463622E+02 -0.17288836955E+03 -0.14481669579E+03  0.28801041965E+03  0.17149175091E+03 0.  0.
         24    2    3    3    0    0 -0.27109888752E+02 -0.11015764025E+03 -0.16650318410E+03  0.21705413261E+03  0.80743633771E+02 0.  0.
         -6    2    1    2    0  502  0.51752463622E+02  0.17288836955E+03  0.86666444209E+01  0.24925083336E+03  0.17170370231E+03 0.  0.
        -24    2    5    5    0    0  0.61002360009E+02  0.14717955265E+03  0.61558894762E+02  0.18953329828E+03  0.82159996273E+02 0.  0.
          5    1    3    3  501    0 -0.24642574871E+02 -0.62730729299E+02  0.21686488313E+02  0.70956287037E+02  0.47000000000E+01 0. -1.
        -13    1    4    4    0    0  0.10230272863E+02 -0.97139644189E+02 -0.10075003758E+03  0.14032583165E+03  0.00000000000E+00 0.  1.
         14    1    4    4    0    0 -0.37340161615E+02 -0.13017996060E+02 -0.65753146528E+02  0.76728300966E+02  0.00000000000E+00 0. -1.
         -5    1    5    5    0  502 -0.92498963864E+01  0.25708816895E+02 -0.52892250341E+02  0.59717535075E+02  0.47000000000E+01 0.  1.
         13    1    6    6    0    0  0.55476871530E+02  0.14349118915E+03  0.29312650091E+02  0.15660982119E+03  0.00000000000E+00 0. -1.
        -14    1    6    6    0    0  0.55254884793E+01  0.36883635019E+01  0.32246244671E+02  0.32923477089E+02  0.00000000000E+00 0.  1.
</event>
<event>
12    1  0.8358445E-002  0.4456681E+03  0.7818608E-02  0.1029036E+00
         21   -1    0    0  503  502  0.00000000000E+00  0.00000000000E+00  0.15260001146E+03  0.15260001146E+03  0.00000000000E+00 0.  1.
         21   -1    0    0  501  503 -0.00000000000E+00 -0.00000000000E+00 -0.18887085219E+04  0.18887085219E+04  0.00000000000E+00 0. -1.
          6    2    1    2  501    0  0.39595216224E+03 -0.11076128233E+03 -0.29860191767E+03  0.53630180664E+03  0.17149444923E+03 0.  0.
         24    2    3    3    0    0  0.25500203463E+03 -0.61690513408E+02 -0.26862915139E+03  0.38400165708E+03  0.80398349209E+02 0.  0.
         -6    2    1    2    0  502 -0.39595216224E+03  0.11076128233E+03 -0.14375065927E+04  0.15050067267E+04  0.17197054054E+03 0.  0.
        -24    2    5    5    0    0 -0.15369214868E+03 -0.29184638836E+01 -0.70201324989E+03  0.72232828299E+03  0.72840588956E+02 0.  0.
          5    1    3    3  501    0  0.14095012761E+03 -0.49070768917E+02 -0.29972766287E+02  0.15230014956E+03  0.47000000000E+01 0. -1.
        -11    1    4    4    0    0  0.10483987890E+03 -0.31013135107E+02 -0.58741189435E+02  0.12411181287E+03  0.00000000000E+00 0.  1.
         12    1    4    4    0    0  0.15016215573E+03 -0.30677378301E+02 -0.20988796195E+03  0.25988984421E+03  0.00000000000E+00 0. -1.
         -5    1    5    5    0  502 -0.24226001356E+03  0.11367974621E+03 -0.73549334285E+03  0.78267844371E+03  0.47000000000E+01 0.  1.
         13    1    6    6    0    0 -0.57611330495E+02  0.32253628966E+02 -0.22623028141E+03  0.23566820364E+03  0.00000000000E+00 0. -1.
        -14    1    6    6    0    0 -0.96080818182E+02 -0.35172092850E+02 -0.47578296848E+03  0.48666007935E+03  0.00000000000E+00 0.  1.
</event>
<event>
12    1  0.8358445E-002  0.1797108E+03  0.7818608E-02  0.1168323E+00
         21   -1    0    0  503  502  0.00000000000E+00  0.00000000000E+00  0.60298640617E+03  0.60298640617E+03  0.00000000000E+00 0.  1.
         21   -1    0    0  501  503 -0.00000000000E+00 -0.00000000000E+00 -0.82287736555E+02  0.82287736555E+02  0.00000000000E+00 0.  1.
          6    2    1    2  501    0  0.50208308399E+02 -0.12942557877E+02  0.57331250606E+02  0.18863417990E+03  0.17206858369E+03 0.  0.
         24    2    3    3    0    0  0.45530108802E+02 -0.35779327811E+02 -0.31098246056E+02  0.97063062765E+02  0.71421188309E+02 0.  0.
         -6    2    1    2    0  502 -0.50208308399E+02  0.12942557877E+02  0.46336741901E+03  0.49663996283E+03  0.17103655646E+03 0.  0.
        -24    2    5    5    0    0 -0.71260169872E+02  0.63546327922E+02  0.33993402425E+03  0.36150367845E+03  0.77547540823E+02 0.  0.
          5    1    3    3  501    0  0.46781995963E+01  0.22836769935E+02  0.88429496662E+02  0.91571117130E+02  0.47000000000E+01 0. -1.
        -11    1    4    4    0    0  0.50886527694E+02 -0.33927751143E+01  0.11969184225E+01  0.51013549547E+02  0.00000000000E+00 0.  1.
         12    1    4    4    0    0 -0.53564188914E+01 -0.32386552697E+02 -0.32295164478E+02  0.46049513218E+02  0.00000000000E+00 0. -1.
         -5    1    5    5    0  502  0.21051861473E+02 -0.50603770045E+02  0.12343339476E+03  0.13513628438E+03  0.47000000000E+01 0.  1.
         11    1    6    6    0    0 -0.31140130943E+02 -0.14874378300E+01  0.33821766051E+02  0.45998174803E+02  0.00000000000E+00 0. -1.
        -12    1    6    6    0    0 -0.40120038928E+02  0.65033765752E+02  0.30611225820E+03  0.31550550365E+03  0.00000000000E+00 0.  1.
</event>
<event>
12    1  0.8358445E-002  0.2143712E+03  0.7818608E-02  0.1138270E+00
         21   -1    0    0  501  502  0.00000000000E+00  0.00000000000E+00  0.13257195491E+03  0.13257195491E+03  0.00000000000E+00 0. -1.
         21   -1    0    0  502  503 -0.00000000000E+00 -0.00000000000E+00 -0.85402008603E+03  0.85402008603E+03  0.00000000000E+00 0. -1.
         -6    2    1    2    0  503 -0.12682053729E+03  0.80860933825E+01 -0.74111182468E+03  0.77132087508E+03  0.17187298234E+03 0.  0.
        -24    2    3    3    0    0 -0.95163897472E+02 -0.61324747616E+01 -0.71913261586E+03  0.72997494244E+03  0.81350616283E+02 0.  0.
          6    2    1    2  501    0  0.12682053729E+03 -0.80860933825E+01  0.19663693568E+02  0.21527116587E+03  0.17264466521E+03 0.  0.
         24    2    5    5    0    0  0.77638482454E+02 -0.65299695805E+02 -0.18536449056E+02  0.13057398931E+03  0.80088591640E+02 0.  0.
          5    1    5    5  501    0  0.49182054840E+02  0.57213602423E+02  0.38200142623E+02  0.84697176558E+02  0.47000000000E+01 0. -1.
        -11    1    6    6    0    0  0.70439899774E+02 -0.24017772033E+02  0.16175425646E+02  0.76159551262E+02  0.00000000000E+00 0.  1.
         12    1    6    6    0    0  0.71985826806E+01 -0.41281923772E+02 -0.34711874702E+02  0.54414438049E+02  0.00000000000E+00 0. -1.
         -5    1    3    3    0  503 -0.31656639822E+02  0.14218568144E+02 -0.21979208820E+02  0.41345932633E+02  0.47000000000E+01 0.  1.
         11    1    4    4    0    0 -0.79218813635E+02  0.30882849081E+02 -0.48222151599E+03  0.48966004665E+03  0.00000000000E+00 0. -1.
        -12    1    4    4    0    0 -0.15945083837E+02 -0.37015323843E+02 -0.23691109987E+03  0.24031489579E+03  0.00000000000E+00 0.  1.
</event>
<event>
12    1  0.8358445E-002  0.2045851E+03  0.7818608E-02  0.1145967E+00
         21   -1    0    0  501  502  0.00000000000E+00  0.00000000000E+00  0.66001252587E+02  0.66001252587E+02  0.00000000000E+00 0.  1.
         21   -1    0    0  502  503 -0.00000000000E+00 -0.00000000000E+00 -0.70915576429E+03  0.70915576429E+03  0.00000000000E+00 0.  1.
         -6    2    1    2    0  503  0.53181677759E+02  0.97400867917E+02 -0.44826350378E+03  0.49274254193E+03  0.17187153310E+03 0.  0.
        -24    2    3    3    0    0 -0.17636783157E+02  0.25557220592E+02 -0.11054101902E+03  0.14024384580E+03  0.80528204705E+02 0.  0.
          6    2    1    2  501    0 -0.53181677759E+02 -0.97400867917E+02 -0.19489100793E+03  0.28241447495E+03  0.17163977036E+03 0.  0.
         24    2    5    5    0    0  0.18341848476E+02 -0.89079925275E+02 -0.12491362502E+03  0.18189692917E+03  0.95976156576E+02 0.  0.
          5    1    5    5  501    0 -0.71523526235E+02 -0.83209426421E+01 -0.69977382902E+02  0.10051754578E+03  0.47000000000E+01 0. -1.
        -13    1    6    6    0    0 -0.33691492339E+02 -0.56990382049E+02 -0.89242465483E+02  0.11111812610E+03  0.00000000000E+00 0.  1.
         14    1    6    6    0    0  0.52033340815E+02 -0.32089543227E+02 -0.35671159542E+02  0.70778803070E+02  0.00000000000E+00 0. -1.
         -5    1    3    3    0  503  0.70818460916E+02  0.71843647326E+02 -0.33772248476E+03  0.35249869614E+03  0.47000000000E+01 0.  1.
         13    1    4    4    0    0 -0.15197427562E+01 -0.24345087172E+02 -0.69489526632E+02  0.73646365823E+02  0.00000000000E+00 0. -1.
        -14    1    4    4    0    0 -0.16117040401E+02  0.49902307763E+02 -0.41051492389E+02  0.66597479973E+02  0.00000000000E+00 0.  1.
</event>
<event>
12    1  0.8358445E-002  0.1930776E+03  0.7818608E-02  0.1157098E+00
         21   -1    0    0  503  502  0.00000000000E+00  0.00000000000E+00  0.17971629175E+04  0.17971629175E+04  0.00000000000E+00 0. -1.
         21   -1    0    0  501  503 -0.00000000000E+00 -0.00000000000E+00 -0.31531960141E+02  0.31531960141E+02  0.00000000000E+00 0. -1.
          6    2    1    2  501    0 -0.88783242452E+02 -0.10407111684E+02  0.32289142301E+03  0.37309317258E+03  0.16416111677E+03 0.  0.
         24    2    3    3    0    0 -0.45540944423E+02  0.32482584695E+02  0.91783732365E+02  0.13404866403E+03  0.80098032889E+02 0.  0.
         -6    2    1    2    0  502  0.88783242452E+02  0.10407111684E+02  0.14427395344E+04  0.14556017051E+04  0.17113792009E+03 0.  0.
        -24    2    5    5    0    0  0.20018622236E+02  0.18051613609E+02  0.35285667006E+03  0.36351482240E+03  0.83117931345E+02 0.  0.
          5    1    3    3  501    0 -0.43242298029E+02 -0.42889696379E+02  0.23110769065E+03  0.23904450855E+03  0.47000000000E+01 0. -1.
        -11    1    4    4    0    0  0.13286137344E+02 -0.11955074444E+02  0.21677087512E+01  0.18004005435E+02  0.00000000000E+00 0.  1.
         12    1    4    4    0    0 -0.58827081767E+02  0.44437659139E+02  0.89616023613E+02  0.11604465859E+03  0.00000000000E+00 0. -1.
         -5    1    5    5    0  502  0.68764620216E+02 -0.76445019254E+01  0.10898828643E+04  0.10920868827E+04  0.47000000000E+01 0.  1.
         11    1    6    6    0    0 -0.14749352524E+02 -0.15340978356E+02  0.23803116773E+03  0.23898059718E+03  0.00000000000E+00 0. -1.
        -12    1    6    6    0    0  0.34767974760E+02  0.33392591965E+02  0.11482550233E+03  0.12453422522E+03  0.00000000000E+00 0.  1.
</event>
<event>
12    1  0.8358445E-002  0.2054880E+03  0.7818608E-02  0.1145241E+00
         21   -1    0    0  501  502  0.00000000000E+00  0.00000000000E+00  0.11094348634E+03  0.11094348634E+03  0.00000000000E+00 0.  1.
         21   -1    0    0  502  503 -0.00000000000E+00 -0.00000000000E+00 -0.39536094764E+03  0.39536094764E+03  0.00000000000E+00 0.  1.
         -6    2    1    2    0  503  0.10901682718E+03 -0.24907110140E+02 -0.19180360727E+03  0.28090997427E+03  0.17209519789E+03 0.  0.
        -24    2    3    3    0    0  0.60414452078E+02 -0.80223264439E+02 -0.10453394884E+03  0.16662895627E+03  0.82171676569E+02 0.  0.
          6    2    1    2  501    0 -0.10901682718E+03  0.24907110140E+02 -0.92613854031E+02  0.22539445971E+03  0.17239577653E+03 0.  0.
         24    2    5    5    0    0 -0.88933730279E+02  0.65995197674E+02 -0.11089190165E+03  0.17591983245E+03  0.79913697816E+02 0.  0.
          5    1    5    5  501    0 -0.20083096906E+02 -0.41088087535E+02  0.18278047619E+02  0.49474627269E+02  0.47000000000E+01 0. -1.
        -11    1    6    6    0    0 -0.48339228006E+02  0.20449405960E+02 -0.37449440374E+01  0.52620184095E+02  0.00000000000E+00 0.  1.
         12    1    6    6    0    0 -0.40594502273E+02  0.45545791714E+02 -0.10714695761E+03  0.12329964835E+03  0.00000000000E+00 0. -1.
         -5    1    3    3    0  503  0.48602375107E+02  0.55316154299E+02 -0.87269658424E+02  0.11428101799E+03  0.47000000000E+01 0.  1.
         13    1    4    4    0    0  0.75111364992E+02 -0.36409958044E+02 -0.64512744398E+02  0.10549548040E+03  0.00000000000E+00 0. -1.
        -14    1    4    4    0    0 -0.14696912914E+02 -0.43813306395E+02 -0.40021204444E+02  0.61133475867E+02  0.00000000000E+00 0.  1.
</event>
<event>
12    1  0.8358445E-002  0.2624047E+03  0.7818608E-02  0.1106018E+00
         21   -1    0    0  501  502  0.00000000000E+00  0.00000000000E+00  0.78935782606E+02  0.78935782606E+02  0.00000000000E+00 0. -1.
         21   -1    0    0  502  503 -0.00000000000E+00 -0.00000000000E+00 -0.10355160561E+04  0.10355160561E+04  0.00000000000E+00 0.  1.
         -6    2    1    2    0  503 -0.36488596807E+02  0.19497929869E+03 -0.70255707329E+03  0.74923410628E+03  0.16857330797E+03 0.  0.
        -24    2    3    3    0    0 -0.64363104729E+02  0.19332336678E+03 -0.65804105113E+03  0.69647525364E+03  0.10268018585E+03 0.  0.
          6    2    1    2  501    0  0.36488596807E+02 -0.19497929869E+03 -0.25402320024E+03  0.36521773246E+03  0.17177852379E+03 0.  0.
         24    2    5    5    0    0  0.75504773144E+02 -0.40809067900E+02 -0.11137765151E+03  0.15153440450E+03  0.56491979090E+02 0.  0.
          5    1    5    5  501    0 -0.39016176338E+02 -0.15417023079E+03 -0.14264554873E+03  0.21368332796E+03  0.47000000000E+01 0. -1.
        -13    1    6    6    0    0  0.41707811968E+02 -0.32956901015E+02 -0.10289585904E+03  0.11581561515E+03  0.00000000000E+00 0.  1.
         14    1    6    6    0    0  0.33796961177E+02 -0.78521668848E+01 -0.84817924664E+01  0.35718789355E+02  0.00000000000E+00 0. -1.
         -5    1    3    3    0  503  0.27874507922E+02  0.16559319116E+01 -0.44516022161E+02  0.52758852636E+02  0.47000000000E+01 0.  1.
         11    1    4    4    0    0 -0.69038015569E+02  0.14473343022E+03 -0.35511966204E+03  0.38964597751E+03  0.00000000000E+00 0. -1.
        -12    1    4    4    0    0  0.46749108403E+01  0.48589936557E+02 -0.30292138909E+03  0.30682927613E+03  0.00000000000E+00 0.  1.
</event>
<event>
12    1  0.8358445E-002  0.2229371E+03  0.7818608E-02  0.1132233E+00
         21   -1    0    0  503  502  0.00000000000E+00  0.00000000000E+00  0.15987441130E+03  0.15987441130E+03  0.00000000000E+00 0. -1.
         21   -1    0    0  501  503 -0.00000000000E+00 -0.00000000000E+00 -0.46929962280E+03  0.46929962280E+03  0.00000000000E+00 0.  1.
          6    2    1    2  501    0 -0.98539380994E+02 -0.95156614547E+02 -0.34038600590E+03  0.40689507420E+03  0.17588683150E+03 0.  0.
         24    2    3    3    0    0 -0.13700120225E+03 -0.90934143267E+02 -0.26399599549E+03  0.32113573273E+03  0.79974529543E+02 0.  0.
         -6    2    1    2    0  502  0.98539380994E+02  0.95156614547E+02  0.30960794399E+02  0.22227895990E+03  0.17229211916E+03 0.  0.
        -24    2    5    5    0    0  0.13837294922E+02  0.56201406613E+02 -0.37626570185E+02  0.10644171118E+03  0.81018579716E+02 0.  0.
          5    1    3    3  501    0  0.38461821252E+02 -0.42224712805E+01 -0.76390010414E+02  0.85759341467E+02  0.47000000000E+01 0. -1.
        -11    1    4    4    0    0 -0.12446454167E+03 -0.92758136438E+02 -0.26631957552E+03  0.30825575472E+03  0.00000000000E+00 0.  1.
         12    1    4    4    0    0 -0.12536660580E+02  0.18239931712E+01  0.23235800349E+01  0.12879978019E+02  0.00000000000E+00 0. -1.
         -5    1    5    5    0  502  0.84702086072E+02  0.38955207935E+02  0.68587364584E+02  0.11583724872E+03  0.47000000000E+01 0.  1.
         11    1    6    6    0    0  0.47070825135E+02  0.40852256092E+02 -0.17838652746E+02  0.64828905115E+02  0.00000000000E+00 0. -1.
        -12    1    6    6    0    0 -0.33233530212E+02  0.15349150520E+02 -0.19787917439E+02  0.41612806065E+02  0.00000000000E+00 0.  1.
</event>
<event>
12    1  0.8358445E-002  0.2391501E+03  0.7818608E-02  0.1120659E+00
         21   -1    0    0  503  502  0.00000000000E+00  0.00000000000E+00  0.33452878419E+03  0.33452878419E+03  0.00000000000E+00 0.  1.
         21   -1    0    0  501  503 -0.00000000000E+00 -0.00000000000E+00 -0.21920285205E+03  0.21920285205E+03  0.00000000000E+00 0. -1.
          6    2    1    2  501    0  0.13544129138E+03 -0.94983634149E+02 -0.74078962059E+02  0.24866278238E+03  0.17023293616E+03 0.  0.
         24    2    3    3    0    0  0.16821160701E+02  0.12799100395E+02 -0.21894741446E+02  0.80041502139E+02  0.74030358256E+02 0.  0.
         -6    2    1    2    0  502 -0.13544129138E+03  0.94983634149E+02  0.18940489420E+03  0.30506885387E+03  0.17270366958E+03 0.  0.
        -24    2    5    5    0    0 -0.31827042779E+02  0.10083514728E+03  0.87777695578E+02  0.15974050075E+03  0.81433507609E+02 0.  0.
          5    1    3    3  501    0  0.11862013068E+03 -0.10778273454E+03 -0.52184220613E+02  0.16862128024E+03  0.47000000000E+01 0. -1.
        -13    1    4    4    0    0 -0.77832361095E+01  0.30080323227E+02 -0.35382034041E+02  0.47088140148E+02  0.00000000000E+00 0.  1.
         14    1    4    4    0    0  0.24604396811E+02 -0.17281222831E+02  0.13487292595E+02  0.32953361991E+02  0.00000000000E+00 0. -1.
         -5    1    5    5    0  502 -0.10361424860E+03 -0.58515131279E+01  0.10162719862E+03  0.14532835311E+03  0.47000000000E+01 0.  1.
         11    1    6    6    0    0  0.86847672508E+01  0.21542624769E+02  0.63252673673E+02  0.67382568896E+02  0.00000000000E+00 0. -1.
        -12    1    6    6    0    0 -0.40511810030E+02  0.79292522508E+02  0.24525021905E+02  0.92357931857E+02  0.00000000000E+00 0.  1.
</event>
<event>
12    1  0.8358445E-002  0.2112657E+03  0.7818608E-02  0.1140966E+00
         21   -1    0    0  501  502  0.00000000000E+00  0.00000000000E+00  0.28314483369E+02  0.28314483369E+02  0.00000000000E+00 0. -1.
         21   -1    0    0  502  503 -0.00000000000E+00 -0.00000000000E+00 -0.15735575723E+04  0.15735575723E+04  0.00000000000E+00 0. -1.
         -6    2    1    2    0  503  0.23539137575E+02  0.11986518110E+03 -0.84694554925E+03  0.87289745313E+03  0.17237008920E+03 0.  0.
        -24    2    3    3    0    0  0.62986937864E+02  0.93367472076E+02 -0.77004541068E+03  0.78237685413E+03  0.80366461820E+02 0.  0.
          6    2    1    2  501    0 -0.23539137575E+02 -0.11986518110E+03 -0.69829753972E+03  0.72897460258E+03  0.16989044877E+03 0.  0.
         24    2    5    5    0    0 -0.78144113292E+02 -0.85939330568E+02 -0.49033206696E+03  0.51124909978E+03  0.86359916377E+02 0.  0.
          5    1    5    5  501    0  0.54604975717E+02 -0.33925850532E+02 -0.20796547276E+03  0.21772550280E+03  0.47000000000E+01 0. -1.
        -11    1    6    6    0    0 -0.60539309421E+01  0.14286485245E+02 -0.11720140603E+03  0.11822403866E+03  0.00000000000E+00 0.  1.
         12    1    6    6    0    0 -0.72090182349E+02 -0.10022581581E+03 -0.37313066093E+03  0.39302506112E+03  0.00000000000E+00 0. -1.
         -5    1    3    3    0  503 -0.39447800290E+02  0.26497709024E+02 -0.76900138561E+02  0.90520598992E+02  0.47000000000E+01 0.  1.
         13    1    4    4    0    0 -0.10500666214E+02  0.23349758097E+01 -0.20831591523E+03  0.20859347219E+03  0.00000000000E+00 0. -1.
        -14    1    4    4    0    0  0.73487604078E+02  0.91032496267E+02 -0.56172949545E+03  0.57378338194E+03  0.00000000000E+00 0.  1.
</event>
<event>
12    1  0.8358445E-002  0.2677685E+03  0.7818608E-02  0.1102630E+00
         21   -1    0    0  501  502  0.00000000000E+00  0.00000000000E+00  0.11287998917E+04  0.11287998917E+04  0.00000000000E+00 0. -1.
         21   -1    0    0  502  503 -0.00000000000E+00 -0.00000000000E+00 -0.10822760268E+03  0.10822760268E+03  0.00000000000E+00 0.  1.
         -6    2    1    2    0  503 -0.53161248047E+02 -0.19808283878E+03  0.11252366089E+03  0.29045054410E+03  0.17215404437E+03 0.  0.
        -24    2    3    3    0    0 -0.21731985834E+02 -0.20555748902E+03  0.12603750634E+03  0.25511808115E+03  0.80458820673E+02 0.  0.
          6    2    1    2  501    0  0.53161248047E+02  0.19808283878E+03  0.90804862812E+03  0.94657695027E+03  0.17144294220E+03 0.  0.
         24    2    5    5    0    0  0.82305080885E+02  0.67365157843E+02  0.45277647190E+03  0.47199155086E+03  0.80357325389E+02 0.  0.
          5    1    5    5  501    0 -0.29143832838E+02  0.13071768094E+03  0.45527215623E+03  0.47458539941E+03  0.47000000000E+01 0. -1.
        -13    1    6    6    0    0  0.53683109043E+02  0.57934779616E+02  0.16817072810E+03  0.18579480261E+03  0.00000000000E+00 0.  1.
         14    1    6    6    0    0  0.28621971841E+02  0.94303782270E+01  0.28460574380E+03  0.28619674825E+03  0.00000000000E+00 0. -1.
         -5    1    3    3    0  503 -0.31429262213E+02  0.74746502384E+01 -0.13513845448E+02  0.35332462952E+02  0.47000000000E+01 0.  1.
         13    1    4    4    0    0 -0.97943083004E+01 -0.47244569282E+02  0.73436626548E+02  0.87868742568E+02  0.00000000000E+00 0. -1.
        -14    1    4    4    0    0 -0.11937677533E+02 -0.15831291974E+03  0.52600879793E+02  0.16724933858E+03  0.00000000000E+00 0.  1.
</event>
<event>
12    1  0.8358445E-002  0.2063362E+03  0.7818608E-02  0.1144518E+00
         21   -1    0    0  501  502  0.00000000000E+00  0.00000000000E+00  0.35353213376E+02  0.35353213376E+02  0.00000000000E+00 0.  1.
         21   -1    0    0  502  503 -0.00000000000E+00 -0.00000000000E+00 -0.13237607247E+04  0.13237607247E+04  0.00000000000E+00 0.  1.
         -6    2    1    2    0  503 -0.50863144937E+02 -0.10229916747E+03 -0.84893404470E+03  0.87364960706E+03  0.17182096637E+03 0.  0.
        -24    2    3    3    0    0 -0.10110819568E+03 -0.69695411847E+02 -0.49387021980E+03  0.51353854119E+03  0.68802046640E+02 0.  0.
          6    2    1    2  501    0  0.50863144937E+02  0.10229916747E+03 -0.43947346660E+03  0.48546433099E+03  0.17171636394E+03 0.  0.
         24    2    5    5    0    0  0.44039230608E+02  0.10940781283E+03 -0.19403820575E+03  0.23978637937E+03  0.77052962956E+02 0.  0.
          5    1    5    5  501    0  0.68239143295E+01 -0.71086453561E+01 -0.24543526086E+03  0.24567795163E+03  0.47000000000E+01 0. -1.
        -13    1    6    6    0    0  0.32052717677E+02  0.55045014205E+01 -0.25058479309E+02  0.41056103464E+02  0.00000000000E+00 0.  1.
         14    1    6    6    0    0  0.11986512931E+02  0.10390331141E+03 -0.16897972644E+03  0.19873027590E+03  0.00000000000E+00 0. -1.
         -5    1    3    3    0  503  0.50245050739E+02 -0.32603755624E+02 -0.35506382490E+03  0.36011106587E+03  0.47000000000E+01 0.  1.
         13    1    4    4    0    0 -0.51845817099E+02  0.34538603526E+01 -0.20674540130E+03  0.21317499586E+03  0.00000000000E+00 0. -1.
        -14    1    4    4    0    0 -0.49262378577E+02 -0.73149272199E+02 -0.28712481850E+03  0.30036354533E+03  0.00000000000E+00 0.  1.
</event>
<event>
12    1  0.8358445E-002  0.1846678E+03  0.7818608E-02  0.1163604E+00
         21   -1    0    0  503  502  0.00000000000E+00  0.00000000000E+00  0.30955011793E+03  0.30955011793E+03  0.00000000000E+00 0. -1.
         21   -1    0    0  501  503 -0.00000000000E+00 -0.00000000000E+00 -0.13193847053E+03  0.13193847053E+03  0.00000000000E+00 0. -1.
          6    2    1    2  501    0  0.64855078632E+02 -0.15017454625E+02  0.17953373554E+03  0.25681081801E+03  0.17113657961E+03 0.  0.
         24    2    3    3    0    0  0.30585111118E+02  0.48435111723E+02  0.53192271615E+02  0.11126043375E+03  0.79171063464E+02 0.  0.
         -6    2    1    2    0  502 -0.64855078632E+02  0.15017454625E+02 -0.19220881456E+01  0.18467777045E+03  0.17225120989E+03 0.  0.
        -24    2    5    5    0    0 -0.92545553468E+02 -0.92933536207E+01 -0.41974108721E+02  0.13005147507E+03  0.80625768075E+02 0.  0.
          5    1    3    3  501    0  0.34269967515E+02 -0.63452566348E+02  0.12634146393E+03  0.14555038426E+03  0.47000000000E+01 0. -1.
        -13    1    4    4    0    0  0.35120608889E+02 -0.10614358606E+02  0.30942480624E+02  0.47995404827E+02  0.00000000000E+00 0.  1.
         14    1    4    4    0    0 -0.45354977708E+01  0.59049470329E+02  0.22249790991E+02  0.63265028928E+02  0.00000000000E+00 0. -1.
         -5    1    5    5    0  502  0.27690474835E+02  0.24310808246E+02  0.40052020575E+02  0.54626295374E+02  0.47000000000E+01 0.  1.
         13    1    6    6    0    0 -0.42492567359E+00  0.23488957837E+02 -0.17389149251E+02  0.29228311853E+02  0.00000000000E+00 0. -1.
        -14    1    6    6    0    0 -0.92120627794E+02 -0.32782311458E+02 -0.24584959470E+02  0.10082316322E+03  0.00000000000E+00 0.  1.
</event>
<event>
12    1  0.8358445E-002  0.3336868E+03  0.7818608E-02  0.1069695E+00
         21   -1    0    0  503  502  0.00000000000E+00  0.00000000000E+00  0.10573546619E+04  0.10573546619E+04  0.00000000000E+00 0.  1.
         21   -1    0    0  501  503 -0.00000000000E+00 -0.00000000000E+00 -0.11677977432E+03  0.11677977432E+03  0.00000000000E+00 0. -1.
          6    2    1    2  501    0  0.26985951896E+03 -0.89770386696E+02  0.65940693617E+03  0.73902933617E+03  0.17453930775E+03 0.  0.
         24    2    3    3    0    0  0.10829216769E+03 -0.21246016327E+02  0.42375812379E+03  0.44517214108E+03  0.80179180114E+02 0.  0.
         -6    2    1    2    0  502 -0.26985951896E+03  0.89770386696E+02  0.28116795141E+03  0.43510510006E+03  0.17140055103E+03 0.  0.
        -24    2    5    5    0    0 -0.22081491301E+03  0.12508057183E+03  0.25649582108E+03  0.36966056964E+03  0.80339624433E+02 0.  0.
          5    1    3    3  501    0  0.16156735127E+03 -0.68524370369E+02  0.23564881238E+03  0.29385719509E+03  0.47000000000E+01 0. -1.
        -13    1    4    4    0    0  0.92849578323E+02 -0.11531931634E+01  0.20620337174E+03  0.22614642285E+03  0.00000000000E+00 0.  1.
         14    1    4    4    0    0  0.15442589371E+02 -0.20092823163E+02  0.21755475205E+03  0.21902571823E+03  0.00000000000E+00 0. -1.
         -5    1    5    5    0  502 -0.49044605944E+02 -0.35310185139E+02  0.24672130335E+02  0.65444530421E+02  0.47000000000E+01 0.  1.
         11    1    6    6    0    0 -0.17736151484E+03  0.98407467269E+02  0.15225806776E+03  0.25362108698E+03  0.00000000000E+00 0. -1.
        -12    1    6    6    0    0 -0.43453398176E+02  0.26673104566E+02  0.10423775331E+03  0.11603948266E+03  0.00000000000E+00 0.  1.
</event>
<event>
12    1  0.8358445E-002  0.3503515E+03  0.7818608E-02  0.1062496E+00
         21   -1    0    0  501  502  0.00000000000E+00  0.00000000000E+00  0.36439494912E+03  0.36439494912E+03  0.00000000000E+00 0.  1.
         21   -1    0    0  502  503 -0.00000000000E+00 -0.00000000000E+00 -0.36941868305E+03  0.36941868305E+03  0.00000000000E+00 0. -1.
         -6    2    1    2    0  503  0.12646834836E+03 -0.27764985593E+03  0.10682346269E+03  0.36627503290E+03  0.17222793592E+03 0.  0.
        -24    2    3    3    0    0  0.26123737927E+00 -0.15017951556E+03  0.39664429586E+02  0.17467819508E+03  0.79907757589E+02 0.  0.
          6    2    1    2  501    0 -0.12646834836E+03  0.27764985593E+03 -0.11184719662E+03  0.36753859927E+03  0.17172984867E+03 0.  0.
         24    2    5    5    0    0 -0.14461539929E+03  0.24851512843E+03 -0.13306812176E+03  0.32691144741E+03  0.80564177215E+02 0.  0.
          5    1    5    5  501    0  0.18147050932E+02  0.29134727502E+02  0.21220925140E+02  0.40627151856E+02  0.47000000000E+01 0. -1.
        -11    1    6    6    0    0 -0.88810717912E+01  0.25788994690E+02  0.10447472051E+02  0.29207796143E+02  0.00000000000E+00 0.  1.
         12    1    6    6    0    0 -0.13573432750E+03  0.22272613374E+03 -0.14351559381E+03  0.29770365127E+03  0.00000000000E+00 0. -1.
         -5    1    3    3    0  503  0.12620711098E+03 -0.12747034037E+03  0.67159033107E+02  0.19159683782E+03  0.47000000000E+01 0.  1.
         11    1    4    4    0    0  0.22308963474E+01  0.89770384496E+01 -0.32859001059E+01  0.98163769969E+01  0.00000000000E+00 0. -1.
        -12    1    4    4    0    0 -0.19696589681E+01 -0.15915655401E+03  0.42950329692E+02  0.16486181809E+03  0.00000000000E+00 0.  1.
</event>
<event>
12    1  0.8358445E-002  0.2805000E+03  0.7818608E-02  0.1095522E+00
         21   -1    0    0  501  502  0.00000000000E+00  0.00000000000E+00  0.76096216248E+03  0.76096216248E+03  0.00000000000E+00 0.  1.
         21   -1    0    0  502  503 -0.00000000000E+00 -0.00000000000E+00 -0.11880990494E+03  0.11880990494E+03  0.00000000000E+00 0.  1.
         -6    2    1    2    0  503  0.20851748514E+03 -0.73463867181E+02  0.16078648983E+03  0.32264260630E+03  0.17137524529E+03 0.  0.
        -24    2    3    3    0    0  0.22592256488E+03 -0.82571714952E+02  0.16473013454E+03  0.30206271259E+03  0.79036521195E+02 0.  0.
          6    2    1    2  501    0 -0.20851748514E+03  0.73463867181E+02  0.48136576770E+03  0.55712946112E+03  0.17263763419E+03 0.  0.
         24    2    5    5    0    0 -0.12701487701E+03 -0.25089875613E+02  0.27390794845E+03  0.31337476451E+03  0.80099300650E+02 0.  0.
          5    1    5    5  501    0 -0.81502608130E+02  0.98553742794E+02  0.20745781925E+03  0.24375469661E+03  0.47000000000E+01 0. -1.
        -13    1    6    6    0    0 -0.51659601696E+02  0.11978904158E+02  0.17879210717E+03  0.18649082063E+03  0.00000000000E+00 0.  1.
         14    1    6    6    0    0 -0.75355275319E+02 -0.37068779771E+02  0.95115841284E+02  0.12688394388E+03  0.00000000000E+00 0. -1.
         -5    1    3    3    0  503 -0.17405079734E+02  0.91078477714E+01 -0.39436447102E+01  0.20579893711E+02  0.47000000000E+01 0.  1.
         11    1    4    4    0    0  0.42388627004E+02  0.11907026252E+02  0.47102600342E+02  0.64476568864E+02  0.00000000000E+00 0. -1.
        -12    1    4    4    0    0  0.18353393787E+03 -0.94478741204E+02  0.11762753420E+03  0.23758614373E+03  0.00000000000E+00 0.  1.
</event>
<event>
12    1  0.8358445E-002  0.2293921E+03  0.7818608E-02  0.1127692E+00
         21   -1    0    0  501  502  0.00000000000E+00  0.00000000000E+00  0.20408395838E+03  0.20408395838E+03  0.00000000000E+00 0.  1.
         21   -1    0    0  502  503 -0.00000000000E+00 -0.00000000000E+00 -0.30904201730E+03  0.30904201730E+03  0.00000000000E+00 0.  1.
         -6    2    1    2    0  503  0.14835795720E+03  0.14707715178E+02 -0.16050544872E+03  0.27710428092E+03  0.16970086355E+03 0.  0.
        -24    2    3    3    0    0  0.79429501276E+02  0.55432821730E+01 -0.16482766088E+03  0.20727670481E+03  0.97240428406E+02 0.  0.
          6    2    1    2  501    0 -0.14835795720E+03 -0.14707715178E+02  0.55547389800E+02  0.23602169475E+03  0.17433969005E+03 0.  0.
         24    2    5    5    0    0 -0.10527679901E+03  0.42897418199E+02  0.79437701235E+02  0.16007977903E+03  0.79948698421E+02 0.  0.
          5    1    5    5  501    0 -0.43081158188E+02 -0.57605133376E+02 -0.23890311435E+02  0.75941915716E+02  0.47000000000E+01 0. -1.
        -11    1    6    6    0    0 -0.64827748309E+02  0.80090949363E+00  0.78341845272E+02  0.10168934618E+03  0.00000000000E+00 0.  1.
         12    1    6    6    0    0 -0.40449050701E+02  0.42096508705E+02  0.10958559633E+01  0.58390432847E+02  0.00000000000E+00 0. -1.
         -5    1    3    3    0  503  0.68928455922E+02  0.91644330050E+01  0.43222121567E+01  0.69827576114E+02  0.47000000000E+01 0.  1.
         11    1    4    4    0    0 -0.25268553518E+01  0.11485332826E+02  0.91299398204E+01  0.14888037789E+02  0.00000000000E+00 0. -1.
        -12    1    4    4    0    0  0.81956356628E+02 -0.59420506526E+01 -0.17395760070E+03  0.19238866702E+03  0.00000000000E+00 0.  1.
</event>
<event>
12    1  0.8358445E-002  0.1969218E+03  0.7818608E-02  0.1153308E+00
         21   -1    0    0  501  502  0.00000000000E+00  0.00000000000E+00  0.19727990438E+03  0.19727990438E+03  0.00000000000E+00 0. -1.
         21   -1    0    0  502  503 -0.00000000000E+00 -0.00000000000E+00 -0.32204309428E+03  0.32204309428E+03  0.00000000000E+00 0.  1.
         -6    2    1    2    0  503  0.71801700545E+02 -0.54488972688E+02 -0.22680219570E+03  0.29753448480E+03  0.17018519713E+03 0.  0.
        -24    2    3    3    0    0  0.77090154437E+01  0.26250727294E+02 -0.62901963580E+02  0.10385395525E+03  0.77977287692E+02 0.  0.
          6    2    1    2  501    0 -0.71801700545E+02  0.54488972688E+02  0.10203900581E+03  0.22178851387E+03  0.17508184895E+03 0.  0.
         24    2    5    5    0    0 -0.49669275212E+02 -0.26195509177E+02  0.97565301244E+02  0.13787228244E+03  0.79602365900E+02 0.  0.
          5    1    5    5  501    0 -0.22132425333E+02  0.80684481865E+02  0.44737045625E+01  0.83916231430E+02  0.47000000000E+01 0. -1.
        -13    1    6    6    0    0  0.10746627090E+02  0.15443951709E+02  0.44734892297E+01  0.19339538363E+02  0.00000000000E+00 0.  1.
         14    1    6    6    0    0 -0.60415902303E+02 -0.41639460886E+02  0.93091812014E+02  0.11853274408E+03  0.00000000000E+00 0. -1.
         -5    1    3    3    0  503  0.64092685101E+02 -0.80739699983E+02 -0.16390023212E+03  0.19368052955E+03  0.47000000000E+01 0.  1.
         11    1    4    4    0    0 -0.26222325331E+02  0.54525650458E+01  0.29134613921E+01  0.26941215055E+02  0.00000000000E+00 0. -1.
        -12    1    4    4    0    0  0.33931340775E+02  0.20798162249E+02 -0.65815424972E+02  0.76912740192E+02  0.00000000000E+00 0.  1.
</event>
<event>
12    1  0.8358445E-002  0.1918008E+03  0.7818608E-02  0.1156941E+00
         21   -1    0    0  503  502  0.00000000000E+00  0.00000000000E+00  0.30268433645E+03  0.30268433645E+03  0.00000000000E+00 0.  1.
         21   -1    0    0  501  503 -0.00000000000E+00 -0.00000000000E+00 -0.57127854921E+03  0.57127854921E+03  0.00000000000E+00 0.  1.
          6    2    1    2  501    0  0.84742827384E+02  0.54655600736E+01 -0.52210247827E+03  0.55607296292E+03  0.17150779322E+03 0.  0.
         24    2    3    3    0    0  0.41806391718E+02 -0.43026692575E+02 -0.14885820101E+03  0.17722151897E+03  0.75164034727E+02 0.  0.
         -6    2    1    2    0  502 -0.84742827384E+02 -0.54655600736E+01  0.25350826551E+03  0.31788992274E+03  0.17197774030E+03 0.  0.
        -24    2    5    5    0    0  0.19221218850E+02  0.15123165488E+02  0.13891876181E+03  0.16173210870E+03  0.79124504496E+02 0.  0.
          5    1    3    3  501    0  0.42936435666E+02  0.48492252649E+02 -0.37324427726E+03  0.37885144395E+03  0.47000000000E+01 0. -1.
        -13    1    4    4    0    0  0.44031374542E+02  0.28675894641E+01 -0.10415132111E+03  0.11311269912E+03  0.00000000000E+00 0.  1.
         14    1    4    4    0    0 -0.22249828238E+01 -0.45894282039E+02 -0.44706879901E+02  0.64108819853E+02  0.00000000000E+00 0. -1.
         -5    1    5    5    0  502 -0.10396404623E+03 -0.20588725562E+02  0.11458950370E+03  0.15615781405E+03  0.47000000000E+01 0.  1.
         13    1    6    6    0    0  0.45602123923E-02 -0.27385210054E+02  0.19768246877E+02  0.33774744042E+02  0.00000000000E+00 0. -1.
        -14    1    6    6    0    0  0.19216658638E+02  0.42508375542E+02  0.11915051493E+03  0.12795736465E+03  0.00000000000E+00 0.  1.
</event>
<event>
12    1  0.8358445E-002  0.1866326E+03  0.7818608E-02  0.1162851E+00
         21   -1    0    0  501  502  0.00000000000E+00  0.00000000000E+00  0.35566384910E+03  0.35566384910E+03  0.00000000000E+00 0. -1.
         21   -1    0    0  502  503 -0.00000000000E+00 -0.00000000000E+00 -0.98993915570E+02  0.98993915570E+02  0.00000000000E+00 0. -1.
         -6    2    1    2    0  503 -0.65260813010E+02  0.30861505930E+02  0.17580552172E+03  0.25639681630E+03  0.17210560618E+03 0.  0.
        -24    2    3    3    0    0 -0.46518635085E+02  0.12422326510E+02  0.19955730110E+03  0.22065455009E+03  0.80913635730E+02 0.  0.
          6    2    1    2  501    0  0.65260813010E+02 -0.30861505930E+02  0.80864411810E+02  0.19826094837E+03  0.16600284422E+03 0.  0.
         24    2    5    5    0    0 -0.20903089494E+02 -0.46738855734E+02  0.55138596617E+02  0.10682673213E+03  0.75830245123E+02 0.  0.
          5    1    5    5  501    0  0.86163902504E+02  0.15877349804E+02  0.25725815193E+02  0.91434216237E+02  0.47000000000E+01 0. -1.
        -11    1    6    6    0    0 -0.74224098660E+01 -0.22977019254E+02 -0.17104552269E+02  0.29590560832E+02  0.00000000000E+00 0.  1.
         12    1    6    6    0    0 -0.13480679628E+02 -0.23761836480E+02  0.72243148886E+02  0.77236171300E+02  0.00000000000E+00 0. -1.
         -5    1    3    3    0  503 -0.18742177925E+02  0.18439179420E+02 -0.23751779373E+02  0.35742266218E+02  0.47000000000E+01 0.  1.
         13    1    4    4    0    0 -0.40071301030E+02  0.12981289968E+02  0.31812645129E+02  0.52785106286E+02  0.00000000000E+00 0. -1.
        -14    1    4    4    0    0 -0.64473340556E+01 -0.55896345778E+00  0.16774465597E+03  0.16786944380E+03  0.00000000000E+00 0.  1.
</event>
<event>
12    1  0.8358445E-002  0.3028699E+03  0.7818608E-02  0.1083840E+00
         21   -1    0    0  501  502  0.00000000000E+00  0.00000000000E+00  0.39511170810E+03  0.39511170810E+03  0.00000000000E+00 0. -1.
         21   -1    0    0  502  503 -0.00000000000E+00 -0.00000000000E+00 -0.25640544906E+03  0.25640544906E+03  0.00000000000E+00 0. -1.
         -6    2    1    2    0  503  0.10502066036E+03  0.22588998163E+03 -0.31157990217E+02  0.30426499496E+03  0.17190329811E+03 0.  0.
        -24    2    3    3    0    0  0.15971361378E+02  0.15580408275E+03  0.18199594316E+02  0.18057153506E+03  0.88004871762E+02 0.  0.
          6    2    1    2  501    0 -0.10502066036E+03 -0.22588998163E+03  0.16986424926E+03  0.34725216219E+03  0.17226310710E+03 0.  0.
         24    2    5    5    0    0 -0.10691037894E+03 -0.22741778929E+03  0.10783064216E+03  0.28499331830E+03  0.80281156440E+02 0.  0.
          5    1    5    5  501    0  0.18897185717E+01  0.15278076600E+01  0.62033607101E+02  0.62258843889E+02  0.47000000000E+01 0. -1.
        -13    1    6    6    0    0 -0.21783606048E+02 -0.13637939502E+02  0.35423874391E+02  0.43764937601E+02  0.00000000000E+00 0.  1.
         14    1    6    6    0    0 -0.85126772888E+02 -0.21377984979E+03  0.72406767767E+02  0.24122838070E+03  0.00000000000E+00 0. -1.
         -5    1    3    3    0  503  0.89049298986E+02  0.70085898878E+02 -0.49357584532E+02  0.12369345990E+03  0.47000000000E+01 0.  1.
         13    1    4    4    0    0  0.25341246436E+02  0.12544241283E+03 -0.21449277160E+02  0.12976150893E+03  0.00000000000E+00 0. -1.
        -14    1    4    4    0    0 -0.93698850578E+01  0.30361669920E+02  0.39648871476E+02  0.50810026133E+02  0.00000000000E+00 0.  1.
</event>
<event>
12    1  0.8358445E-002  0.1904146E+03  0.7818608E-02  0.1158879E+00
         21   -1    0    0  503  502  0.00000000000E+00  0.00000000000E+00  0.10820976811E+04  0.10820976811E+04  0.00000000000E+00 0.  1.
         21   -1    0    0  501  503 -0.00000000000E+00 -0.00000000000E+00 -0.40228880061E+02  0.40228880061E+02  0.00000000000E+00 0.  1.
          6    2    1    2  501    0 -0.49200967352E+02  0.62716904183E+02  0.28530544413E+03  0.34301155336E+03  0.17292652783E+03 0.  0.
         24    2    3    3    0    0  0.26312567645E+01 -0.41636510696E+01  0.22543491008E+03  0.23925145035E+03  0.79975610718E+02 0.  0.
         -6    2    1    2    0  502  0.49200967352E+02 -0.62716904183E+02  0.75656335688E+03  0.77931500778E+03  0.16908466257E+03 0.  0.
        -24    2    5    5    0    0  0.23812696489E+02 -0.10667919018E+03  0.52314873232E+03  0.54039718959E+03  0.79981449473E+02 0.  0.
          5    1    3    3  501    0 -0.51832224117E+02  0.66880555252E+02  0.59870534047E+02  0.10376010300E+03  0.47000000000E+01 0. -1.
        -11    1    4    4    0    0  0.87274385143E+01  0.33523872601E+02  0.58330915123E+02  0.67841829841E+02  0.00000000000E+00 0.  1.
         12    1    4    4    0    0 -0.60961817498E+01 -0.37687523671E+02  0.16710399496E+03  0.17140962051E+03  0.00000000000E+00 0. -1.
         -5    1    5    5    0  502  0.25388270864E+02  0.43962286000E+02  0.23341462456E+03  0.23891781818E+03  0.47000000000E+01 0.  1.
         13    1    6    6    0    0 -0.18436690078E+02 -0.86141135592E+02  0.35985605328E+03  0.37048155942E+03  0.00000000000E+00 0. -1.
        -14    1    6    6    0    0  0.42249386567E+02 -0.20538054590E+02  0.16329267903E+03  0.16991563018E+03  0.00000000000E+00 0.  1.
</event>
<event>
12    1  0.8358445E-002  0.2382355E+03  0.7818608E-02  0.1121228E+00
         21   -1    0    0  503  502  0.00000000000E+00  0.00000000000E+00  0.95895663087E+03  0.95895663087E+03  0.00000000000E+00 0.  1.
         21   -1    0    0  501  503 -0.00000000000E+00 -0.00000000000E+00 -0.33934449333E+03  0.33934449333E+03  0.00000000000E+00 0.  1.
          6    2    1    2  501    0  0.12277807313E+03 -0.11041676757E+03 -0.28058677887E+03  0.36711142268E+03  0.16963354145E+03 0.  0.
         24    2    3    3    0    0  0.21994859052E+02 -0.10347200316E+03 -0.18904406836E+03  0.23070158492E+03  0.79343129756E+02 0.  0.
         -6    2    1    2    0  502 -0.12277807313E+03  0.11041676757E+03  0.90019891641E+03  0.93118970152E+03  0.17172609969E+03 0.  0.
        -24    2    5    5    0    0 -0.58990109195E+02 -0.97367778837E+01  0.34988849312E+03  0.36429515153E+03  0.81941210540E+02 0.  0.
          5    1    3    3  501    0  0.10078321407E+03 -0.69447644162E+01 -0.91542710512E+02  0.13640983777E+03  0.47000000000E+01 0. -1.
        -13    1    4    4    0    0  0.27088238074E+02 -0.86892188128E+02 -0.82778015463E+02  0.12302936578E+03  0.00000000000E+00 0.  1.
         14    1    4    4    0    0 -0.50933790222E+01 -0.16579815028E+02 -0.10626605290E+03  0.10767221914E+03  0.00000000000E+00 0. -1.
         -5    1    5    5    0  502 -0.63787963930E+02  0.12015354546E+03  0.55031042329E+03  0.56689454999E+03  0.47000000000E+01 0.  1.
         11    1    6    6    0    0 -0.15112492338E+02 -0.15854901742E+02  0.28432296753E+03  0.28516541725E+03  0.00000000000E+00 0. -1.
        -12    1    6    6    0    0 -0.43877616857E+02  0.61181238581E+01  0.65565525594E+02  0.79129734279E+02  0.00000000000E+00 0.  1.
</event>
<event>
12    1  0.8358445E-002  0.1800733E+03  0.7818608E-02  0.1169071E+00
         21   -1    0    0  501  502  0.00000000000E+00  0.00000000000E+00  0.11569658422E+04  0.11569658422E+04  0.00000000000E+00 0.  1.
         21   -1    0    0  502  503 -0.00000000000E+00 -0.00000000000E+00 -0.27956886463E+02  0.27956886463E+02  0.00000000000E+00 0.  1.
         -6    2    1    2    0  503 -0.45544610196E+02  0.84853168362E+01  0.67131862972E+03  0.69505042418E+03  0.17401171637E+03 0.  0.
        -24    2    3    3    0    0 -0.11785612525E+02 -0.55857274770E+02  0.49000266275E+03  0.49966053475E+03  0.79366899094E+02 0.  0.
          6    2    1    2  501    0  0.45544610196E+02 -0.84853168362E+01  0.45769032600E+03  0.48987230446E+03  0.16836902340E+03 0.  0.
         24    2    5    5    0    0 -0.14684473920E+01  0.53953500887E+02  0.24658216700E+03  0.26471107702E+03  0.79724855735E+02 0.  0.
          5    1    5    5  501    0  0.47013057588E+02 -0.62438817724E+02  0.21110815901E+03  0.22516122744E+03  0.47000000000E+01 0. -1.
        -13    1    6    6    0    0 -0.11801015572E+02  0.88446974366E+01  0.19442488358E+03  0.19498340442E+03  0.00000000000E+00 0.  1.
         14    1    6    6    0    0  0.10332568180E+02  0.45108803451E+02  0.52157283410E+02  0.69727672604E+02  0.00000000000E+00 0. -1.
         -5    1    3    3    0  503 -0.33758997671E+02  0.64342591606E+02  0.18131596696E+03  0.19538988944E+03  0.47000000000E+01 0.  1.
         13    1    4    4    0    0  0.28917413610E+02 -0.38361053168E+01  0.20739511152E+03  0.20943654122E+03  0.00000000000E+00 0. -1.
        -14    1    4    4    0    0 -0.40703026135E+02 -0.52021169453E+02  0.28260755123E+03  0.29022399353E+03  0.00000000000E+00 0.  1.
</event>
<event>
12    1  0.8358445E-002  0.2492082E+03  0.7818608E-02  0.1114015E+00
         21   -1    0    0  501  502  0.00000000000E+00  0.00000000000E+00  0.65954018281E+03  0.65954018281E+03  0.00000000000E+00 0.  1.
         21   -1    0    0  502  503 -0.00000000000E+00 -0.00000000000E+00 -0.13259572624E+03  0.13259572624E+03  0.00000000000E+00 0. -1.
         -6    2    1    2    0  503  0.17764502603E+03  0.17978834635E+02  0.49361218795E+02  0.25404967243E+03  0.17384968326E+03 0.  0.
        -24    2    3    3    0    0  0.17987064714E+03 -0.30684897030E+02  0.28103613258E+02  0.20069156187E+03  0.78691024398E+02 0.  0.
          6    2    1    2  501    0 -0.17764502603E+03 -0.17978834635E+02  0.47758323777E+03  0.53808623662E+03  0.17195945821E+03 0.  0.
         24    2    5    5    0    0 -0.68732667162E+02 -0.56303253346E+02  0.34607073703E+03  0.36301970402E+03  0.64219269728E+02 0.  0.
          5    1    5    5  501    0 -0.10891235887E+03  0.38324418710E+02  0.13151250074E+03  0.17506653259E+03  0.47000000000E+01 0. -1.
        -13    1    6    6    0    0 -0.80115556591E+02 -0.46918985604E+02  0.26959131449E+03  0.28513044465E+03  0.00000000000E+00 0.  1.
         14    1    6    6    0    0  0.11382889429E+02 -0.93842677413E+01  0.76479422547E+02  0.77889259374E+02  0.00000000000E+00 0. -1.
         -5    1    3    3    0  503 -0.22256211060E+01  0.48663731665E+02  0.21257605537E+02  0.53358110555E+02  0.47000000000E+01 0.  1.
         11    1    4    4    0    0  0.30742942622E+02  0.59339933466E+01 -0.23003472069E+02  0.38852291121E+02  0.00000000000E+00 0. -1.
        -12    1    4    4    0    0  0.14912770452E+03 -0.36618890376E+02  0.51107085327E+02  0.16183927075E+03  0.00000000000E+00 0.  1.
</event>
<event>
12    1  0.8358445E-002  0.3644324E+03  0.7818608E-02  0.1056966E+00
         21   -1    0    0  503  502  0.00000000000E+00  0.00000000000E+00  0.48404720776E+03  0.48404720776E+03  0.00000000000E+00 0.  1.
         21   -1    0    0  501  503 -0.00000000000E+00 -0.00000000000E+00 -0.32303335925E+03  0.32303335925E+03  0.00000000000E+00 0. -1.
          6    2    1    2  501    0  0.11943024686E+03  0.29804250733E+03 -0.77754437681E+02  0.37139576337E+03  0.16969425574E+03 0.  0.
         24    2    3    3    0    0 -0.32310857013E+01  0.76435378126E+02 -0.23032504163E+02  0.11221995002E+03  0.78803641986E+02 0.  0.
         -6    2    1    2    0  502 -0.11943024686E+03 -0.29804250733E+03  0.23876828619E+03  0.43568480364E+03  0.17238919222E+03 0.  0.
        -24    2    5    5    0    0 -0.13432176057E+03 -0.18137295793E+03  0.19989286390E+03  0.31172138405E+03  0.79212240263E+02 0.  0.
          5    1    3    3  501    0  0.12266133256E+03  0.22160712920E+03 -0.54721933518E+02  0.25917581335E+03  0.47000000000E+01 0. -1.
        -11    1    4    4    0    0 -0.51919816031E+01  0.16767091842E+02  0.28422260455E+02  0.33405342854E+02  0.00000000000E+00 0.  1.
         12    1    4    4    0    0  0.19608959019E+01  0.59668286284E+02 -0.51454764618E+02  0.78814607166E+02  0.00000000000E+00 0. -1.
         -5    1    5    5    0  502  0.14891513714E+02 -0.11666954940E+03  0.38875422288E+02  0.12396341959E+03  0.47000000000E+01 0.  1.
         13    1    6    6    0    0 -0.80245085843E+02 -0.59111324083E+02  0.52198005697E+02  0.11250801854E+03  0.00000000000E+00 0. -1.
        -14    1    6    6    0    0 -0.54076674729E+02 -0.12226163385E+03  0.14769485820E+03  0.19921336551E+03  0.00000000000E+00 0.  1.
</event>
<event>
12    1  0.8358445E-002  0.1766318E+03  0.7818608E-02  0.1171828E+00
         21   -1    0    0  501  502  0.00000000000E+00  0.00000000000E+00  0.18704390687E+03  0.18704390687E+03  0.00000000000E+00 0. -1.
         21   -1    0    0  502  503 -0.00000000000E+00 -0.00000000000E+00 -0.46090154552E+03  0.46090154552E+03  0.00000000000E+00 0. -1.
         -6    2    1    2    0  503  0.20776624454E+02 -0.32529825530E+02 -0.39731791624E+03  0.43481068154E+03  0.17236282820E+03 0.  0.
        -24    2    3    3    0    0 -0.21683688691E+02  0.16898155733E+02 -0.10324043597E+03  0.13356384268E+03  0.80155988103E+02 0.  0.
          6    2    1    2  501    0 -0.20776624454E+02  0.32529825530E+02  0.12346027759E+03  0.21313477085E+03  0.16939342588E+03 0.  0.
         24    2    5    5    0    0  0.10515312176E+02  0.99268284974E+01  0.14666672531E+03  0.16785000533E+03  0.80332946317E+02 0.  0.
          5    1    5    5  501    0 -0.31291936629E+02  0.22602997033E+02 -0.23206447713E+02  0.45284765521E+02  0.47000000000E+01 0. -1.
        -11    1    6    6    0    0  0.19071995417E+01 -0.33654729156E+02  0.40044333956E+02  0.52343355706E+02  0.00000000000E+00 0.  1.
         12    1    6    6    0    0  0.86081126338E+01  0.43581557653E+02  0.10662239135E+03  0.11550664963E+03  0.00000000000E+00 0. -1.
         -5    1    3    3    0  503  0.42460313145E+02 -0.49427981263E+02 -0.29407748027E+03  0.30124683887E+03  0.47000000000E+01 0.  1.
         13    1    4    4    0    0 -0.49557346235E+02  0.20236836946E+02 -0.83722632747E+02  0.99372729506E+02  0.00000000000E+00 0. -1.
        -14    1    4    4    0    0  0.27873657544E+02 -0.33386812129E+01 -0.19517803222E+02  0.34191113169E+02  0.00000000000E+00 0.  1.
</event>
<event>
12    1  0.8358445E-002  0.1897390E+03  0.7818608E-02  0.1159850E+00
         21   -1    0    0  501  502  0.00000000000E+00  0.00000000000E+00  0.34346581690E+03  0.34346581690E+03  0.00000000000E+00 0. -1.
         21   -1    0    0  502  503 -0.00000000000E+00 -0.00000000000E+00 -0.17808341420E+03  0.17808341420E+03  0.00000000000E+00 0.  1.
         -6    2    1    2    0  503 -0.20167140607E+02 -0.76677483594E+02 -0.87051264782E+02  0.20875540525E+03  0.17237965794E+03 0.  0.
        -24    2    3    3    0    0 -0.28272853531E+01 -0.75171637451E+02  0.90111927777E+01  0.11101583340E+03  0.81145209659E+02 0.  0.
          6    2    1    2  501    0  0.20167140607E+02  0.76677483594E+02  0.25243366748E+03  0.31279382586E+03  0.16682646962E+03 0.  0.
         24    2    5    5    0    0  0.70932255434E+02  0.73171230767E+02  0.20885096001E+03  0.24563034558E+03  0.79562109700E+02 0.  0.
          5    1    5    5  501    0 -0.50765114827E+02  0.35062528278E+01  0.43582707464E+02  0.67163480272E+02  0.47000000000E+01 0. -1.
        -11    1    6    6    0    0  0.54605112339E+02  0.79190450948E+00  0.99112227045E+02  0.11316173804E+03  0.00000000000E+00 0.  1.
         12    1    6    6    0    0  0.16327143095E+02  0.72379326257E+02  0.10973873297E+03  0.13246860754E+03  0.00000000000E+00 0. -1.
         -5    1    3    3    0  503 -0.17339855254E+02 -0.15058461432E+01 -0.96062457559E+02  0.97739571849E+02  0.47000000000E+01 0.  1.
         11    1    4    4    0    0  0.77638883339E+01 -0.49706938375E+01  0.34402663857E+02  0.35616415313E+02  0.00000000000E+00 0. -1.
        -12    1    4    4    0    0 -0.10591173687E+02 -0.70200943614E+02 -0.25391471079E+02  0.75399418087E+02  0.00000000000E+00 0.  1.
</event>
<event>
12    1  0.8358445E-002  0.2438945E+03  0.7818608E-02  0.1117537E+00
         21   -1    0    0  501  502  0.00000000000E+00  0.00000000000E+00  0.53630429845E+02  0.53630429845E+02  0.00000000000E+00 0. -1.
         21   -1    0    0  502  503 -0.00000000000E+00 -0.00000000000E+00 -0.23925880535E+04  0.23925880535E+04  0.00000000000E+00 0. -1.
         -6    2    1    2    0  503 -0.11357426984E+03 -0.12790960448E+03 -0.20661904993E+04  0.20803135181E+04  0.17117585266E+03 0.  0.
        -24    2    3    3    0    0 -0.14347211093E+03 -0.78574001073E+02 -0.16756395914E+04  0.16854971249E+04  0.79839824643E+02 0.  0.
          6    2    1    2  501    0  0.11357426984E+03  0.12790960448E+03 -0.27276712432E+03  0.36590496520E+03  0.17385211463E+03 0.  0.
         24    2    5    5    0    0  0.87692515505E+02  0.17423506288E+02 -0.10691117528E+03  0.16488922220E+03  0.88118671985E+02 0.  0.
          5    1    5    5  501    0  0.25881754331E+02  0.11048609819E+03 -0.16585594904E+03  0.20101574300E+03  0.47000000000E+01 0. -1.
        -13    1    6    6    0    0  0.29216335210E+02  0.30334119605E+02  0.26588958065E+00  0.42116787064E+02  0.00000000000E+00 0.  1.
         14    1    6    6    0    0  0.58476180295E+02 -0.12910613317E+02 -0.10717706486E+03  0.12277243514E+03  0.00000000000E+00 0. -1.
         -5    1    3    3    0  503  0.29897841089E+02 -0.49335603407E+02 -0.39055090788E+03  0.39481639317E+03  0.47000000000E+01 0.  1.
         11    1    4    4    0    0 -0.91102756265E+02 -0.31861458232E+02 -0.12838333998E+04  0.12874560432E+04  0.00000000000E+00 0. -1.
        -12    1    4    4    0    0 -0.52369354661E+02 -0.46712542842E+02 -0.39180619159E+03  0.39804108171E+03  0.00000000000E+00 0.  1.
</event>
<event>
12    1  0.8358445E-002  0.2431483E+03  0.7818608E-02  0.1118301E+00
         21   -1    0    0  503  502  0.00000000000E+00  0.00000000000E+00  0.11451339499E+03  0.11451339499E+03  0.00000000000E+00 0. -1.
         21   -1    0    0  501  503 -0.00000000000E+00 -0.00000000000E+00 -0.86424701091E+03  0.86424701091E+03  0.00000000000E+00 0.  1.
          6    2    1    2  501    0 -0.95717871529E+02 -0.14233550472E+03 -0.69035807971E+03  0.73192580283E+03  0.17233628694E+03 0.  0.
         24    2    3    3    0    0 -0.17988852121E+02 -0.78834280766E+02 -0.53372075991E+03  0.54583027399E+03  0.80835609838E+02 0.  0.
         -6    2    1    2    0  502  0.95717871529E+02  0.14233550472E+03 -0.59375536201E+02  0.24683460307E+03  0.16727390753E+03 0.  0.
        -24    2    5    5    0    0  0.56725346242E+02  0.56913470430E+02  0.28188350655E+02  0.11835555711E+03  0.82198216298E+02 0.  0.
          5    1    3    3  501    0 -0.77729019408E+02 -0.63501223952E+02 -0.15663731980E+03  0.18609552884E+03  0.47000000000E+01 0. -1.
        -11    1    4    4    0    0 -0.37626356929E+02 -0.41837680295E+02 -0.15681969791E+03  0.16660897899E+03  0.00000000000E+00 0.  1.
         12    1    4    4    0    0  0.19637504807E+02 -0.36996600472E+02 -0.37690106200E+03  0.37922129500E+03  0.00000000000E+00 0. -1.
         -5    1    5    5    0  502  0.38992525287E+02  0.85422034289E+02 -0.87563886856E+02  0.12847904596E+03  0.47000000000E+01 0.  1.
         13    1    6    6    0    0  0.62165933750E+02  0.73880003596E+02  0.19384004382E+02  0.98481459556E+02  0.00000000000E+00 0. -1.
        -14    1    6    6    0    0 -0.54405875081E+01 -0.16966533166E+02  0.88043462722E+01  0.19874097549E+02  0.00000000000E+00 0.  1.
</event>
<event>
12    1  0.8358445E-002  0.1810149E+03  0.7818608E-02  0.1167075E+00
         21   -1    0    0  503  502  0.00000000000E+00  0.00000000000E+00  0.53599428389E+03  0.53599428389E+03  0.00000000000E+00 0. -1.
         21   -1    0    0  501  503 -0.00000000000E+00 -0.00000000000E+00 -0.60916669428E+02  0.60916669428E+02  0.00000000000E+00 0. -1.
          6    2    1    2  501    0 -0.43418108301E+02 -0.31390656182E+02  0.25094272232E+03  0.30880878057E+03  0.17181416602E+03 0.  0.
         24    2    3    3    0    0  0.39939028948E+02  0.22406816959E+01  0.11693427847E+03  0.14737820032E+03  0.80290483609E+02 0.  0.
         -6    2    1    2    0  502  0.43418108301E+02  0.31390656182E+02  0.22413489214E+03  0.28810217275E+03  0.17290432801E+03 0.  0.
        -24    2    5    5    0    0  0.24657268529E+02 -0.29105774799E+02  0.50559981754E+02  0.10327217847E+03  0.81570240120E+02 0.  0.
          5    1    3    3  501    0 -0.83357137249E+02 -0.33631337878E+02  0.13400844385E+03  0.16143058025E+03  0.47000000000E+01 0. -1.
        -11    1    4    4    0    0  0.55514282087E+02 -0.18225143081E+02  0.54695105012E+02  0.80034654171E+02  0.00000000000E+00 0.  1.
         12    1    4    4    0    0 -0.15575253139E+02  0.20465824777E+02  0.62239173462E+02  0.67343546145E+02  0.00000000000E+00 0. -1.
         -5    1    5    5    0  502  0.18760839771E+02  0.60496430981E+02  0.17357491039E+03  0.18482999428E+03  0.47000000000E+01 0.  1.
         13    1    6    6    0    0  0.20190227326E+02  0.16261915589E+02  0.51519991585E+02  0.57674992076E+02  0.00000000000E+00 0. -1.
        -14    1    6    6    0    0  0.44670412034E+01 -0.45367690388E+02 -0.96000983051E+00  0.45597186395E+02  0.00000000000E+00 0.  1.
</event>
<event>
12    1  0.8358445E-002  0.1820338E+03  0.7818608E-02  0.1166500E+00
         21   -1    0    0  501  502  0.00000000000E+00  0.00000000000E+00  0.85199937034E+02  0.85199937034E+02  0.00000000000E+00 0.  1.
         21   -1    0    0  502  503 -0.00000000000E+00 -0.00000000000E+00 -0.48638541808E+03  0.48638541808E+03  0.00000000000E+00 0.  1.
         -6    2    1    2    0  503  0.56736886884E+02 -0.65360793478E+01 -0.33106552220E+03  0.37651328088E+03  0.16998845849E+03 0.  0.
        -24    2    3    3    0    0  0.16137201170E+02 -0.95111527877E+01 -0.58443002415E+02  0.10082810928E+03  0.79999073752E+02 0.  0.
          6    2    1    2  501    0 -0.56736886884E+02  0.65360793478E+01 -0.70119958844E+02  0.19507207424E+03  0.17284244517E+03 0.  0.
         24    2    5    5    0    0 -0.43082157619E+02  0.55209565961E+02  0.11820879974E+02  0.98677307800E+02  0.68507732356E+02 0.  0.
          5    1    5    5  501    0 -0.13654729265E+02 -0.48673486613E+02 -0.81940838817E+02  0.96394766437E+02  0.47000000000E+01 0. -1.
        -11    1    6    6    0    0  0.16698174270E+02  0.24099320277E+02  0.10901358443E+02  0.31280119527E+02  0.00000000000E+00 0.  1.
         12    1    6    6    0    0 -0.59780331888E+02  0.31110245684E+02  0.91952153142E+00  0.67397188273E+02  0.00000000000E+00 0. -1.
         -5    1    3    3    0  503  0.40599685714E+02  0.29750734399E+01 -0.27262251979E+03  0.27568517160E+03  0.47000000000E+01 0.  1.
         11    1    4    4    0    0 -0.18867223426E+02 -0.95253959010E+01 -0.62133335122E+02  0.65629693130E+02  0.00000000000E+00 0. -1.
        -12    1    4    4    0    0  0.35004424596E+02  0.14243113291E-01  0.36903327075E+01  0.35198416153E+02  0.00000000000E+00 0.  1.
</event>
<event>
12    1  0.8358445E-002  0.1798913E+03  0.7818608E-02  0.1168252E+00
         21   -1    0    0  501  502  0.00000000000E+00  0.00000000000E+00  0.40819659275E+03  0.40819659275E+03  0.00000000000E+00 0.  1.
         21   -1    0    0  502  503 -0.00000000000E+00 -0.00000000000E+00 -0.11009843020E+03  0.11009843020E+03  0.00000000000E+00 0.  1.
         -6    2    1    2    0  503  0.21433963253E+02  0.41411185263E+02  0.10981157275E+02  0.18022619655E+03  0.17374289931E+03 0.  0.
        -24    2    3    3    0    0  0.46130947719E+02  0.34479491831E+02 -0.52316391614E+02  0.11176701812E+03  0.80236910545E+02 0.  0.
          6    2    1    2  501    0 -0.21433963253E+02 -0.41411185263E+02  0.28711700528E+03  0.33806882641E+03  0.17227900518E+03 0.  0.
         24    2    5    5    0    0 -0.32562805198E+02 -0.87201312150E+02  0.24702661304E+03  0.27602113190E+03  0.80629477157E+02 0.  0.
          5    1    5    5  501    0  0.11128841945E+02  0.45790126888E+02  0.40090392241E+02  0.62047694506E+02  0.47000000000E+01 0. -1.
        -13    1    6    6    0    0 -0.57461682811E+02 -0.70752339673E+02  0.16160239318E+03  0.18553455755E+03  0.00000000000E+00 0.  1.
         14    1    6    6    0    0  0.24898877613E+02 -0.16448972477E+02  0.85424219850E+02  0.90486574358E+02  0.00000000000E+00 0. -1.
         -5    1    3    3    0  503 -0.24696984466E+02  0.69316934317E+01  0.63297548890E+02  0.68459178428E+02  0.47000000000E+01 0.  1.
         13    1    4    4    0    0  0.44893943985E+02 -0.15362023057E+02 -0.35101443899E+02  0.59021769905E+02  0.00000000000E+00 0. -1.
        -14    1    4    4    0    0  0.12370037342E+01  0.49841514888E+02 -0.17214947715E+02  0.52745248216E+02  0.00000000000E+00 0.  1.
</event>
<event>
12    1  0.8358445E-002  0.1870994E+03  0.7818608E-02  0.1161127E+00
         21   -1    0    0  501  502  0.00000000000E+00  0.00000000000E+00  0.23172357877E+03  0.23172357877E+03  0.00000000000E+00 0. -1.
         21   -1    0    0  502  503 -0.00000000000E+00 -0.00000000000E+00 -0.24807221704E+03  0.24807221704E+03  0.00000000000E+00 0. -1.
         -6    2    1    2    0  503 -0.38029574564E+02 -0.60710440087E+02 -0.15825321526E+03  0.24505152832E+03  0.17284144560E+03 0.  0.
        -24    2    3    3    0    0 -0.87537272006E+02 -0.34792983069E+02 -0.13253861185E+03  0.18335827494E+03  0.84737522369E+02 0.  0.
          6    2    1    2  501    0  0.38029574564E+02  0.60710440087E+02  0.14190457699E+03  0.23474426749E+03  0.17273087758E+03 0.  0.
         24    2    5    5    0    0  0.55747267452E+02 -0.23147768712E+02  0.82738803910E+02  0.13049075662E+03  0.80861306355E+02 0.  0.
          5    1    5    5  501    0 -0.17717692888E+02  0.83858208799E+02  0.59165773080E+02  0.10425351087E+03  0.47000000000E+01 0. -1.
        -13    1    6    6    0    0  0.33444989197E+02 -0.50210444662E+02  0.30574794972E+02  0.67634858935E+02  0.00000000000E+00 0.  1.
         14    1    6    6    0    0  0.22302278255E+02  0.27062675950E+02  0.52164008938E+02  0.62855897683E+02  0.00000000000E+00 0. -1.
         -5    1    3    3    0  503  0.49507697442E+02 -0.25917457018E+02 -0.25714603410E+02  0.61693253382E+02  0.47000000000E+01 0.  1.
         11    1    4    4    0    0 -0.70348769710E+02 -0.19664103867E+02 -0.31139569743E+02  0.79405914039E+02  0.00000000000E+00 0. -1.
        -12    1    4    4    0    0 -0.17188502296E+02 -0.15128879202E+02 -0.10139904210E+03  0.10395236090E+03  0.00000000000E+00 0.  1.
</event>
<event>
12    1  0.8358445E-002  0.1772059E+03  0.7818608E-02  0.1170695E+00
         21   -1    0    0  503  502  0.00000000000E+00  0.00000000000E+00  0.21309137275E+03  0.21309137275E+03  0.00000000000E+00 0.  1.
         21   -1    0    0  501  503 -0.00000000000E+00 -0.00000000000E+00 -0.14965941657E+03  0.14965941657E+03  0.00000000000E+00 0.  1.
          6    2    1    2  501    0  0.15139214441E+02 -0.29299871280E+02  0.68218781791E+01  0.17733714974E+03  0.17410987446E+03 0.  0.
         24    2    3    3    0    0  0.36722465193E+02 -0.71897494665E+02 -0.29039065979E+02  0.11743313029E+03  0.80184060428E+02 0.  0.
         -6    2    1    2    0  502 -0.15139214441E+02  0.29299871280E+02  0.56610078001E+02  0.18541363957E+03  0.17345269827E+03 0.  0.
        -24    2    5    5    0    0 -0.52420709791E+02  0.67264770213E+02  0.17249627151E+02  0.11906171015E+03  0.81275217998E+02 0.  0.
          5    1    3    3  501    0 -0.21583250753E+02  0.42597623385E+02  0.35860944158E+02  0.59904019456E+02  0.47000000000E+01 0. -1.
        -11    1    4    4    0    0  0.50385279931E+02 -0.49204165273E+02  0.90861944704E+01  0.71009050437E+02  0.00000000000E+00 0.  1.
         12    1    4    4    0    0 -0.13662814738E+02 -0.22693329392E+02 -0.38125260450E+02  0.46424079849E+02  0.00000000000E+00 0. -1.
         -5    1    5    5    0  502  0.37281495350E+02 -0.37964898933E+02  0.39360450849E+02  0.66351929419E+02  0.47000000000E+01 0.  1.
         13    1    6    6    0    0  0.21111674126E+02  0.18654566017E+02  0.12400693500E+02  0.30781046391E+02  0.00000000000E+00 0. -1.
        -14    1    6    6    0    0 -0.73532383917E+02  0.48610204196E+02  0.48489336515E+01  0.88280663761E+02  0.00000000000E+00 0.  1.
</event>
<event>
12    1  0.8358445E-002  0.2120007E+03  0.7818608E-02  0.1140284E+00
         21   -1    0    0  503  502  0.00000000000E+00  0.00000000000E+00  0.30984249311E+04  0.30984249311E+04  0.00000000000E+00 0.  1.
         21   -1    0    0  501  503 -0.00000000000E+00 -0.00000000000E+00 -0.60447236442E+02  0.60447236442E+02  0.00000000000E+00 0.  1.
          6    2    1    2  501    0  0.34220300495E+02 -0.11923893938E+03  0.13924192335E+03  0.25239433866E+03  0.17007538134E+03 0.  0.
         24    2    3    3    0    0  0.51384247492E+02 -0.39767949388E+01  0.71623572635E+02  0.11758226809E+03  0.77714206063E+02 0.  0.
         -6    2    1    2    0  502 -0.34220300495E+02  0.11923893938E+03  0.28987357713E+04  0.29064778289E+04  0.17191667838E+03 0.  0.
        -24    2    5    5    0    0 -0.76361533960E+02  0.11816238153E+03  0.25193385784E+04  0.25247169580E+04  0.85647026996E+02 0.  0.
          5    1    3    3  501    0 -0.17163946997E+02 -0.11526214444E+03  0.67618350715E+02  0.13481207057E+03  0.47000000000E+01 0. -1.
        -11    1    4    4    0    0  0.18153081076E+02  0.25922987905E+02 -0.17151903698E+01  0.31693493535E+02  0.00000000000E+00 0.  1.
         12    1    4    4    0    0  0.33231166416E+02 -0.29899782844E+02  0.73338763005E+02  0.85888774555E+02  0.00000000000E+00 0. -1.
         -5    1    5    5    0  502  0.42141233464E+02  0.10765578464E+01  0.37939719293E+03  0.38176087088E+03  0.47000000000E+01 0.  1.
         11    1    6    6    0    0 -0.40357201634E+02  0.86137652868E+02  0.97556578668E+03  0.98019232965E+03  0.00000000000E+00 0. -1.
        -12    1    6    6    0    0 -0.36004332326E+02  0.32024728665E+02  0.15437727917E+04  0.15445246284E+04  0.00000000000E+00 0.  1.
</event>
<event>
12    1  0.8358445E-002  0.2053573E+03  0.7818608E-02  0.1145489E+00
         21   -1    0    0  501  502  0.00000000000E+00  0.00000000000E+00  0.16129507403E+03  0.16129507403E+03  0.00000000000E+00 0. -1.
         21   -1    0    0  502  503 -0.00000000000E+00 -0.00000000000E+00 -0.12715308737E+04  0.12715308737E+04  0.00000000000E+00 0. -1.
         -6    2    1    2    0  503  0.77326970029E+02 -0.83517376147E+02 -0.11942833276E+04  0.12118103273E+04  0.17092978180E+03 0.  0.
        -24    2    3    3    0    0  0.78160119724E+02 -0.43200902267E+02 -0.11258145210E+04  0.11322102036E+04  0.80413228397E+02 0.  0.
          6    2    1    2  501    0 -0.77326970029E+02  0.83517376147E+02  0.84047527961E+02  0.22101562041E+03  0.16979194650E+03 0.  0.
         24    2    5    5    0    0  0.10188584633E+02  0.47308856889E+02 -0.27809845050E+01  0.92441479343E+02  0.78713137604E+02 0.  0.
          5    1    5    5  501    0 -0.87515554662E+02  0.36208519258E+02  0.86828512466E+02  0.12857414107E+03  0.47000000000E+01 0. -1.
        -13    1    6    6    0    0  0.27295093960E+02  0.42755669527E+02  0.27249916874E+02  0.57581484877E+02  0.00000000000E+00 0.  1.
         14    1    6    6    0    0 -0.17106509327E+02  0.45531873617E+01 -0.30030901379E+02  0.34859994466E+02  0.00000000000E+00 0. -1.
         -5    1    3    3    0  503 -0.83314969491E+00 -0.40316473879E+02 -0.68468806657E+02  0.79600123677E+02  0.47000000000E+01 0.  1.
         13    1    4    4    0    0  0.24096548543E+02 -0.11692769811E+01 -0.67486322155E+02  0.71668783570E+02  0.00000000000E+00 0. -1.
        -14    1    4    4    0    0  0.54063571181E+02 -0.42031625286E+02 -0.10583281988E+04  0.10605414200E+04  0.00000000000E+00 0.  1.
</event>
<event>
12    1  0.8358445E-002  0.1860129E+03  0.7818608E-02  0.1162229E+00
         21   -1    0    0  503  502  0.00000000000E+00  0.00000000000E+00  0.68814340687E+02  0.68814340687E+02  0.00000000000E+00 0. -1.
         21   -1    0    0  501  503 -0.00000000000E+00 -0.00000000000E+00 -0.52504307517E+03  0.52504307517E+03  0.00000000000E+00 0. -1.
          6    2    1    2  501    0 -0.66698520126E+02 -0.27582590469E+02 -0.29143938660E+03  0.34574226217E+03  0.17143892179E+03 0.  0.
         24    2    3    3    0    0 -0.31110582547E+02 -0.20255410864E+01 -0.28904249267E+03  0.30161178319E+03  0.80325176819E+02 0.  0.
         -6    2    1    2    0  502  0.66698520126E+02  0.27582590469E+02 -0.16478934788E+03  0.24811515368E+03  0.17086868768E+03 0.  0.
        -24    2    5    5    0    0 -0.58968180025E+01  0.63828175607E+02 -0.98550465120E+02  0.14326523642E+03  0.81877501967E+02 0.  0.
          5    1    3    3  501    0 -0.35587937579E+02 -0.25557049382E+02 -0.23968939353E+01  0.44130478977E+02  0.47000000000E+01 0. -1.
        -13    1    4    4    0    0  0.76295937673E+01 -0.33631764260E+02 -0.89866251200E+02  0.96256165377E+02  0.00000000000E+00 0.  1.
         14    1    4    4    0    0 -0.38740176314E+02  0.31606223173E+02 -0.19917624147E+03  0.20535561782E+03  0.00000000000E+00 0. -1.
         -5    1    5    5    0  502  0.72595338128E+02 -0.36245585138E+02 -0.66238882757E+02  0.10484991726E+03  0.47000000000E+01 0.  1.
         13    1    6    6    0    0  0.30258746618E+02  0.44028971145E+02 -0.25074428460E+02  0.59015836939E+02  0.00000000000E+00 0. -1.
        -14    1    6    6    0    0 -0.36155564621E+02  0.19799204462E+02 -0.73476036660E+02  0.84249399485E+02  0.00000000000E+00 0.  1.
</event>
<event>
12    1  0.8358445E-002  0.1906112E+03  0.7818608E-02  0.1160132E+00
         21   -1    0    0  501  502  0.00000000000E+00  0.00000000000E+00  0.17191745999E+03  0.17191745999E+03  0.00000000000E+00 0.  1.
         21   -1    0    0  502  503 -0.00000000000E+00 -0.00000000000E+00 -0.10509039211E+04  0.10509039211E+04  0.00000000000E+00 0.  1.
         -6    2    1    2    0  503 -0.33568717976E+02 -0.36899257555E+02 -0.99153358824E+03  0.10096888000E+04  0.18396793786E+03 0.  0.
        -24    2    3    3    0    0 -0.59351367348E+02 -0.58852167335E+02 -0.51878724876E+03  0.53570792827E+03  0.10419506959E+03 0.  0.
          6    2    1    2  501    0  0.33568717976E+02  0.36899257555E+02  0.11254712711E+03  0.21313258113E+03  0.17398341094E+03 0.  0.
         24    2    5    5    0    0  0.34467566571E+02 -0.45655335513E+02  0.57527383845E+02  0.11380820892E+03  0.79815322582E+02 0.  0.
          5    1    5    5  501    0 -0.89884859475E+00  0.82554593068E+02  0.55019743265E+02  0.99324372207E+02  0.47000000000E+01 0. -1.
        -11    1    6    6    0    0  0.29819553142E+01 -0.35435096165E+02  0.69934867892E+02  0.78456509257E+02  0.00000000000E+00 0.  1.
         12    1    6    6    0    0  0.31485611257E+02 -0.10220239349E+02 -0.12407484047E+02  0.35351699661E+02  0.00000000000E+00 0. -1.
         -5    1    3    3    0  503  0.25782649371E+02  0.21952909780E+02 -0.47274633948E+03  0.47398087171E+03  0.47000000000E+01 0.  1.
         13    1    4    4    0    0 -0.32796465002E+02 -0.61414326798E+02 -0.14374849304E+03  0.15972149794E+03  0.00000000000E+00 0. -1.
        -14    1    4    4    0    0 -0.26554902346E+02  0.25621594634E+01 -0.37503875572E+03  0.37598643033E+03  0.00000000000E+00 0.  1.
</event>
<event>
12    1  0.8358445E-002  0.2141654E+03  0.7818608E-02  0.1139283E+00
         21   -1    0    0  503  502  0.00000000000E+00  0.00000000000E+00  0.46012833622E+03  0.46012833622E+03  0.00000000000E+00 0. -1.
         21   -1    0    0  501  503 -0.00000000000E+00 -0.00000000000E+00 -0.10408535289E+03  0.10408535289E+03  0.00000000000E+00 0. -1.
          6    2    1    2  501    0  0.12052600374E+03  0.40309327831E+02  0.10836838160E+03  0.24002188536E+03  0.17238166908E+03 0.  0.
         24    2    3    3    0    0 -0.33476155847E+01  0.34664799465E+02  0.64250853976E+02  0.10832154174E+03  0.79953294599E+02 0.  0.
         -6    2    1    2    0  502 -0.12052600374E+03 -0.40309327831E+02  0.24767460173E+03  0.32419180375E+03  0.16615130992E+03 0.  0.
        -24    2    5    5    0    0 -0.20707306398E+02  0.43119910986E+01  0.17182351293E+03  0.19103658562E+03  0.80772963580E+02 0.  0.
          5    1    3    3  501    0  0.12387361933E+03  0.56445283662E+01  0.44117527621E+02  0.13170034362E+03  0.47000000000E+01 0. -1.
        -11    1    4    4    0    0 -0.19451650610E+02 -0.16215782962E+02  0.69952656748E+00  0.25333923225E+02  0.00000000000E+00 0.  1.
         12    1    4    4    0    0  0.16104035026E+02  0.50880582427E+02  0.63551327409E+02  0.82987618520E+02  0.00000000000E+00 0. -1.
         -5    1    5    5    0  502 -0.99818697344E+02 -0.44621318930E+02  0.75851088804E+02  0.13315521813E+03  0.47000000000E+01 0.  1.
         11    1    6    6    0    0 -0.51394816743E+02  0.49983059261E+01  0.91773789068E+02  0.10530355459E+03  0.00000000000E+00 0. -1.
        -12    1    6    6    0    0  0.30687510344E+02 -0.68631482746E+00  0.80049723861E+02  0.85733031028E+02  0.00000000000E+00 0.  1.
</event>
<event>
12    1  0.8358445E-002  0.3421783E+03  0.7818608E-02  0.1065881E+00
         21   -1    0    0  501  502  0.00000000000E+00  0.00000000000E+00  0.30268113061E+03  0.30268113061E+03  0.00000000000E+00 0.  1.
         21   -1    0    0  502  503 -0.00000000000E+00 -0.00000000000E+00 -0.41747834430E+03  0.41747834430E+03  0.00000000000E+00 0. -1.
         -6    2    1    2    0  503  0.19151998535E+03  0.22515310695E+03  0.40306080543E+02  0.34454401894E+03  0.17237219759E+03 0.  0.
        -24    2    3    3    0    0  0.13656550941E+03  0.74516879566E+02  0.20134784625E+02  0.18286458734E+03  0.93974166927E+02 0.  0.
          6    2    1    2  501    0 -0.19151998535E+03 -0.22515310695E+03 -0.15510329423E+03  0.37561545596E+03  0.17220950183E+03 0.  0.
         24    2    5    5    0    0 -0.59128871819E+02 -0.73188016516E+02 -0.34158763587E+01  0.12332205852E+03  0.79648933841E+02 0.  0.
          5    1    5    5  501    0 -0.13239111354E+03 -0.15196509043E+03 -0.15168741788E+03  0.25229339744E+03  0.47000000000E+01 0. -1.
        -13    1    6    6    0    0 -0.13941384256E+02 -0.66956362893E+02  0.21051815438E+02  0.71559036188E+02  0.00000000000E+00 0.  1.
         14    1    6    6    0    0 -0.45187487563E+02 -0.62316536229E+01 -0.24467691796E+02  0.51763022332E+02  0.00000000000E+00 0. -1.
         -5    1    3    3    0  503  0.54954475947E+02  0.15063622738E+03  0.20171295918E+02  0.16167943161E+03  0.47000000000E+01 0.  1.
         11    1    4    4    0    0  0.81919765160E+02  0.34227125196E+02 -0.34972012669E+02  0.95422144669E+02  0.00000000000E+00 0. -1.
        -12    1    4    4    0    0  0.54645744247E+02  0.40289754370E+02  0.55106797294E+02  0.87442442667E+02  0.00000000000E+00 0.  1.
</event>
<event>
12    1  0.8358445E-002  0.1894169E+03  0.7818608E-02  0.1161660E+00
         21   -1    0    0  501  502  0.00000000000E+00  0.00000000000E+00  0.26956001446E+03  0.26956001446E+03  0.00000000000E+00 0.  1.
         21   -1    0    0  502  503 -0.00000000000E+00 -0.00000000000E+00 -0.20934178116E+03  0.20934178116E+03  0.00000000000E+00 0.  1.
         -6    2    1    2    0  503  0.59747385792E+01 -0.51172506804E+02 -0.12221431126E+03  0.21591814613E+03  0.17038187990E+03 0.  0.
        -24    2    3    3    0    0 -0.52225806674E+02  0.45602935113E+01 -0.49143082046E+02  0.10703773909E+03  0.79332867824E+02 0.  0.
          6    2    1    2  501    0 -0.59747385792E+01  0.51172506804E+02  0.18243254456E+03  0.26298364949E+03  0.18227573517E+03 0.  0.
         24    2    5    5    0    0 -0.42850714549E+01  0.83195333385E+02  0.19642510156E+03  0.22768211909E+03  0.79476420995E+02 0.  0.
          5    1    5    5  501    0 -0.16896671243E+01 -0.32022826581E+02 -0.13992557008E+02  0.35301530404E+02  0.47000000000E+01 0. -1.
        -13    1    6    6    0    0 -0.15437591311E+02 -0.40775756282E+01  0.45591672354E+01  0.16605175529E+02  0.00000000000E+00 0.  1.
         14    1    6    6    0    0  0.11152519856E+02  0.87272909013E+02  0.19186593433E+03  0.21107694356E+03  0.00000000000E+00 0. -1.
         -5    1    3    3    0  503  0.58200545253E+02 -0.55732800316E+02 -0.73071229214E+02  0.10888040704E+03  0.47000000000E+01 0.  1.
         11    1    4    4    0    0 -0.48292609722E+02  0.37072330618E+02 -0.22807647439E+02  0.65013249671E+02  0.00000000000E+00 0. -1.
        -12    1    4    4    0    0 -0.39331969521E+01 -0.32512037106E+02 -0.26335434607E+02  0.42024489420E+02  0.00000000000E+00 0.  1.
</event>
<event>
12    1  0.8358445E-002  0.1786542E+03  0.7818608E-02  0.1170037E+00
         21   -1    0    0  501  502  0.00000000000E+00  0.00000000000E+00  0.46517236091E+03  0.46517236091E+03  0.00000000000E+00 0. -1.
         21   -1    0    0  502  503 -0.00000000000E+00 -0.00000000000E+00 -0.82392954756E+02  0.82392954756E+02  0.00000000000E+00 0. -1.
         -6    2    1    2    0  503 -0.35647860590E+02 -0.29850014444E+02  0.72117887612E+02  0.18919693186E+03  0.16861997505E+03 0.  0.
        -24    2    3    3    0    0  0.25329400269E+01 -0.76814559296E+01 -0.24162213176E+02  0.83172565181E+02  0.79173496214E+02 0.  0.
          6    2    1    2  501    0  0.35647860590E+02  0.29850014444E+02  0.31066151854E+03  0.35836838381E+03  0.17249790167E+03 0.  0.
         24    2    5    5    0    0 -0.89971795710E+01 -0.45811442457E+02  0.17044374224E+03  0.19283605928E+03  0.77168899109E+02 0.  0.
          5    1    5    5  501    0  0.44645040161E+02  0.75661456901E+02  0.14021777630E+03  0.16553232452E+03  0.47000000000E+01 0. -1.
        -13    1    6    6    0    0 -0.21603609651E+02  0.12767772837E+02  0.83905312104E+02  0.87577584874E+02  0.00000000000E+00 0.  1.
         14    1    6    6    0    0  0.12606430080E+02 -0.58579215294E+02  0.86538430139E+02  0.10525847441E+03  0.00000000000E+00 0. -1.
         -5    1    3    3    0  503 -0.38180800617E+02 -0.22168558514E+02  0.96280100788E+02  0.10602436668E+03  0.47000000000E+01 0.  1.
         13    1    4    4    0    0 -0.22585931881E+02 -0.13721632116E+02 -0.43502383790E+02  0.50900539312E+02  0.00000000000E+00 0. -1.
        -14    1    4    4    0    0  0.25118871908E+02  0.60401761864E+01  0.19340170614E+02  0.32272025869E+02  0.00000000000E+00 0.  1.
</event>
<event>
12    1  0.8358445E-002  0.1765754E+03  0.7818608E-02  0.1171170E+00
         21   -1    0    0  503  502  0.00000000000E+00  0.00000000000E+00  0.91203398479E+02  0.91203398479E+02  0.00000000000E+00 0. -1.
         21   -1    0    0  501  503 -0.00000000000E+00 -0.00000000000E+00 -0.40782476542E+03  0.40782476542E+03  0.00000000000E+00 0. -1.
          6    2    1    2  501    0  0.33504043944E+02  0.24655596924E+02 -0.57912974641E+02  0.18582998380E+03  0.17160550932E+03 0.  0.
         24    2    3    3    0    0 -0.36784342547E+02 -0.10821467021E+02 -0.55591563980E+02  0.10692143997E+03  0.82894995839E+02 0.  0.
         -6    2    1    2    0  502 -0.33504043944E+02 -0.24655596924E+02 -0.25870839230E+03  0.31319818010E+03  0.17155946010E+03 0.  0.
        -24    2    5    5    0    0 -0.77677469069E+02 -0.45051589972E+02 -0.13756406917E+03  0.18256386207E+03  0.79638280037E+02 0.  0.
          5    1    3    3  501    0  0.70288386492E+02  0.35477063945E+02 -0.23214106606E+01  0.78908543829E+02  0.47000000000E+01 0. -1.
        -13    1    4    4    0    0 -0.50086422942E+02 -0.36785880041E+02 -0.36895931834E+02  0.72271436401E+02  0.00000000000E+00 0.  1.
         14    1    4    4    0    0  0.13302080395E+02  0.25964413020E+02 -0.18695632146E+02  0.34650003573E+02  0.00000000000E+00 0. -1.
         -5    1    5    5    0  502  0.44173425125E+02  0.20395993048E+02 -0.12114432313E+03  0.13063431803E+03  0.47000000000E+01 0.  1.
         13    1    6    6    0    0 -0.60353127603E+02 -0.84288616989E+01 -0.30612030968E+02  0.68195616875E+02  0.00000000000E+00 0. -1.
        -14    1    6    6    0    0 -0.17324341466E+02 -0.36622728273E+02 -0.10695203820E+03  0.11436824519E+03  0.00000000000E+00 0.  1.
</event>
<event>
12    1  0.8358445E-002  0.1810539E+03  0.7818608E-02  0.1166889E+00
         21   -1    0    0  503  502  0.00000000000E+00  0.00000000000E+00  0.45707681551E+02  0.45707681551E+02  0.00000000000E+00 0. -1.
         21   -1    0    0  501  503 -0.00000000000E+00 -0.00000000000E+00 -0.76908363718E+03  0.76908363718E+03  0.00000000000E+00 0. -1.
          6    2    1    2  501    0  0.56586838893E+02 -0.72420528487E+01 -0.46882565152E+03  0.50241916867E+03  0.17138556489E+03 0.  0.
         24    2    3    3    0    0 -0.23280290431E+02  0.19270806492E+02 -0.31607769215E+03  0.32796080931E+03  0.82096583749E+02 0.  0.
         -6    2    1    2    0  502 -0.56586838893E+02  0.72420528487E+01 -0.25455030411E+03  0.31237215006E+03  0.17183126942E+03 0.  0.
        -24    2    5    5    0    0 -0.36156826303E+02 -0.41242515309E+02 -0.23985655503E+03  0.25754391805E+03  0.76088380031E+02 0.  0.
          5    1    3    3  501    0  0.79867129324E+02 -0.26512859341E+02 -0.15274795937E+03  0.17445835936E+03  0.47000000000E+01 0. -1.
        -13    1    4    4    0    0  0.51751589728E+01 -0.12675865249E+02 -0.60049280445E+01  0.14950551529E+02  0.00000000000E+00 0.  1.
         14    1    4    4    0    0 -0.28455449403E+02  0.31946671741E+02 -0.31007276411E+03  0.31301025778E+03  0.00000000000E+00 0. -1.
         -5    1    5    5    0  502 -0.20430012591E+02  0.48484568158E+02 -0.14693749076E+02  0.54828232014E+02  0.47000000000E+01 0.  1.
         13    1    6    6    0    0 -0.18395727360E+02 -0.48749853069E+02 -0.73623781657E+02  0.90196519804E+02  0.00000000000E+00 0. -1.
        -14    1    6    6    0    0 -0.17761098943E+02  0.75073377600E+01 -0.16623277337E+03  0.16734739824E+03  0.00000000000E+00 0.  1.
</event>
<event>
12    1  0.8358445E-002  0.2053848E+03  0.7818608E-02  0.1145571E+00
         21   -1    0    0  503  502  0.00000000000E+00  0.00000000000E+00  0.20495651248E+03  0.20495651248E+03  0.00000000000E+00 0. -1.
         21   -1    0    0  501  503 -0.00000000000E+00 -0.00000000000E+00 -0.33179365759E+03  0.33179365759E+03  0.00000000000E+00 0.  1.
          6    2    1    2  501    0 -0.11186863795E+03 -0.96317504125E+01 -0.22960134569E+03  0.30709087504E+03  0.17023708415E+03 0.  0.
         24    2    3    3    0    0  0.51555665227E+01 -0.37524477667E+01 -0.55017161272E+02  0.96779301231E+02  0.79364251284E+02 0.  0.
         -6    2    1    2    0  502  0.11186863795E+03  0.96317504125E+01  0.10276420057E+03  0.22965929502E+03  0.17197542876E+03 0.  0.
        -24    2    5    5    0    0  0.14140125790E+03  0.56593352073E+01  0.52294872696E+02  0.17086134625E+03  0.80202881019E+02 0.  0.
          5    1    3    3  501    0 -0.11702420448E+03 -0.58793026458E+01 -0.17458418441E+03  0.21031157381E+03  0.47000000000E+01 0. -1.
        -11    1    4    4    0    0  0.29574941955E+02 -0.13169370293E+02 -0.61778930909E+02  0.69747729782E+02  0.00000000000E+00 0.  1.
         12    1    4    4    0    0 -0.24419375432E+02  0.94169225259E+01  0.67617696363E+01  0.27031571449E+02  0.00000000000E+00 0. -1.
         -5    1    5    5    0  502 -0.29532619942E+02  0.39724152052E+01  0.50469327876E+02  0.58797948769E+02  0.47000000000E+01 0.  1.
         11    1    6    6    0    0  0.11551809306E+03  0.16491695821E+02  0.71506412896E+02  0.13685602997E+03  0.00000000000E+00 0. -1.
        -12    1    6    6    0    0  0.25883164840E+02 -0.10832360614E+02 -0.19211540200E+02  0.34005316282E+02  0.00000000000E+00 0.  1.
</event>
<event>
12    1  0.8358445E-002  0.1777252E+03  0.7818608E-02  0.1170529E+00
         21   -1    0    0  503  502  0.00000000000E+00  0.00000000000E+00  0.68079022273E+02  0.68079022273E+02  0.00000000000E+00 0.  1.
         21   -1    0    0  501  503 -0.00000000000E+00 -0.00000000000E+00 -0.54163535907E+03  0.54163535907E+03  0.00000000000E+00 0.  1.
          6    2    1    2  501    0  0.33342140096E+02  0.18633045310E+02 -0.11628934971E+03  0.21068310391E+03  0.17147964525E+03 0.  0.
         24    2    3    3    0    0  0.44936883749E+02  0.63276327734E+02 -0.76607015953E+02  0.14965656576E+03  0.10249505164E+03 0.  0.
         -6    2    1    2    0  502 -0.33342140096E+02 -0.18633045310E+02 -0.35726698709E+03  0.39903127743E+03  0.17357238151E+03 0.  0.
        -24    2    5    5    0    0 -0.27362573822E+02 -0.74278576660E+02 -0.16755247935E+03  0.20117813791E+03  0.78312147462E+02 0.  0.
          5    1    3    3  501    0 -0.11594743653E+02 -0.44643282424E+02 -0.39682333752E+02  0.61026538145E+02  0.47000000000E+01 0. -1.
        -13    1    4    4    0    0  0.16546031439E+02 -0.26120372681E+02 -0.42849461119E+01  0.31215473544E+02  0.00000000000E+00 0.  1.
         14    1    4    4    0    0  0.28390852309E+02  0.89396700415E+02 -0.72322069842E+02  0.11844109222E+03  0.00000000000E+00 0. -1.
         -5    1    5    5    0  502 -0.59795662739E+01  0.55645531350E+02 -0.18971450774E+03  0.19785313952E+03  0.47000000000E+01 0.  1.
         13    1    6    6    0    0 -0.10411124379E+01 -0.98584405547E+01  0.77402936096E+01  0.12577158282E+02  0.00000000000E+00 0. -1.
        -14    1    6    6    0    0 -0.26321461384E+02 -0.64420136105E+02 -0.17529277296E+03  0.18860097963E+03  0.00000000000E+00 0.  1.
</event>
<event>
12    1  0.8358445E-002  0.2552206E+03  0.7818608E-02  0.1110256E+00
         21   -1    0    0  501  502  0.00000000000E+00  0.00000000000E+00  0.39864851309E+03  0.39864851309E+03  0.00000000000E+00 0.  1.
         21   -1    0    0  502  503 -0.00000000000E+00 -0.00000000000E+00 -0.18288360375E+03  0.18288360375E+03  0.00000000000E+00 0.  1.
         -6    2    1    2    0  503 -0.44697708673E+02 -0.18144316736E+03  0.10653136256E+02  0.25410519130E+03  0.17186171998E+03 0.  0.
        -24    2    3    3    0    0  0.30121782036E+02 -0.78032071025E+02 -0.31109740089E+02  0.11972498861E+03  0.79811848170E+02 0.  0.
          6    2    1    2  501    0  0.44697708673E+02  0.18144316736E+03  0.20511177308E+03  0.32742692554E+03  0.17383337990E+03 0.  0.
         24    2    5    5    0    0  0.68688448298E+02  0.40627743867E+02  0.79355724672E+02  0.13705567563E+03  0.78218991824E+02 0.  0.
          5    1    5    5  501    0 -0.23990739625E+02  0.14081542349E+03  0.12575604841E+03  0.19037124991E+03  0.47000000000E+01 0. -1.
        -13    1    6    6    0    0  0.40688686134E+01 -0.74784106772E+01  0.50916475163E+02  0.51623345118E+02  0.00000000000E+00 0.  1.
         14    1    6    6    0    0  0.64619579685E+02  0.48106154544E+02  0.28439249509E+02  0.85432330509E+02  0.00000000000E+00 0. -1.
         -5    1    3    3    0  503 -0.74819490709E+02 -0.10341109633E+03  0.41762876345E+02  0.13438020269E+03  0.47000000000E+01 0.  1.
         11    1    4    4    0    0  0.32771511612E+02 -0.24547347928E+02  0.20114895014E+02  0.45619658756E+02  0.00000000000E+00 0. -1.
        -12    1    4    4    0    0 -0.26497295758E+01 -0.53484723098E+02 -0.51224635103E+02  0.74105329856E+02  0.00000000000E+00 0.  1.
</event>
<event>
12    1  0.8358445E-002  0.2068891E+03  0.7818608E-02  0.1144095E+00
         21   -1    0    0  503  502  0.00000000000E+00  0.00000000000E+00  0.65423518005E+03  0.65423518005E+03  0.00000000000E+00 0.  1.
         21   -1    0    0  501  503 -0.00000000000E+00 -0.00000000000E+00 -0.65471107647E+02  0.65471107647E+02  0.00000000000E+00 0. -1.
          6    2    1    2  501    0 -0.92202925939E+02 -0.67507040637E+02  0.27966226150E+03  0.34787078933E+03  0.17246601252E+03 0.  0.
         24    2    3    3    0    0 -0.10421237575E+02  0.17517622485E+02  0.60112530720E+02  0.98588595470E+02  0.75436897583E+02 0.  0.
         -6    2    1    2    0  502  0.92202925939E+02  0.67507040637E+02  0.30910181090E+03  0.37183549836E+03  0.17221825761E+03 0.  0.
        -24    2    5    5    0    0  0.13048321402E+03  0.44104492986E+02  0.25535549551E+03  0.30166558950E+03  0.82611278624E+02 0.  0.
          5    1    3    3  501    0 -0.81781688364E+02 -0.85024663123E+02  0.21954973078E+03  0.24928219386E+03  0.47000000000E+01 0. -1.
        -11    1    4    4    0    0  0.24397610979E+02 -0.69033680340E+01  0.48135237852E+02  0.54404972519E+02  0.00000000000E+00 0.  1.
         12    1    4    4    0    0 -0.34818848555E+02  0.24420990520E+02  0.11977292868E+02  0.44183622951E+02  0.00000000000E+00 0. -1.
         -5    1    5    5    0  502 -0.38280288084E+02  0.23402547651E+02  0.53746315386E+02  0.70169908863E+02  0.47000000000E+01 0.  1.
         13    1    6    6    0    0  0.25658980919E+02  0.88227601889E+01  0.44923963257E+01  0.27502836652E+02  0.00000000000E+00 0. -1.
        -14    1    6    6    0    0  0.10482423310E+03  0.35281732797E+02  0.25086309919E+03  0.27416275285E+03  0.00000000000E+00 0.  1.
</event>
<event>
12    1  0.8358445E-002  0.1897365E+03  0.7818608E-02  0.1159328E+00
         21   -1    0    0  501  502  0.00000000000E+00  0.00000000000E+00  0.72103812795E+03  0.72103812795E+03  0.00000000000E+00 0.  1.
         21   -1    0    0  502  503 -0.00000000000E+00 -0.00000000000E+00 -0.71434598786E+02  0.71434598786E+02  0.00000000000E+00 0.  1.
         -6    2    1    2    0  503 -0.44551598017E+02 -0.59647585465E+02  0.10212306503E+03  0.21304646246E+03  0.17151383448E+03 0.  0.
        -24    2    3    3    0    0  0.38127444593E+02 -0.13912044960E+02  0.68223645123E+02  0.11255355514E+03  0.79790914235E+02 0.  0.
          6    2    1    2  501    0  0.44551598017E+02  0.59647585465E+02  0.54748046413E+03  0.57942626427E+03  0.17452007846E+03 0.  0.
         24    2    5    5    0    0  0.70604996264E+02  0.87182527917E+02  0.31391525111E+03  0.34275824500E+03  0.79715562840E+02 0.  0.
          5    1    5    5  501    0 -0.26053398247E+02 -0.27534942452E+02  0.23356521302E+03  0.23666801928E+03  0.47000000000E+01 0. -1.
        -13    1    6    6    0    0  0.45409334093E+02  0.45551401595E+02  0.26884217203E+03  0.27642910714E+03  0.00000000000E+00 0.  1.
         14    1    6    6    0    0  0.25195662171E+02  0.41631126322E+02  0.45073079083E+02  0.66329137859E+02  0.00000000000E+00 0. -1.
         -5    1    3    3    0  503 -0.82679042610E+02 -0.45735540505E+02  0.33899419905E+02  0.10049290732E+03  0.47000000000E+01 0.  1.
         13    1    4    4    0    0 -0.14314687864E+02 -0.14734994539E+02  0.54640280011E+02  0.58374571111E+02  0.00000000000E+00 0. -1.
        -14    1    4    4    0    0  0.52442132456E+02  0.82294957876E+00  0.13583365112E+02  0.54178984028E+02  0.00000000000E+00 0.  1.
</event>
<event>
12    1  0.8358445E-002  0.2116626E+03  0.7818608E-02  0.1140638E+00
         21   -1    0    0  501  502  0.00000000000E+00  0.00000000000E+00  0.32139863472E+02  0.32139863472E+02  0.00000000000E+00 0.  1.
         21   -1    0    0  502  503 -0.00000000000E+00 -0.00000000000E+00 -0.14407358507E+04  0.14407358507E+04  0.00000000000E+00 0.  1.
         -6    2    1    2    0  503  0.52531542614E+02 -0.11345456764E+03 -0.85710447243E+03  0.88285284481E+03  0.17079100398E+03 0.  0.
        -24    2    3    3    0    0 -0.36408418649E+02 -0.71502929176E+02 -0.43772685370E+03  0.45207455639E+03  0.79551016705E+02 0.  0.
          6    2    1    2  501    0 -0.52531542614E+02  0.11345456764E+03 -0.55149151482E+03  0.59002286939E+03  0.16838228408E+03 0.  0.
         24    2    5    5    0    0 -0.85007066612E+02  0.12369121642E+03 -0.40493010906E+03  0.43948455434E+03  0.81563238582E+02 0.  0.
          5    1    5    5  501    0  0.32475523998E+02 -0.10236648787E+02 -0.14656140576E+03  0.15053831504E+03  0.47000000000E+01 0. -1.
        -13    1    6    6    0    0  0.23330527363E+00  0.57969045280E+02 -0.93853950087E+02  0.11031332009E+03  0.00000000000E+00 0.  1.
         14    1    6    6    0    0 -0.85240371885E+02  0.65722171144E+02 -0.31107615897E+03  0.32917123426E+03  0.00000000000E+00 0. -1.
         -5    1    3    3    0  503  0.88939961262E+02 -0.41951638461E+02 -0.41937761874E+03  0.43077828842E+03  0.47000000000E+01 0.  1.
         13    1    4    4    0    0 -0.24152657807E+02 -0.98131780370E+01 -0.30961911662E+02  0.40475786788E+02  0.00000000000E+00 0. -1.
        -14    1    4    4    0    0 -0.12255760841E+02 -0.61689751139E+02 -0.40676494203E+03  0.41159876960E+03  0.00000000000E+00 0.  1.
</event>
<event>
12    1  0.8358445E-002  0.3831023E+03  0.7818608E-02  0.1049814E+00
         21   -1    0    0  503  502  0.00000000000E+00  0.00000000000E+00  0.38779569462E+04  0.38779569462E+04  0.00000000000E+00 0.  1.
         21   -1    0    0  501  503 -0.00000000000E+00 -0.00000000000E+00 -0.52346992993E+02  0.52346992993E+02  0.00000000000E+00 0. -1.
          6    2    1    2  501    0  0.19540544422E+03 -0.28112923527E+03  0.87732531506E+03  0.95723319607E+03  0.17140230060E+03 0.  0.
         24    2    3    3    0    0  0.57157896521E+02 -0.16743783546E+03  0.55826689117E+03  0.59136643523E+03  0.82157684074E+02 0.  0.
         -6    2    1    2    0  502 -0.19540544422E+03  0.28112923527E+03  0.29482846382E+04  0.29730707431E+04  0.17190230236E+03 0.  0.
        -24    2    5    5    0    0 -0.20203283280E+03  0.23648577098E+03  0.27862353709E+04  0.28047881945E+04  0.83585214734E+02 0.  0.
          5    1    3    3  501    0  0.13824754770E+03 -0.11369139980E+03  0.31905842389E+03  0.36586676084E+03  0.47000000000E+01 0. -1.
        -11    1    4    4    0    0 -0.41285494499E+01 -0.28350473261E+02  0.20215850798E+03  0.20417849202E+03  0.00000000000E+00 0.  1.
         12    1    4    4    0    0  0.61286445971E+02 -0.13908736220E+03  0.35610838320E+03  0.38718794321E+03  0.00000000000E+00 0. -1.
         -5    1    5    5    0  502  0.66273885830E+01  0.44643464282E+02  0.16204926724E+03  0.16828254869E+03  0.47000000000E+01 0.  1.
         11    1    6    6    0    0  0.44094265927E+01  0.18305974214E+01  0.15229249976E+03  0.15236731806E+03  0.00000000000E+00 0. -1.
        -12    1    6    6    0    0 -0.20644225939E+03  0.23465517356E+03  0.26339428712E+04  0.26524208764E+04  0.00000000000E+00 0.  1.
</event>
<event>
12    1  0.8358445E-002  0.1855145E+03  0.7818608E-02  0.1164774E+00
         21   -1    0    0  503  502  0.00000000000E+00  0.00000000000E+00  0.69481481297E+03  0.69481481297E+03  0.00000000000E+00 0.  1.
         21   -1    0    0  501  503 -0.00000000000E+00 -0.00000000000E+00 -0.53724812823E+02  0.53724812823E+02  0.00000000000E+00 0. -1.
          6    2    1    2  501    0 -0.17251235200E+02 -0.67588392028E+02  0.18201383529E+03  0.25339666230E+03  0.16191058142E+03 0.  0.
         24    2    3    3    0    0 -0.34742613829E+02 -0.87468911584E+02  0.18780868464E+03  0.22588568880E+03  0.83032419387E+02 0.  0.
         -6    2    1    2    0  502  0.17251235200E+02  0.67588392028E+02  0.45907616486E+03  0.49514296349E+03  0.17190064950E+03 0.  0.
        -24    2    5    5    0    0 -0.61793387633E+02  0.36015306909E+02  0.24433178965E+03  0.26409719143E+03  0.70240857066E+02 0.  0.
          5    1    3    3  501    0  0.17491378628E+02  0.19880519556E+02 -0.57948493497E+01  0.27510973504E+02  0.47000000000E+01 0. -1.
        -11    1    4    4    0    0 -0.47571104234E+02 -0.13414492899E+02  0.61403139844E+02  0.78824514971E+02  0.00000000000E+00 0.  1.
         12    1    4    4    0    0  0.12828490405E+02 -0.74054418685E+02  0.12640554479E+03  0.14706117383E+03  0.00000000000E+00 0. -1.
         -5    1    5    5    0  502  0.79044622833E+02  0.31573085119E+02  0.21474437522E+03  0.23104577207E+03  0.47000000000E+01 0.  1.
         11    1    6    6    0    0 -0.47994942615E+02  0.41027211019E+02  0.24087791284E+03  0.24901589398E+03  0.00000000000E+00 0. -1.
        -12    1    6    6    0    0 -0.13798445018E+02 -0.50119041096E+01  0.34538768065E+01  0.15081297448E+02  0.00000000000E+00 0.  1.
</event>
<event>
12    1  0.8358445E-002  0.2005025E+03  0.7818608E-02  0.1149393E+00
         21   -1    0    0  501  502  0.00000000000E+00  0.00000000000E+00  0.43353569707E+03  0.43353569707E+03  0.00000000000E+00 0. -1.
         21   -1    0    0  502  503 -0.00000000000E+00 -0.00000000000E+00 -0.10716425555E+03  0.10716425555E+03  0.00000000000E+00 0. -1.
         -6    2    1    2    0  503 -0.95406460962E+02  0.37186217113E+02  0.63249579893E+02  0.20989129337E+03  0.17195533763E+03 0.  0.
        -24    2    3    3    0    0 -0.22470969358E+02 -0.37635407883E+02  0.50897689534E+02  0.10457025702E+03  0.80143592773E+02 0.  0.
          6    2    1    2  501    0  0.95406460962E+02 -0.37186217113E+02  0.26312186162E+03  0.33080865925E+03  0.17238343144E+03 0.  0.
         24    2    5    5    0    0 -0.19233486329E+02 -0.39001333509E+01  0.10292767567E+03  0.13097235599E+03  0.78578073146E+02 0.  0.
          5    1    5    5  501    0  0.11463994729E+03 -0.33286083763E+02  0.16019418595E+03  0.19983630326E+03  0.47000000000E+01 0. -1.
        -13    1    6    6    0    0 -0.19587535206E+01 -0.39894759570E+02  0.40604769455E+02  0.56957667254E+02  0.00000000000E+00 0.  1.
         14    1    6    6    0    0 -0.17274732808E+02  0.35994626219E+02  0.62322906214E+02  0.74014688739E+02  0.00000000000E+00 0. -1.
         -5    1    3    3    0  503 -0.72935491604E+02  0.74821624996E+02  0.12351890359E+02  0.10532103635E+03  0.47000000000E+01 0.  1.
         13    1    4    4    0    0 -0.22599632324E+02 -0.29293674179E+02 -0.13687225573E+02  0.39448737267E+02  0.00000000000E+00 0. -1.
        -14    1    4    4    0    0  0.12866296605E+00 -0.83417337039E+01  0.64584915107E+02  0.65121519751E+02  0.00000000000E+00 0.  1.
</event>
<event>
12    1  0.8358445E-002  0.2442761E+03  0.7818608E-02  0.1117084E+00
         21   -1    0    0  501  502  0.00000000000E+00  0.00000000000E+00  0.10358127945E+04  0.10358127945E+04  0.00000000000E+00 0. -1.
         21   -1    0    0  502  503 -0.00000000000E+00 -0.00000000000E+00 -0.12273842319E+03  0.12273842319E+03  0.00000000000E+00 0. -1.
         -6    2    1    2    0  503 -0.14993382157E+03 -0.83870187071E+02  0.34348008679E+02  0.24667918510E+03  0.17365619924E+03 0.  0.
        -24    2    3    3    0    0 -0.11387585940E+03  0.13877567646E+02  0.40018801932E+02  0.14223279654E+03  0.73948398670E+02 0.  0.
          6    2    1    2  501    0  0.14993382157E+03  0.83870187071E+02  0.87872636264E+03  0.91187203259E+03  0.17273165399E+03 0.  0.
         24    2    5    5    0    0  0.47790682686E+02  0.10018459312E+03  0.47839835344E+03  0.49836993391E+03  0.84774432449E+02 0.  0.
          5    1    5    5  501    0  0.10214313888E+03 -0.16314406051E+02  0.40032800920E+03  0.41350209868E+03  0.47000000000E+01 0. -1.
        -11    1    6    6    0    0 -0.13809067601E+02 -0.68061153241E+01  0.38157235121E+02  0.41145937174E+02  0.00000000000E+00 0.  1.
         12    1    6    6    0    0  0.61599750288E+02  0.10699070845E+03  0.44024111832E+03  0.45722399674E+03  0.00000000000E+00 0. -1.
         -5    1    3    3    0  503 -0.36057962167E+02 -0.97747754717E+02 -0.56707932535E+01  0.10444638856E+03  0.47000000000E+01 0.  1.
         11    1    4    4    0    0 -0.37298158671E+02 -0.21750838041E+02  0.38360651656E+02  0.57756308670E+02  0.00000000000E+00 0. -1.
        -12    1    4    4    0    0 -0.76577700728E+02  0.35628405687E+02  0.16581502765E+01  0.84476487871E+02  0.00000000000E+00 0.  1.
</event>
<event>
12    1  0.8358445E-002  0.2219364E+03  0.7818608E-02  0.1132930E+00
         21   -1    0    0  501  502  0.00000000000E+00  0.00000000000E+00  0.32827681078E+04  0.32827681078E+04  0.00000000000E+00 0. -1.
         21   -1    0    0  502  503 -0.00000000000E+00 -0.00000000000E+00 -0.15202556245E+02  0.15202556245E+02  0.00000000000E+00 0. -1.
         -6    2    1    2    0  503 -0.32735919325E+02  0.13650145603E+03  0.18829257176E+04  0.18956571266E+04  0.16853010374E+03 0.  0.
        -24    2    3    3    0    0 -0.30677647047E+02  0.88444924112E+02  0.17479749470E+04  0.17523132491E+04  0.80135416416E+02 0.  0.
          6    2    1    2  501    0  0.32735919325E+02 -0.13650145603E+03  0.13846398340E+04  0.14023135375E+04  0.17190549585E+03 0.  0.
         24    2    5    5    0    0  0.23069996990E+02 -0.11114573359E+02  0.33408128100E+03  0.34424422796E+03  0.78981185531E+02 0.  0.
          5    1    5    5  501    0  0.96659223349E+01 -0.12538688267E+03  0.10505585530E+04  0.10580693095E+04  0.47000000000E+01 0. -1.
        -13    1    6    6    0    0 -0.26271262409E+02 -0.13593408139E+02  0.77563583846E+02  0.83012466006E+02  0.00000000000E+00 0.  1.
         14    1    6    6    0    0  0.49341259399E+02  0.24788347795E+01  0.25651769715E+03  0.26123176195E+03  0.00000000000E+00 0. -1.
         -5    1    3    3    0  503 -0.20582722785E+01  0.48056531920E+02  0.13495077055E+03  0.14334387750E+03  0.47000000000E+01 0.  1.
         13    1    4    4    0    0 -0.18569014717E+02  0.85990054264E+02  0.90892787793E+03  0.91317522142E+03  0.00000000000E+00 0. -1.
        -14    1    4    4    0    0 -0.12108632330E+02  0.24548698482E+01  0.83904706909E+03  0.83913802769E+03  0.00000000000E+00 0.  1.
</event>
<event>
12    1  0.8358445E-002  0.1951671E+03  0.7818608E-02  0.1153937E+00
         21   -1    0    0  501  502  0.00000000000E+00  0.00000000000E+00  0.17577098247E+03  0.17577098247E+03  0.00000000000E+00 0. -1.
         21   -1    0    0  502  503 -0.00000000000E+00 -0.00000000000E+00 -0.38588505391E+03  0.38588505391E+03  0.00000000000E+00 0. -1.
         -6    2    1    2    0  503  0.14849195178E+02 -0.90462780185E+02 -0.29119708926E+03  0.35055089227E+03  0.17229675006E+03 0.  0.
        -24    2    3    3    0    0  0.43216533775E+02 -0.94057259922E+02 -0.29217100815E+03  0.32155667386E+03  0.85559099829E+02 0.  0.
          6    2    1    2  501    0 -0.14849195178E+02  0.90462780185E+02  0.81083017820E+02  0.21110514411E+03  0.17200846750E+03 0.  0.
         24    2    5    5    0    0 -0.61649139522E+02  0.88932210104E+02  0.92078028097E+02  0.16277753620E+03  0.79426750115E+02 0.  0.
          5    1    5    5  501    0  0.46799944344E+02  0.15305700808E+01 -0.10995010276E+02  0.48327607910E+02  0.47000000000E+01 0. -1.
        -13    1    6    6    0    0 -0.16052708028E+02 -0.65406846216E+01 -0.61640513564E+01  0.18397432415E+02  0.00000000000E+00 0.  1.
         14    1    6    6    0    0 -0.45596431495E+02  0.95472894726E+02  0.98242079453E+02  0.14438010378E+03  0.00000000000E+00 0. -1.
         -5    1    3    3    0  503 -0.28367338596E+02  0.35944797374E+01  0.97391888371E+00  0.28994218417E+02  0.47000000000E+01 0.  1.
         13    1    4    4    0    0  0.54680184430E+02 -0.62670366879E+02 -0.26719135792E+03  0.27983695110E+03  0.00000000000E+00 0. -1.
        -14    1    4    4    0    0 -0.11463650655E+02 -0.31386893044E+02 -0.24979650227E+02  0.41719722755E+02  0.00000000000E+00 0.  1.
</event>
<event>
12    1  0.8358445E-002  0.2011230E+03  0.7818608E-02  0.1149761E+00
         21   -1    0    0  501  502  0.00000000000E+00  0.00000000000E+00  0.38471424920E+03  0.38471424920E+03  0.00000000000E+00 0.  1.
         21   -1    0    0  502  503 -0.00000000000E+00 -0.00000000000E+00 -0.13009368745E+03  0.13009368745E+03  0.00000000000E+00 0.  1.
         -6    2    1    2    0  503  0.38660411105E+02 -0.89268174206E+02  0.10513269581E+02  0.20139763420E+03  0.17603137195E+03 0.  0.
        -24    2    3    3    0    0  0.77314884168E+01 -0.62375043207E+02 -0.61476817842E+02  0.11842473838E+03  0.79338500115E+02 0.  0.
          6    2    1    2  501    0 -0.38660411105E+02  0.89268174206E+02  0.24410729217E+03  0.31341030245E+03  0.17080460555E+03 0.  0.
         24    2    5    5    0    0  0.17462336854E+02  0.94519807875E+02  0.21976817122E+03  0.25183250366E+03  0.76698328076E+02 0.  0.
          5    1    5    5  501    0 -0.56122747959E+02 -0.52516336694E+01  0.24339120947E+02  0.61577798784E+02  0.47000000000E+01 0. -1.
        -13    1    6    6    0    0 -0.29446904442E+02  0.33679812596E+02  0.63199400606E+02  0.77431351497E+02  0.00000000000E+00 0.  1.
         14    1    6    6    0    0  0.46909241296E+02  0.60839995280E+02  0.15656877061E+03  0.17440115216E+03  0.00000000000E+00 0. -1.
         -5    1    3    3    0  503  0.30928922688E+02 -0.26893130999E+02  0.71990087424E+02  0.82972895820E+02  0.47000000000E+01 0.  1.
         11    1    4    4    0    0 -0.70197120405E+01 -0.56420851412E+02 -0.20361792675E+01  0.56892309297E+02  0.00000000000E+00 0. -1.
        -12    1    4    4    0    0  0.14751200457E+02 -0.59541917954E+01 -0.59440638575E+02  0.61532429084E+02  0.00000000000E+00 0.  1.
</event>
<event>
12    1  0.8358445E-002  0.1849216E+03  0.7818608E-02  0.1163284E+00
         21   -1    0    0  503  502  0.00000000000E+00  0.00000000000E+00  0.93256046469E+03  0.93256046469E+03  0.00000000000E+00 0. -1.
         21   -1    0    0  501  503 -0.00000000000E+00 -0.00000000000E+00 -0.39887695055E+02  0.39887695055E+02  0.00000000000E+00 0. -1.
          6    2    1    2  501    0 -0.47640056311E+02 -0.45124059382E+02  0.30608963061E+03  0.35761274936E+03  0.17288800085E+03 0.  0.
         24    2    3    3    0    0 -0.95773230791E+02 -0.12690575067E+02  0.20757168703E+03  0.24317233431E+03  0.81934220476E+02 0.  0.
         -6    2    1    2    0  502  0.47640056311E+02  0.45124059382E+02  0.58658313903E+03  0.61483541038E+03  0.17215413783E+03 0.  0.
        -24    2    5    5    0    0 -0.41316058188E+02  0.19318376406E+02  0.31278487373E+03  0.32575634912E+03  0.78756621487E+02 0.  0.
          5    1    3    3  501    0  0.48133174479E+02 -0.32433484316E+02  0.98517943578E+02  0.11444041505E+03  0.47000000000E+01 0. -1.
        -13    1    4    4    0    0 -0.16879572520E+02  0.31821098949E+02  0.62775501753E+02  0.72375865640E+02  0.00000000000E+00 0.  1.
         14    1    4    4    0    0 -0.78893658271E+02 -0.44511674015E+02  0.14479618528E+03  0.17079646867E+03  0.00000000000E+00 0. -1.
         -5    1    5    5    0  502  0.88956114499E+02  0.25805682976E+02  0.27379826530E+03  0.28907906126E+03  0.47000000000E+01 0.  1.
         11    1    6    6    0    0  0.23382901114E+02  0.10430951236E+02  0.81390733443E+02  0.85323011542E+02  0.00000000000E+00 0. -1.
        -12    1    6    6    0    0 -0.64698959302E+02  0.88874251700E+01  0.23139414029E+03  0.24043333758E+03  0.00000000000E+00 0.  1.
</event>
<event>
12    1  0.8358445E-002  0.2163841E+03  0.7818608E-02  0.1136692E+00
         21   -1    0    0  501  502  0.00000000000E+00  0.00000000000E+00  0.25336134550E+03  0.25336134550E+03  0.00000000000E+00 0. -1.
         21   -1    0    0  502  503 -0.00000000000E+00 -0.00000000000E+00 -0.29630369845E+03  0.29630369845E+03  0.00000000000E+00 0. -1.
         -6    2    1    2    0  503 -0.12985955242E+03 -0.14435934395E+02 -0.19033398252E+03  0.28785145378E+03  0.17192886605E+03 0.  0.
        -24    2    3    3    0    0 -0.78937579833E+02 -0.34746327393E+02 -0.20028815413E+03  0.23193423918E+03  0.78991758068E+02 0.  0.
          6    2    1    2  501    0  0.12985955242E+03  0.14435934395E+02  0.14739162957E+03  0.26181359018E+03  0.17248235846E+03 0.  0.
         24    2    5    5    0    0  0.56360372893E+02  0.37776968195E+02  0.28310769869E+02  0.11986545036E+03  0.94671197001E+02 0.  0.
          5    1    5    5  501    0  0.73499179526E+02 -0.23341033800E+02  0.11908085970E+03  0.14194813982E+03  0.47000000000E+01 0. -1.
        -11    1    6    6    0    0 -0.11611569389E+02 -0.15176377771E+02 -0.14178685958E+02  0.23794665819E+02  0.00000000000E+00 0.  1.
         12    1    6    6    0    0  0.67971942281E+02  0.52953345967E+02  0.42489455828E+02  0.96070784545E+02  0.00000000000E+00 0. -1.
         -5    1    3    3    0  503 -0.50921972586E+02  0.20310392997E+02  0.99541716083E+01  0.55917214596E+02  0.47000000000E+01 0.  1.
         13    1    4    4    0    0 -0.54238083257E+02 -0.29562077649E+02 -0.49803078652E+02  0.79347544092E+02  0.00000000000E+00 0. -1.
        -14    1    4    4    0    0 -0.24699496576E+02 -0.51842497439E+01 -0.15048507548E+03  0.15258669509E+03  0.00000000000E+00 0.  1.
</event>
<event>
12    1  0.8358445E-002  0.2249467E+03  0.7818608E-02  0.1131301E+00
         21   -1    0    0  503  502  0.00000000000E+00  0.00000000000E+00  0.65026623693E+03  0.65026623693E+03  0.00000000000E+00 0.  1.
         21   -1    0    0  501  503 -0.00000000000E+00 -0.00000000000E+00 -0.19135210795E+03  0.19135210795E+03  0.00000000000E+00 0. -1.
          6    2    1    2  501    0  0.48460145401E+02 -0.12775531059E+03 -0.96302241271E+02  0.24469395076E+03  0.17869304067E+03 0.  0.
         24    2    3    3    0    0  0.73646808446E+02 -0.11722156810E+03 -0.17491686491E+02  0.16115640668E+03  0.80626793893E+02 0.  0.
         -6    2    1    2    0  502 -0.48460145401E+02  0.12775531059E+03  0.55521637025E+03  0.59692439412E+03  0.17141677112E+03 0.  0.
        -24    2    5    5    0    0 -0.55334698975E+02  0.15739001183E+02  0.17531644484E+03  0.20076665232E+03  0.79131206122E+02 0.  0.
          5    1    3    3  501    0 -0.25186663045E+02 -0.10533742489E+02 -0.78810554779E+02  0.83537544079E+02  0.47000000000E+01 0. -1.
        -11    1    4    4    0    0 -0.17058862729E+02 -0.12521404096E+02 -0.67602617601E+01  0.22214668514E+02  0.00000000000E+00 0.  1.
         12    1    4    4    0    0  0.90705671175E+02 -0.10470016401E+03 -0.10731424731E+02  0.13894173816E+03  0.00000000000E+00 0. -1.
         -5    1    5    5    0  502  0.68745535733E+01  0.11201630941E+03  0.37989992541E+03  0.39615774180E+03  0.47000000000E+01 0.  1.
         11    1    6    6    0    0 -0.71015603026E+02  0.12498367157E+02  0.16865720276E+03  0.18342485409E+03  0.00000000000E+00 0. -1.
        -12    1    6    6    0    0  0.15680904052E+02  0.32406340262E+01  0.66592420838E+01  0.17341798231E+02  0.00000000000E+00 0.  1.
</event>
<event>
12    1  0.8358445E-002  0.2341246E+03  0.7818608E-02  0.1124176E+00
         21   -1    0    0  501  502  0.00000000000E+00  0.00000000000E+00  0.46368755319E+02  0.46368755319E+02  0.00000000000E+00 0.  1.
         21   -1    0    0  502  503 -0.00000000000E+00 -0.00000000000E+00 -0.12881242691E+04  0.12881242691E+04  0.00000000000E+00 0. -1.
         -6    2    1    2    0  503  0.12067491395E+03 -0.99855888155E+02 -0.82552073720E+03  0.85807856060E+03  0.17401349189E+03 0.  0.
        -24    2    3    3    0    0  0.13530736919E+03 -0.26960096638E+02 -0.58373979845E+03  0.60508050229E+03  0.79594792468E+02 0.  0.
          6    2    1    2  501    0 -0.12067491395E+03  0.99855888155E+02 -0.41623477659E+03  0.47641446383E+03  0.17083828272E+03 0.  0.
         24    2    5    5    0    0 -0.12545191522E+03  0.21803237873E+02 -0.30751361648E+03  0.34240917806E+03  0.80410550839E+02 0.  0.
          5    1    5    5  501    0  0.47770012715E+01  0.78052650282E+02 -0.10872116011E+03  0.13400528577E+03  0.47000000000E+01 0. -1.
        -13    1    6    6    0    0 -0.91930930939E+01 -0.80546039447E+01  0.82629931599E-01  0.12222783359E+02  0.00000000000E+00 0.  1.
         14    1    6    6    0    0 -0.11625882213E+03  0.29857841818E+02 -0.30759624641E+03  0.33018639470E+03  0.00000000000E+00 0. -1.
         -5    1    3    3    0  503 -0.14632455241E+02 -0.72895791517E+02 -0.24178093875E+03  0.25299805831E+03  0.47000000000E+01 0.  1.
         13    1    4    4    0    0  0.59697547584E+02  0.11851063835E+02 -0.37157001712E+03  0.37652160964E+03  0.00000000000E+00 0. -1.
        -14    1    4    4    0    0  0.75609821604E+02 -0.38811160473E+02 -0.21216978133E+03  0.22855889265E+03  0.00000000000E+00 0.  1.
</event>
<event>
12    1  0.8358445E-002  0.1896805E+03  0.7818608E-02  0.1159042E+00
         21   -1    0    0  501  502  0.00000000000E+00  0.00000000000E+00  0.75624503544E+03  0.75624503544E+03  0.00000000000E+00 0.  1.
         21   -1    0    0  502  503 -0.00000000000E+00 -0.00000000000E+00 -0.37090823602E+03  0.37090823602E+03  0.00000000000E+00 0.  1.
         -6    2    1    2    0  503  0.28148039681E+02 -0.71053641849E+02 -0.33386915200E+03  0.38335499623E+03  0.17219613911E+03 0.  0.
        -24    2    3    3    0    0  0.37770849485E+02  0.87470657154E+01 -0.87725404120E+02  0.12437703189E+03  0.79188075517E+02 0.  0.
          6    2    1    2  501    0 -0.28148039681E+02  0.71053641849E+02  0.71920595142E+03  0.74379827522E+03  0.17360225089E+03 0.  0.
         24    2    5    5    0    0  0.85399795133E+01  0.10537643146E+03  0.41407103317E+03  0.43451931866E+03  0.78581767746E+02 0.  0.
          5    1    5    5  501    0 -0.36688019195E+02 -0.34322789610E+02  0.30513491825E+03  0.30927895657E+03  0.47000000000E+01 0. -1.
        -13    1    6    6    0    0  0.30448193093E+00  0.55280517230E+02  0.34154524579E+03  0.34599014902E+03  0.00000000000E+00 0.  1.
         14    1    6    6    0    0  0.82354975824E+01  0.50095914229E+02  0.72525787378E+02  0.88529169643E+02  0.00000000000E+00 0. -1.
         -5    1    3    3    0  503 -0.96228098033E+01 -0.79800707565E+02 -0.24614374788E+03  0.25897796434E+03  0.47000000000E+01 0.  1.
         13    1    4    4    0    0 -0.71039888437E+01  0.32435761951E+01  0.12322099380E+02  0.14588405573E+02  0.00000000000E+00 0. -1.
        -14    1    4    4    0    0  0.44874838328E+02  0.55034895203E+01 -0.10004750350E+03  0.10978862632E+03  0.00000000000E+00 0.  1.
</event>
<event>
12    1  0.8358445E-002  0.2191525E+03  0.7818608E-02  0.1135105E+00
         21   -1    0    0  501  502  0.00000000000E+00  0.00000000000E+00  0.14827745551E+03  0.14827745551E+03  0.00000000000E+00 0. -1.
         21   -1    0    0  502  503 -0.00000000000E+00 -0.00000000000E+00 -0.33139027907E+03  0.33139027907E+03  0.00000000000E+00 0.  1.
         -6    2    1    2    0  503  0.12712927215E+03 -0.31721960127E+02 -0.45146657342E+02  0.22070348275E+03  0.17176632975E+03 0.  0.
        -24    2    3    3    0    0  0.13522635148E+03 -0.71088347436E+02 -0.51144079013E+02  0.17979707482E+03  0.79822002098E+02 0.  0.
          6    2    1    2  501    0 -0.12712927215E+03  0.31721960127E+02 -0.13796616622E+03  0.25896425183E+03  0.17566925204E+03 0.  0.
         24    2    5    5    0    0 -0.95914738232E+02  0.86468897905E+02 -0.12033083497E+03  0.19335427369E+03  0.78929449472E+02 0.  0.
          5    1    5    5  501    0 -0.31214533920E+02 -0.54746937778E+02 -0.17635331252E+02  0.65609978146E+02  0.47000000000E+01 0. -1.
        -11    1    6    6    0    0 -0.73555595990E+02  0.41498212489E+02 -0.29307500854E+02  0.89394949229E+02  0.00000000000E+00 0.  1.
         12    1    6    6    0    0 -0.22359142242E+02  0.44970685417E+02 -0.91023334115E+02  0.10395932446E+03  0.00000000000E+00 0. -1.
         -5    1    3    3    0  503 -0.80970793273E+01  0.39366387309E+02  0.59974216716E+01  0.40906407935E+02  0.47000000000E+01 0.  1.
         11    1    4    4    0    0  0.57186085065E+02  0.47182126016E+01  0.45731641372E+01  0.57562346073E+02  0.00000000000E+00 0. -1.
        -12    1    4    4    0    0  0.78040266415E+02 -0.75806560038E+02 -0.55717243151E+02  0.12223472874E+03  0.00000000000E+00 0.  1.
</event>
<event>
12    1  0.8358445E-002  0.1795978E+03  0.7818608E-02  0.1168196E+00
         21   -1    0    0  501  502  0.00000000000E+00  0.00000000000E+00  0.49502721219E+02  0.49502721219E+02  0.00000000000E+00 0. -1.
         21   -1    0    0  502  503 -0.00000000000E+00 -0.00000000000E+00 -0.84457338763E+03  0.84457338763E+03  0.00000000000E+00 0. -1.
         -6    2    1    2    0  503  0.35988749115E+02  0.37251906701E+02 -0.61126535507E+03  0.63710336706E+03  0.17196648337E+03 0.  0.
        -24    2    3    3    0    0 -0.45095266052E+02  0.28996370226E+02 -0.28004415114E+03  0.29596945300E+03  0.79365093150E+02 0.  0.
          6    2    1    2  501    0 -0.35988749115E+02 -0.37251906701E+02 -0.18380531135E+03  0.25697274179E+03  0.17195261826E+03 0.  0.
         24    2    5    5    0    0 -0.55178253370E+02  0.25264279107E+02 -0.15709148223E+03  0.18617564278E+03  0.79377028994E+02 0.  0.
          5    1    5    5  501    0  0.19189504255E+02 -0.62516185808E+02 -0.26713829112E+02  0.70797099004E+02  0.47000000000E+01 0. -1.
        -11    1    6    6    0    0  0.16477696578E+02  0.13047039136E+02 -0.68102129078E+02  0.71271591112E+02  0.00000000000E+00 0.  1.
         12    1    6    6    0    0 -0.71655949948E+02  0.12217239971E+02 -0.88989353156E+02  0.11490405167E+03  0.00000000000E+00 0. -1.
         -5    1    3    3    0  503  0.81084015167E+02  0.82555364749E+01 -0.33122120392E+03  0.34113391407E+03  0.47000000000E+01 0.  1.
         13    1    4    4    0    0  0.13863278190E+02  0.33712246277E+02 -0.11567768104E+03  0.12128492043E+03  0.00000000000E+00 0. -1.
        -14    1    4    4    0    0 -0.58958544242E+02 -0.47158760510E+01 -0.16436647010E+03  0.17468453257E+03  0.00000000000E+00 0.  1.
</event>
<event>
12    1  0.8358445E-002  0.1781356E+03  0.7818608E-02  0.1169735E+00
         21   -1    0    0  501  502  0.00000000000E+00  0.00000000000E+00  0.19918351320E+03  0.19918351320E+03  0.00000000000E+00 0. -1.
         21   -1    0    0  502  503 -0.00000000000E+00 -0.00000000000E+00 -0.19468761682E+03  0.19468761682E+03  0.00000000000E+00 0. -1.
         -6    2    1    2    0  503  0.13237330263E+02  0.41673945546E+02 -0.82195088379E+02  0.19618441652E+03  0.17268569159E+03 0.  0.
        -24    2    3    3    0    0 -0.25471782510E+02  0.75636553313E+01  0.17070667383E+02  0.84212600523E+02  0.78066214304E+02 0.  0.
          6    2    1    2  501    0 -0.13237330263E+02 -0.41673945546E+02  0.86690984769E+02  0.19768671350E+03  0.17219978282E+03 0.  0.
         24    2    5    5    0    0  0.26153891482E+02 -0.69938811353E+02  0.93816839361E+02  0.14845827870E+03  0.87537407962E+02 0.  0.
          5    1    5    5  501    0 -0.39391221745E+02  0.28264865807E+02 -0.71258545921E+01  0.49228434805E+02  0.47000000000E+01 0. -1.
        -13    1    6    6    0    0 -0.21053956550E+02 -0.44806833989E+02  0.12381082080E+02  0.51031486868E+02  0.00000000000E+00 0.  1.
         14    1    6    6    0    0  0.47207848032E+02 -0.25131977364E+02  0.81435757280E+02  0.97426791828E+02  0.00000000000E+00 0. -1.
         -5    1    3    3    0  503  0.38709112773E+02  0.34110290214E+02 -0.99265755762E+02  0.11197181600E+03  0.47000000000E+01 0.  1.
         11    1    4    4    0    0  0.18420122383E+02 -0.18361819890E+02 -0.82603943161E+01  0.27289035390E+02  0.00000000000E+00 0. -1.
        -12    1    4    4    0    0 -0.43891904893E+02  0.25925475221E+02  0.25331061699E+02  0.56923565133E+02  0.00000000000E+00 0.  1.
</event>
<event>
12    1  0.8358445E-002  0.2397211E+03  0.7818608E-02  0.1120175E+00
         21   -1    0    0  501  502  0.00000000000E+00  0.00000000000E+00  0.97399834509E+02  0.97399834509E+02  0.00000000000E+00 0.  1.
         21   -1    0    0  502  503 -0.00000000000E+00 -0.00000000000E+00 -0.59769644515E+03  0.59769644515E+03  0.00000000000E+00 0. -1.
         -6    2    1    2    0  503 -0.16688031190E+03 -0.13503523491E+02 -0.29577822147E+03  0.37998681863E+03  0.16992304845E+03 0.  0.
        -24    2    3    3    0    0 -0.12442040280E+03 -0.69590880847E+02 -0.17086699417E+03  0.23655202425E+03  0.80237168115E+02 0.  0.
          6    2    1    2  501    0  0.16688031190E+03  0.13503523491E+02 -0.20451838918E+03  0.31510946103E+03  0.17156578118E+03 0.  0.
         24    2    5    5    0    0  0.12173689160E+03  0.45673450333E+02 -0.65539824604E+02  0.16540988187E+03  0.78479459545E+02 0.  0.
          5    1    5    5  501    0  0.45143420303E+02 -0.32169926842E+02 -0.13897856457E+03  0.14969957916E+03  0.47000000000E+01 0. -1.
        -11    1    6    6    0    0  0.11073823448E+03  0.64313812828E+02 -0.65340145141E+02  0.14376563450E+03  0.00000000000E+00 0.  1.
         12    1    6    6    0    0  0.10998657114E+02 -0.18640362495E+02 -0.19967946248E+00  0.21644247368E+02  0.00000000000E+00 0. -1.
         -5    1    3    3    0  503 -0.42459909094E+02  0.56087357356E+02 -0.12491122730E+03  0.14343479439E+03  0.47000000000E+01 0.  1.
         13    1    4    4    0    0 -0.46444295455E+02 -0.71693304021E+02 -0.94560177174E+02  0.12743088138E+03  0.00000000000E+00 0. -1.
        -14    1    4    4    0    0 -0.77976107350E+02  0.21024231738E+01 -0.76306816995E+02  0.10912114287E+03  0.00000000000E+00 0.  1.
</event>
<event>
12    1  0.8358445E-002  0.2097070E+03  0.7818608E-02  0.1141999E+00
         21   -1    0    0  503  502  0.00000000000E+00  0.00000000000E+00  0.23572646187E+03  0.23572646187E+03  0.00000000000E+00 0. -1.
         21   -1    0    0  501  503 -0.00000000000E+00 -0.00000000000E+00 -0.20399175860E+03  0.20399175860E+03  0.00000000000E+00 0. -1.
          6    2    1    2  501    0  0.11786999563E+03 -0.11995585904E+02  0.81803794332E+02  0.22509752918E+03  0.17303123108E+03 0.  0.
         24    2    3    3    0    0  0.26951239508E+02 -0.59314387992E+02  0.18345787070E+02  0.10445633419E+03  0.79561246309E+02 0.  0.
         -6    2    1    2    0  502 -0.11786999563E+03  0.11995585904E+02 -0.50069091055E+02  0.21462069129E+03  0.17180773353E+03 0.  0.
        -24    2    5    5    0    0 -0.21509278126E+02 -0.40972170697E+02 -0.47268441760E+02  0.10452571069E+03  0.80931766270E+02 0.  0.
          5    1    3    3  501    0  0.90918756118E+02  0.47318802088E+02  0.63458007262E+02  0.12064119500E+03  0.47000000000E+01 0. -1.
        -11    1    4    4    0    0  0.50379119939E+02 -0.21650170168E+02  0.23780272842E+02  0.59768611918E+02  0.00000000000E+00 0.  1.
         12    1    4    4    0    0 -0.23427880431E+02 -0.37664217824E+02 -0.54344857720E+01  0.44687722267E+02  0.00000000000E+00 0. -1.
         -5    1    5    5    0  502 -0.96360717500E+02  0.52967756601E+02 -0.28006492946E+01  0.11009498060E+03  0.47000000000E+01 0.  1.
         13    1    6    6    0    0 -0.41811853820E+02  0.28586914235E+01 -0.35214086261E+02  0.54739703212E+02  0.00000000000E+00 0. -1.
        -14    1    6    6    0    0  0.20302575694E+02 -0.43830862121E+02 -0.12054355499E+02  0.49786007478E+02  0.00000000000E+00 0.  1.
</event>
<event>
12    1  0.8358445E-002  0.1930920E+03  0.7818608E-02  0.1156001E+00
         21   -1    0    0  501  502  0.00000000000E+00  0.00000000000E+00  0.39289285659E+03  0.39289285659E+03  0.00000000000E+00 0. -1.
         21   -1    0    0  502  503 -0.00000000000E+00 -0.00000000000E+00 -0.95156523373E+02  0.95156523373E+02  0.00000000000E+00 0.  1.
         -6    2    1    2    0  503 -0.49743812975E+02  0.71309229558E+02  0.17235649377E+03  0.25782201041E+03  0.17089755691E+03 0.  0.
        -24    2    3    3    0    0 -0.51609312082E+01 -0.57676163764E+01  0.14669391016E+03  0.16503660356E+03  0.75220187638E+02 0.  0.
          6    2    1    2  501    0  0.49743812975E+02 -0.71309229558E+02  0.12537983945E+03  0.23022736956E+03  0.17240964127E+03 0.  0.
         24    2    5    5    0    0 -0.27970730900E+02 -0.39960983205E+02  0.33465158459E+02  0.10575784935E+03  0.87667347980E+02 0.  0.
          5    1    5    5  501    0  0.77714543875E+02 -0.31348246353E+02  0.91914680995E+02  0.12446952021E+03  0.47000000000E+01 0. -1.
        -11    1    6    6    0    0 -0.37862765436E+02 -0.31821568124E+02 -0.18068272887E+02  0.52656088816E+02  0.00000000000E+00 0.  1.
         12    1    6    6    0    0  0.98920345360E+01 -0.81394150817E+01  0.51533431346E+02  0.53101760530E+02  0.00000000000E+00 0. -1.
         -5    1    3    3    0  503 -0.44582881767E+02  0.77076845934E+02  0.25662583605E+02  0.92785406843E+02  0.47000000000E+01 0.  1.
         13    1    4    4    0    0  0.30395859845E+02  0.14959034920E+02  0.56160216328E+02  0.65586972178E+02  0.00000000000E+00 0. -1.
        -14    1    4    4    0    0 -0.35556791053E+02 -0.20726651297E+02  0.90533693833E+02  0.99449631387E+02  0.00000000000E+00 0.  1.
</event>
<event>
12    1  0.8358445E-002  0.1873298E+03  0.7818608E-02  0.1161696E+00
         21   -1    0    0  503  502  0.00000000000E+00  0.00000000000E+00  0.55117168255E+03  0.55117168255E+03  0.00000000000E+00 0.  1.
         21   -1    0    0  501  503 -0.00000000000E+00 -0.00000000000E+00 -0.11345837928E+03  0.11345837928E+03  0.00000000000E+00 0.  1.
          6    2    1    2  501    0  0.47875520075E+02  0.56495913082E+02 -0.27296291805E+01  0.18734972635E+03  0.17207154172E+03 0.  0.
         24    2    3    3    0    0 -0.94425979094E+01 -0.10902009403E+02  0.27243562517E+02  0.93817224913E+02  0.88608371655E+02 0.  0.
         -6    2    1    2    0  502 -0.47875520075E+02 -0.56495913082E+02  0.44044293245E+03  0.47728033549E+03  0.16829345881E+03 0.  0.
        -24    2    5    5    0    0 -0.44756462836E+02  0.29941019938E+02  0.20066848282E+03  0.22233926660E+03  0.79166304920E+02 0.  0.
          5    1    3    3  501    0  0.57318117984E+02  0.67397922484E+02 -0.29973191697E+02  0.93532501437E+02  0.47000000000E+01 0. -1.
        -11    1    4    4    0    0  0.18839818795E+02  0.30247641247E+01 -0.25813916258E+02  0.32100564525E+02  0.00000000000E+00 0.  1.
         12    1    4    4    0    0 -0.28282416704E+02 -0.13926773527E+02  0.53057478774E+02  0.61716660388E+02  0.00000000000E+00 0. -1.
         -5    1    5    5    0  502 -0.31190572388E+01 -0.86436933019E+02  0.23977444963E+03  0.25494106889E+03  0.47000000000E+01 0.  1.
         13    1    6    6    0    0  0.22231712074E+02 -0.61429295108E-01  0.42228802526E+02  0.47723417293E+02  0.00000000000E+00 0. -1.
        -14    1    6    6    0    0 -0.66988174911E+02  0.30002449233E+02  0.15843968029E+03  0.17461584931E+03  0.00000000000E+00 0.  1.
</event>
<event>
12    1  0.8358445E-002  0.2044069E+03  0.7818608E-02  0.1146391E+00
         21   -1    0    0  501  502  0.00000000000E+00  0.00000000000E+00  0.74173497817E+03  0.74173497817E+03  0.00000000000E+00 0. -1.
         21   -1    0    0  502  503 -0.00000000000E+00 -0.00000000000E+00 -0.56355641302E+02  0.56355641302E+02  0.00000000000E+00 0. -1.
         -6    2    1    2    0  503  0.34936009187E+02  0.10500021892E+03  0.30573546723E+03  0.36691588842E+03  0.17002212370E+03 0.  0.
        -24    2    3    3    0    0  0.43161043233E+02  0.12199439184E+03  0.16481665418E+03  0.22466029111E+03  0.81007466398E+02 0.  0.
          6    2    1    2  501    0 -0.34936009187E+02 -0.10500021892E+03  0.37964386964E+03  0.43117473104E+03  0.17186218381E+03 0.  0.
         24    2    5    5    0    0 -0.48456126380E+02 -0.22974671808E+02  0.98469335565E+02  0.13793047695E+03  0.80329164668E+02 0.  0.
          5    1    5    5  501    0  0.13520117193E+02 -0.82025547114E+02  0.28117453407E+03  0.29324425410E+03  0.47000000000E+01 0. -1.
        -13    1    6    6    0    0 -0.16313823334E+02 -0.31482642529E+02  0.15785817384E+01  0.35493513952E+02  0.00000000000E+00 0.  1.
         14    1    6    6    0    0 -0.32142303047E+02  0.85079707208E+01  0.96890753826E+02  0.10243696300E+03  0.00000000000E+00 0. -1.
         -5    1    3    3    0  503 -0.82250340457E+01 -0.16994172917E+02  0.14091881304E+03  0.14225559732E+03  0.47000000000E+01 0.  1.
         11    1    4    4    0    0  0.51944344556E+02  0.45054551271E+02  0.45625598233E+02  0.82521650103E+02  0.00000000000E+00 0. -1.
        -12    1    4    4    0    0 -0.87833013229E+01  0.76939840567E+02  0.11919105595E+03  0.14213864101E+03  0.00000000000E+00 0.  1.
</event>
<event>
12    1  0.8358445E-002  0.2003548E+03  0.7818608E-02  0.1150365E+00
         21   -1    0    0  503  502  0.00000000000E+00  0.00000000000E+00  0.16171304250E+03  0.16171304250E+03  0.00000000000E+00 0.  1.
         21   -1    0    0  501  503 -0.00000000000E+00 -0.00000000000E+00 -0.30679689034E+03  0.30679689034E+03  0.00000000000E+00 0.  1.
          6    2    1    2  501    0 -0.69410611230E+02  0.66666402594E+02  0.33750107176E+02  0.20317755425E+03  0.17572651089E+03 0.  0.
         24    2    3    3    0    0 -0.97512413909E+02  0.36632469149E+02  0.70048353803E+02  0.14811939245E+03  0.78625529485E+02 0.  0.
         -6    2    1    2    0  502  0.69410611230E+02 -0.66666402594E+02 -0.17883395502E+03  0.26533237859E+03  0.17075551374E+03 0.  0.
        -24    2    5    5    0    0  0.62117492232E+02  0.25334611257E+02 -0.68456387165E+02  0.12137865818E+03  0.74471983654E+02 0.  0.
          5    1    3    3  501    0  0.28101802679E+02  0.30033933445E+02 -0.36298246627E+02  0.55058161795E+02  0.47000000000E+01 0. -1.
        -13    1    4    4    0    0 -0.91497296362E+02  0.57250776555E+02  0.65214070570E+02  0.12610424917E+03  0.00000000000E+00 0.  1.
         14    1    4    4    0    0 -0.60151175478E+01 -0.20618307406E+02  0.48342832337E+01  0.22015143283E+02  0.00000000000E+00 0. -1.
         -5    1    5    5    0  502  0.72931189983E+01 -0.92001013851E+02 -0.11037756786E+03  0.14395372041E+03  0.47000000000E+01 0.  1.
         13    1    6    6    0    0 -0.13844652650E+02 -0.23539607182E+01 -0.27196293094E+02  0.30608069134E+02  0.00000000000E+00 0. -1.
        -14    1    6    6    0    0  0.75962144882E+02  0.27688571975E+02 -0.41260094071E+02  0.90770589046E+02  0.00000000000E+00 0.  1.
</event>
<event>
12    1  0.8358445E-002  0.3321104E+03  0.7818608E-02  0.1070365E+00
         21   -1    0    0  503  502  0.00000000000E+00  0.00000000000E+00  0.32728199229E+03  0.32728199229E+03  0.00000000000E+00 0. -1.
         21   -1    0    0  501  503 -0.00000000000E+00 -0.00000000000E+00 -0.39094556698E+03  0.39094556698E+03  0.00000000000E+00 0.  1.
          6    2    1    2  501    0  0.26402530022E+03 -0.99936629982E+02  0.10328062812E+03  0.34779908637E+03  0.17493034947E+03 0.  0.
         24    2    3    3    0    0  0.74896310891E+02 -0.50275039386E+02 -0.12052073021E+02  0.12073132085E+03  0.79333236412E+02 0.  0.
         -6    2    1    2    0  502 -0.26402530022E+03  0.99936629982E+02 -0.16694420282E+03  0.37042847290E+03  0.17219232709E+03 0.  0.
        -24    2    5    5    0    0 -0.79776816717E+02  0.93683207679E+02 -0.67382169529E+02  0.16085438710E+03  0.78694937534E+02 0.  0.
          5    1    3    3  501    0  0.18912898933E+03 -0.49661590596E+02  0.11533270114E+03  0.22706776552E+03  0.47000000000E+01 0. -1.
        -13    1    4    4    0    0  0.86788641231E+02 -0.50399353899E+02 -0.24714586798E+02  0.10335944040E+03  0.00000000000E+00 0.  1.
         14    1    4    4    0    0 -0.11892330340E+02  0.12431451235E+00  0.12662513778E+02  0.17371880445E+02  0.00000000000E+00 0. -1.
         -5    1    5    5    0  502 -0.18424848350E+03  0.62534223037E+01 -0.99562033287E+02  0.20957408579E+03  0.47000000000E+01 0.  1.
         11    1    6    6    0    0  0.10433116187E+02  0.39160856859E+02 -0.15727307662E+02  0.43471494448E+02  0.00000000000E+00 0. -1.
        -12    1    6    6    0    0 -0.90209932904E+02  0.54522350820E+02 -0.51654861867E+02  0.11738289265E+03  0.00000000000E+00 0.  1.
</event>
<event>
12    1  0.8358445E-002  0.1890307E+03  0.7818608E-02  0.1161179E+00
         21   -1    0    0  503  502  0.00000000000E+00  0.00000000000E+00  0.48556935335E+03  0.48556935335E+03  0.00000000000E+00 0.  1.
         21   -1    0    0  501  503 -0.00000000000E+00 -0.00000000000E+00 -0.70779567901E+02  0.70779567901E+02  0.00000000000E+00 0.  1.
          6    2    1    2  501    0  0.60242634362E+02 -0.46287399129E+02  0.19554901803E+03  0.27197795216E+03  0.17309214222E+03 0.  0.
         24    2    3    3    0    0 -0.16242167870E+02  0.10370660150E+02  0.45132693220E+02  0.93912735392E+02  0.80070489336E+02 0.  0.
         -6    2    1    2    0  502 -0.60242634362E+02  0.46287399129E+02  0.21924076742E+03  0.28437096909E+03  0.16440387967E+03 0.  0.
        -24    2    5    5    0    0  0.27554643005E+02  0.77706880848E+01  0.10788887066E+03  0.13735656893E+03  0.80044841629E+02 0.  0.
          5    1    3    3  501    0  0.76484802232E+02 -0.56658059279E+02  0.15041632481E+03  0.17806521677E+03  0.47000000000E+01 0. -1.
        -13    1    4    4    0    0  0.16760280841E+02  0.34462208493E+02  0.34803404580E+02  0.51767053214E+02  0.00000000000E+00 0.  1.
         14    1    4    4    0    0 -0.33002448711E+02 -0.24091548343E+02  0.10329288639E+02  0.42145682178E+02  0.00000000000E+00 0. -1.
         -5    1    5    5    0  502 -0.87797277367E+02  0.38516711044E+02  0.11135189676E+03  0.14701440017E+03  0.47000000000E+01 0.  1.
         11    1    6    6    0    0  0.68079321055E+01  0.22946113845E+02 -0.24531548934E+01  0.24060134020E+02  0.00000000000E+00 0. -1.
        -12    1    6    6    0    0  0.20746710900E+02 -0.15175425760E+02  0.11034202555E+03  0.11329643491E+03  0.00000000000E+00 0.  1.
</event>
<event>
12    1  0.8358445E-002  0.1833454E+03  0.7818608E-02  0.1166565E+00
         21   -1    0    0  501  502  0.00000000000E+00  0.00000000000E+00  0.75704463722E+03  0.75704463722E+03  0.00000000000E+00 0. -1.
         21   -1    0    0  502  503 -0.00000000000E+00 -0.00000000000E+00 -0.59676594719E+02  0.59676594719E+02  0.00000000000E+00 0. -1.
         -6    2    1    2    0  503  0.35099407581E+02  0.52683461180E+02  0.13501042386E+03  0.22769133676E+03  0.17206979628E+03 0.  0.
        -24    2    3    3    0    0 -0.45728678689E+02  0.12403107347E+02  0.72314208127E+02  0.11765228959E+03  0.79798292101E+02 0.  0.
          6    2    1    2  501    0 -0.35099407581E+02 -0.52683461180E+02  0.56235761864E+03  0.58902989518E+03  0.16340933473E+03 0.  0.
         24    2    5    5    0    0 -0.30493327989E+02 -0.79083023826E+02  0.24261996525E+03  0.26813675117E+03  0.76478115037E+02 0.  0.
          5    1    5    5  501    0 -0.46060795918E+01  0.26399562645E+02  0.31973765339E+03  0.32089314401E+03  0.47000000000E+01 0. -1.
        -11    1    6    6    0    0  0.20357764128E+02 -0.16136023371E+02  0.25390446471E+02  0.36324710357E+02  0.00000000000E+00 0.  1.
         12    1    6    6    0    0 -0.50851092117E+02 -0.62947000454E+02  0.21722951878E+03  0.23181204081E+03  0.00000000000E+00 0. -1.
         -5    1    3    3    0  503  0.80828086270E+02  0.40280353833E+02  0.62696215732E+02  0.11003904717E+03  0.47000000000E+01 0.  1.
         13    1    4    4    0    0 -0.25481110902E+02  0.55089932175E+01 -0.13398336259E+02  0.29311285090E+02  0.00000000000E+00 0. -1.
        -14    1    4    4    0    0 -0.20247567787E+02  0.68941141294E+01  0.85712544386E+02  0.88341004500E+02  0.00000000000E+00 0.  1.
</event>
<event>
12    1  0.8358445E-002  0.1804969E+03  0.7818608E-02  0.1167802E+00
         21   -1    0    0  501  502  0.00000000000E+00  0.00000000000E+00  0.96708988227E+02  0.96708988227E+02  0.00000000000E+00 0.  1.
         21   -1    0    0  502  503 -0.00000000000E+00 -0.00000000000E+00 -0.56210251088E+03  0.56210251088E+03  0.00000000000E+00 0.  1.
         -6    2    1    2    0  503  0.41150270555E+02  0.35251938651E+02 -0.44214375710E+03  0.47682334202E+03  0.17009807055E+03 0.  0.
        -24    2    3    3    0    0  0.37513141997E+02  0.46712802590E+02 -0.12786604343E+03  0.16228057637E+03  0.79974612589E+02 0.  0.
          6    2    1    2  501    0 -0.41150270555E+02 -0.35251938651E+02 -0.23249765553E+02  0.18198815709E+03  0.17217169854E+03 0.  0.
         24    2    5    5    0    0  0.22109405958E+02  0.17251308615E+01  0.33474647983E+02  0.89204325344E+02  0.79655870431E+02 0.  0.
          5    1    5    5  501    0 -0.63259676514E+02 -0.36977069512E+02 -0.56724413537E+02  0.92783831746E+02  0.47000000000E+01 0. -1.
        -13    1    6    6    0    0  0.18737101638E+02  0.20763869321E+02 -0.18645358588E+02  0.33613489016E+02  0.00000000000E+00 0.  1.
         14    1    6    6    0    0  0.33723043207E+01 -0.19038738460E+02  0.52120006572E+02  0.55590836328E+02  0.00000000000E+00 0. -1.
         -5    1    3    3    0  503  0.36371285585E+01 -0.11460863939E+02 -0.31427771368E+03  0.31454276565E+03  0.47000000000E+01 0.  1.
         13    1    4    4    0    0 -0.57781969426E+01  0.21220155720E+02  0.29117788753E+01  0.22184702497E+02  0.00000000000E+00 0. -1.
        -14    1    4    4    0    0  0.43291338939E+02  0.25492646870E+02 -0.13077782230E+03  0.14009587388E+03  0.00000000000E+00 0.  1.
</event>
<event>
12    1  0.8358445E-002  0.1747748E+03  0.7818608E-02  0.1173439E+00
         21   -1    0    0  501  502  0.00000000000E+00  0.00000000000E+00  0.14145259113E+03  0.14145259113E+03  0.00000000000E+00 0.  1.
         21   -1    0    0  502  503 -0.00000000000E+00 -0.00000000000E+00 -0.71942114474E+03  0.71942114474E+03  0.00000000000E+00 0.  1.
         -6    2    1    2    0  503  0.29690988215E+02 -0.80356497919E+01 -0.65037531888E+03  0.67344953099E+03  0.17204676377E+03 0.  0.
        -24    2    3    3    0    0 -0.18135665755E+02  0.32716226520E+02 -0.53399354833E+03  0.54110562002E+03  0.79037513301E+02 0.  0.
          6    2    1    2  501    0 -0.29690988215E+02  0.80356497919E+01  0.72406765283E+02  0.18742420488E+03  0.17011456865E+03 0.  0.
         24    2    5    5    0    0 -0.29261073478E+02 -0.58179862322E+02  0.24085137279E+02  0.10531605301E+03  0.79185038881E+02 0.  0.
          5    1    5    5  501    0 -0.42991473785E+00  0.66215512113E+02  0.48321628005E+02  0.82108151874E+02  0.47000000000E+01 0. -1.
        -11    1    6    6    0    0 -0.50884815472E+02 -0.29263213387E+02  0.34048016498E+02  0.67859174257E+02  0.00000000000E+00 0.  1.
         12    1    6    6    0    0  0.21623741994E+02 -0.28916648934E+02 -0.99628792199E+01  0.37456878751E+02  0.00000000000E+00 0. -1.
         -5    1    3    3    0  503  0.47826653970E+02 -0.40751876312E+02 -0.11638177055E+03  0.13234391096E+03  0.47000000000E+01 0.  1.
         13    1    4    4    0    0  0.21451534505E+02 -0.42477166437E+01 -0.57065779408E+02  0.61112311434E+02  0.00000000000E+00 0. -1.
        -14    1    4    4    0    0 -0.39587200260E+02  0.36963943164E+02 -0.47692776893E+03  0.47999330859E+03  0.00000000000E+00 0.  1.
</event>
<event>
12    1  0.8358445E-002  0.2201963E+03  0.7818608E-02  0.1133838E+00
         21   -1    0    0  501  502  0.00000000000E+00  0.00000000000E+00  0.60656725734E+03  0.60656725734E+03  0.00000000000E+00 0.  1.
         21   -1    0    0  502  503 -0.00000000000E+00 -0.00000000000E+00 -0.81596854981E+02  0.81596854981E+02  0.00000000000E+00 0.  1.
         -6    2    1    2    0  503 -0.10949133839E+03 -0.80885783892E+02  0.21025315266E+03  0.30406339267E+03  0.17238705097E+03 0.  0.
        -24    2    3    3    0    0 -0.60439635282E+02  0.10819693638E+02  0.51261226775E+02  0.11402001162E+03  0.81257826673E+02 0.  0.
          6    2    1    2  501    0  0.10949133839E+03  0.80885783892E+02  0.31471724970E+03  0.38410071965E+03  0.17307672390E+03 0.  0.
         24    2    5    5    0    0  0.66788076234E+02  0.11156752705E+03  0.16173045658E+03  0.22226133374E+03  0.79595223928E+02 0.  0.
          5    1    5    5  501    0  0.42703262153E+02 -0.30681743154E+02  0.15298679312E+03  0.16183938590E+03  0.47000000000E+01 0. -1.
        -13    1    6    6    0    0  0.77934280488E+02  0.80543118856E+02  0.91516177112E+02  0.14469331962E+03  0.00000000000E+00 0.  1.
         14    1    6    6    0    0 -0.11146204254E+02  0.31024408190E+02  0.70214279472E+02  0.77568014120E+02  0.00000000000E+00 0. -1.
         -5    1    3    3    0  503 -0.49051703105E+02 -0.91705477530E+02  0.15899192588E+03  0.19004338105E+03  0.47000000000E+01 0.  1.
         11    1    4    4    0    0 -0.43446719974E+02  0.45671876235E+02  0.33227336342E+02  0.71257235673E+02  0.00000000000E+00 0. -1.
        -12    1    4    4    0    0 -0.16992915308E+02 -0.34852182597E+02  0.18033890432E+02  0.42762775946E+02  0.00000000000E+00 0.  1.
</event>
<event>
12    1  0.8358445E-002  0.2469028E+03  0.7818608E-02  0.1115419E+00
         21   -1    0    0  501  502  0.00000000000E+00  0.00000000000E+00  0.39662324526E+03  0.39662324526E+03  0.00000000000E+00 0. -1.
         21   -1    0    0  502  503 -0.00000000000E+00 -0.00000000000E+00 -0.15718304356E+03  0.15718304356E+03  0.00000000000E+00 0. -1.
         -6    2    1    2    0  503  0.17403225061E+03  0.31816810407E+02  0.16383233137E+03  0.29558635558E+03  0.17096995971E+03 0.  0.
        -24    2    3    3    0    0  0.18429522622E+03  0.47885260405E+02  0.10055525012E+03  0.22933227824E+03  0.78893643235E+02 0.  0.
          6    2    1    2  501    0 -0.17403225061E+03 -0.31816810407E+02  0.75607870329E+02  0.25821993325E+03  0.17222499875E+03 0.  0.
         24    2    5    5    0    0 -0.14972273710E+03  0.60810304436E+01  0.48122677535E+01  0.17418835506E+03  0.88682287869E+02 0.  0.
          5    1    5    5  501    0 -0.24309513508E+02 -0.37897840851E+02  0.70795602576E+02  0.84031578185E+02  0.47000000000E+01 0. -1.
        -13    1    6    6    0    0 -0.62479881639E+02 -0.41183697243E+02  0.44523901586E+01  0.74964366911E+02  0.00000000000E+00 0.  1.
         14    1    6    6    0    0 -0.87242855466E+02  0.47264727687E+02  0.35987759488E+00  0.99223988153E+02  0.00000000000E+00 0. -1.
         -5    1    3    3    0  503 -0.10262975604E+02 -0.16068449998E+02  0.63277081248E+02  0.66254077345E+02  0.47000000000E+01 0. -1.
         11    1    4    4    0    0  0.14928379980E+03  0.29399981491E+02  0.40583920744E+02  0.15747084307E+03  0.00000000000E+00 0. -1.
        -12    1    4    4    0    0  0.35011426415E+02  0.18485278914E+02  0.59971329379E+02  0.71861435163E+02  0.00000000000E+00 0.  1.
</event>
<event>
12    1  0.8358445E-002  0.2188770E+03  0.7818608E-02  0.1134879E+00
         21   -1    0    0  503  502  0.00000000000E+00  0.00000000000E+00  0.65337127699E+03  0.65337127699E+03  0.00000000000E+00 0.  1.
         21   -1    0    0  501  503 -0.00000000000E+00 -0.00000000000E+00 -0.17643639112E+03  0.17643639112E+03  0.00000000000E+00 0.  1.
          6    2    1    2  501    0  0.11170787586E+03  0.73279333196E+02 -0.79328745049E+02  0.23203148355E+03  0.17232831852E+03 0.  0.
         24    2    3    3    0    0  0.10110902694E+03  0.34000571755E+02 -0.11615655428E+03  0.17695395427E+03  0.80257601646E+02 0.  0.
         -6    2    1    2    0  502 -0.11170787586E+03 -0.73279333196E+02  0.55626363091E+03  0.59777618456E+03  0.17337424708E+03 0.  0.
        -24    2    5    5    0    0 -0.30440186415E+02 -0.87515150047E+02  0.21800358732E+03  0.24956785192E+03  0.78568709997E+02 0.  0.
          5    1    3    3  501    0  0.10598848927E+02  0.39278761441E+02  0.36827809231E+02  0.55077529281E+02  0.47000000000E+01 0. -1.
        -11    1    4    4    0    0 -0.42630081627E+01  0.21477678490E+02 -0.42414947213E+02  0.47733548569E+02  0.00000000000E+00 0.  1.
         12    1    4    4    0    0  0.10537203510E+03  0.12522893265E+02 -0.73741607067E+02  0.12922040570E+03  0.00000000000E+00 0. -1.
         -5    1    5    5    0  502 -0.81267689450E+02  0.14235816851E+02  0.33826004360E+03  0.34820833265E+03  0.47000000000E+01 0.  1.
         11    1    6    6    0    0 -0.25697682992E+02  0.44007707540E+01  0.26931128838E+02  0.37483641697E+02  0.00000000000E+00 0. -1.
        -12    1    6    6    0    0 -0.47425034233E+01 -0.91915920801E+02  0.19107245848E+03  0.21208421022E+03  0.00000000000E+00 0.  1.
</event>
<event>
12    1  0.8358445E-002  0.2599949E+03  0.7818608E-02  0.1107221E+00
         21   -1    0    0  501  502  0.00000000000E+00  0.00000000000E+00  0.79598381191E+03  0.79598381191E+03  0.00000000000E+00 0.  1.
         21   -1    0    0  502  503 -0.00000000000E+00 -0.00000000000E+00 -0.84945257922E+02  0.84945257922E+02  0.00000000000E+00 0.  1.
         -6    2    1    2    0  503 -0.41684962683E+02 -0.19132103695E+03  0.33539148551E+03  0.42436398436E+03  0.17104375866E+03 0.  0.
        -24    2    3    3    0    0 -0.91034853289E+02 -0.10192772846E+03  0.20773329541E+03  0.26082414577E+03  0.78736945920E+02 0.  0.
          6    2    1    2  501    0  0.41684962683E+02  0.19132103695E+03  0.37564706847E+03  0.45656508547E+03  0.17029263612E+03 0.  0.
         24    2    5    5    0    0  0.55263079051E+02  0.16302633734E+03  0.37958576298E+03  0.42458761551E+03  0.80979609901E+02 0.  0.
          5    1    5    5  501    0 -0.13578116368E+02  0.28294699613E+02 -0.39386945006E+01  0.31977469954E+02  0.47000000000E+01 0. -1.
        -11    1    6    6    0    0  0.35404218290E+02  0.13494327453E+02  0.99405483262E+02  0.10638141590E+03  0.00000000000E+00 0.  1.
         12    1    6    6    0    0  0.19858860761E+02  0.14953200989E+03  0.28018027971E+03  0.31820619961E+03  0.00000000000E+00 0. -1.
         -5    1    3    3    0  503  0.49349890606E+02 -0.89393308496E+02  0.12765819010E+03  0.16353983859E+03  0.47000000000E+01 0.  1.
         11    1    4    4    0    0 -0.89604459340E+02 -0.63268263335E+02  0.10836479202E+03  0.15419066259E+03  0.00000000000E+00 0. -1.
        -12    1    4    4    0    0 -0.14303939491E+01 -0.38659465123E+02  0.99368503381E+02  0.10663348318E+03  0.00000000000E+00 0.  1.
</event>
<event>
12    1  0.8358445E-002  0.2343490E+03  0.7818608E-02  0.1123670E+00
         21   -1    0    0  501  502  0.00000000000E+00  0.00000000000E+00  0.53030696926E+03  0.53030696926E+03  0.00000000000E+00 0.  1.
         21   -1    0    0  502  503 -0.00000000000E+00 -0.00000000000E+00 -0.10384074246E+03  0.10384074246E+03  0.00000000000E+00 0.  1.
         -6    2    1    2    0  503  0.84617382393E+02  0.13584364095E+03  0.19292727190E+03  0.30330046624E+03  0.17075316803E+03 0.  0.
        -24    2    3    3    0    0  0.62058428296E+02  0.14913389685E+02  0.44425887248E+02  0.11040727475E+03  0.78373778432E+02 0.  0.
          6    2    1    2  501    0 -0.84617382393E+02 -0.13584364095E+03  0.23353895490E+03  0.33084724548E+03  0.17118954464E+03 0.  0.
         24    2    5    5    0    0 -0.64386939837E+02 -0.14075129448E+03  0.11256234470E+03  0.20800268481E+03  0.81475336906E+02 0.  0.
          5    1    5    5  501    0 -0.20230442556E+02  0.49076535367E+01  0.12097661020E+03  0.12284456067E+03  0.47000000000E+01 0. -1.
        -13    1    6    6    0    0 -0.49633652618E+02 -0.11389253252E+03  0.12377500195E+03  0.17537177522E+03  0.00000000000E+00 0.  1.
         14    1    6    6    0    0 -0.14753287219E+02 -0.26858761964E+02 -0.11212657252E+02  0.32630909590E+02  0.00000000000E+00 0. -1.
         -5    1    3    3    0  503  0.22558954097E+02  0.12093025126E+03  0.14850138465E+03  0.19289319149E+03  0.47000000000E+01 0.  1.
         13    1    4    4    0    0  0.57741813354E+02  0.22845288879E+02 -0.29611558392E+01  0.62167456738E+02  0.00000000000E+00 0. -1.
        -14    1    4    4    0    0  0.43166149422E+01 -0.79318991940E+01  0.47387043087E+02  0.48239818013E+02  0.00000000000E+00 0.  1.
</event>
<event>
12    1  0.8358445E-002  0.1768278E+03  0.7818608E-02  0.1173047E+00
         21   -1    0    0  501  502  0.00000000000E+00  0.00000000000E+00  0.73871704126E+02  0.73871704126E+02  0.00000000000E+00 0.  1.
         21   -1    0    0  502  503 -0.00000000000E+00 -0.00000000000E+00 -0.83493745034E+03  0.83493745034E+03  0.00000000000E+00 0.  1.
         -6    2    1    2    0  503  0.27482978089E+02  0.29574858946E+02 -0.70269660088E+03  0.72259685294E+03  0.16350447279E+03 0.  0.
        -24    2    3    3    0    0  0.57000781419E+02  0.64503558702E+02 -0.40098160578E+03  0.41739963302E+03  0.77629938171E+02 0.  0.
          6    2    1    2  501    0 -0.27482978089E+02 -0.29574858946E+02 -0.58369145333E+02  0.18621230153E+03  0.17215713098E+03 0.  0.
         24    2    5    5    0    0 -0.66499676762E+02  0.24661653717E+02 -0.48515781436E+02  0.11851384614E+03  0.81617072393E+02 0.  0.
          5    1    5    5  501    0  0.39016698673E+02 -0.54236512663E+02 -0.98533638962E+01  0.67698455383E+02  0.47000000000E+01 0. -1.
        -13    1    6    6    0    0 -0.43910065771E+02  0.39151736857E+02  0.45933913182E+01  0.59008911351E+02  0.00000000000E+00 0.  1.
         14    1    6    6    0    0 -0.22589610991E+02 -0.14490083140E+02 -0.53109172755E+02  0.59504934794E+02  0.00000000000E+00 0. -1.
         -5    1    3    3    0  503 -0.29517803330E+02 -0.34928699756E+02 -0.30171499510E+03  0.30519721992E+03  0.47000000000E+01 0.  1.
         11    1    4    4    0    0  0.35545910816E+01 -0.97096625288E+01 -0.14858834265E+03  0.14894766946E+03  0.00000000000E+00 0. -1.
        -12    1    4    4    0    0  0.53446190338E+02  0.74213221231E+02 -0.25239326313E+03  0.26845196356E+03  0.00000000000E+00 0.  1.
</event>
<event>
12    1  0.8358445E-002  0.1850323E+03  0.7818608E-02  0.1163025E+00
         21   -1    0    0  501  502  0.00000000000E+00  0.00000000000E+00  0.18082294834E+03  0.18082294834E+03  0.00000000000E+00 0.  1.
         21   -1    0    0  502  503 -0.00000000000E+00 -0.00000000000E+00 -0.22210812303E+03  0.22210812303E+03  0.00000000000E+00 0.  1.
         -6    2    1    2    0  503  0.18150111620E+02 -0.64708329336E+02 -0.98056522412E+02  0.20940874517E+03  0.17239590055E+03 0.  0.
        -24    2    3    3    0    0  0.14949009571E+02  0.49410672196E+01 -0.11922833773E+03  0.13639079355E+03  0.64336342874E+02 0.  0.
          6    2    1    2  501    0 -0.18150111620E+02  0.64708329336E+02  0.56771347716E+02  0.19352232621E+03  0.17236969102E+03 0.  0.
         24    2    5    5    0    0 -0.62871156552E+02  0.30712808778E+02  0.84046806474E+02  0.13089878488E+03  0.71934465003E+02 0.  0.
          5    1    5    5  501    0  0.44721044932E+02  0.33995520558E+02 -0.27275458758E+02  0.62623541326E+02  0.47000000000E+01 0. -1.
        -13    1    6    6    0    0  0.13719342915E+02  0.45062674078E+01  0.30770118348E+02  0.33990101487E+02  0.00000000000E+00 0.  1.
         14    1    6    6    0    0 -0.76590499467E+02  0.26206541370E+02  0.53276688126E+02  0.96908683392E+02  0.00000000000E+00 0. -1.
         -5    1    3    3    0  503  0.32011020489E+01 -0.69649396555E+02  0.21171815317E+02  0.73017951619E+02  0.47000000000E+01 0.  1.
         13    1    4    4    0    0  0.31151200094E+02  0.11390309115E+02 -0.27693319677E+02  0.43209447621E+02  0.00000000000E+00 0. -1.
        -14    1    4    4    0    0 -0.16202190522E+02 -0.64492418954E+01 -0.91535018052E+02  0.93181345926E+02  0.00000000000E+00 0.  1.
</event>
<event>
12    1  0.8358445E-002  0.1965118E+03  0.7818608E-02  0.1152787E+00
         21   -1    0    0  501  502  0.00000000000E+00  0.00000000000E+00  0.42050655638E+03  0.42050655638E+03  0.00000000000E+00 0. -1.
         21   -1    0    0  502  503 -0.00000000000E+00 -0.00000000000E+00 -0.92788597952E+02  0.92788597952E+02  0.00000000000E+00 0. -1.
         -6    2    1    2    0  503  0.90855886224E+02 -0.23027157710E+02  0.13566204557E+03  0.23851824407E+03  0.17234186982E+03 0.  0.
        -24    2    3    3    0    0  0.59237344530E+02  0.35954208084E+02  0.13494825597E+03  0.17142775901E+03  0.79841572519E+02 0.  0.
          6    2    1    2  501    0 -0.90855886224E+02  0.23027157710E+02  0.19205591287E+03  0.27477691027E+03  0.17271894712E+03 0.  0.
         24    2    5    5    0    0 -0.12630423200E+03  0.34460912085E+02  0.12470764766E+03  0.19767182104E+03  0.79886406644E+02 0.  0.
          5    1    5    5  501    0  0.35448345781E+02 -0.11433754375E+02  0.67348265207E+02  0.77105089223E+02  0.47000000000E+01 0. -1.
        -11    1    6    6    0    0 -0.10047733172E+03  0.41223091769E+02  0.52384661410E+02  0.12057856458E+03  0.00000000000E+00 0.  1.
         12    1    6    6    0    0 -0.25826900280E+02 -0.67621796842E+01  0.72322986248E+02  0.77093256463E+02  0.00000000000E+00 0. -1.
         -5    1    3    3    0  503  0.31618541694E+02 -0.58981365794E+02  0.71378959093E+00  0.67090485058E+02  0.47000000000E+01 0.  1.
         13    1    4    4    0    0  0.45897379493E+01  0.46712654382E+02  0.41563584310E+02  0.62695050159E+02  0.00000000000E+00 0. -1.
        -14    1    4    4    0    0  0.54647606581E+02 -0.10758446298E+02  0.93384671665E+02  0.10873270885E+03  0.00000000000E+00 0.  1.
</event>
<event>
12    1  0.8358445E-002  0.1741008E+03  0.7818608E-02  0.1174122E+00
         21   -1    0    0  503  502  0.00000000000E+00  0.00000000000E+00  0.11904036348E+04  0.11904036348E+04  0.00000000000E+00 0.  1.
         21   -1    0    0  501  503 -0.00000000000E+00 -0.00000000000E+00 -0.28802025999E+02  0.28802025999E+02  0.00000000000E+00 0.  1.
          6    2    1    2  501    0 -0.12012802676E+02 -0.17381940619E+02  0.36198514712E+03  0.40085513831E+03  0.17089516050E+03 0.  0.
         24    2    3    3    0    0 -0.63749746891E+02 -0.41826899883E+02  0.27410626679E+03  0.29588345147E+03  0.81235777674E+02 0.  0.
         -6    2    1    2    0  502  0.12012802676E+02  0.17381940619E+02  0.79961646169E+03  0.81835052250E+03  0.17281392475E+03 0.  0.
        -24    2    5    5    0    0  0.47975512192E+02  0.10157419424E+01  0.25028416258E+03  0.26757903288E+03  0.81570186328E+02 0.  0.
          5    1    3    3  501    0  0.51736944216E+02  0.24444959263E+02  0.87878880332E+02  0.10497168684E+03  0.47000000000E+01 0. -1.
        -13    1    4    4    0    0  0.16872067697E+01  0.19612351030E+02  0.30850497868E+02  0.36595685514E+02  0.00000000000E+00 0.  1.
         14    1    4    4    0    0 -0.65436953661E+02 -0.61439250913E+02  0.24325576892E+03  0.25928776595E+03  0.00000000000E+00 0. -1.
         -5    1    5    5    0  502 -0.35962709516E+02  0.16366198677E+02  0.54933229910E+03  0.55077148962E+03  0.47000000000E+01 0.  1.
         11    1    6    6    0    0  0.31474825268E+02  0.33496477714E+02  0.20159559093E+03  0.20676910051E+03  0.00000000000E+00 0. -1.
        -12    1    6    6    0    0  0.16500686924E+02 -0.32480735772E+02  0.48688571651E+02  0.60809932368E+02  0.00000000000E+00 0.  1.
</event>
<event>
12    1  0.8358445E-002  0.1848240E+03  0.7818608E-02  0.1163314E+00
         21   -1    0    0  501  502  0.00000000000E+00  0.00000000000E+00  0.44073968844E+03  0.44073968844E+03  0.00000000000E+00 0. -1.
         21   -1    0    0  502  503 -0.00000000000E+00 -0.00000000000E+00 -0.12930004369E+03  0.12930004369E+03  0.00000000000E+00 0. -1.
         -6    2    1    2    0  503  0.55445168901E+02 -0.31062187053E+02 -0.24874720732E+02  0.18649034637E+03  0.17355365550E+03 0.  0.
        -24    2    3    3    0    0  0.92020607429E+02 -0.39770613231E+02 -0.53421667175E+02  0.13904967245E+03  0.80196278076E+02 0.  0.
          6    2    1    2  501    0 -0.55445168901E+02  0.31062187053E+02  0.33631436548E+03  0.38354938577E+03  0.17310041212E+03 0.  0.
         24    2    5    5    0    0  0.16376046968E+02 -0.26098808499E+02  0.11441982621E+03  0.14337248634E+03  0.80712145865E+02 0.  0.
          5    1    5    5  501    0 -0.71821215869E+02  0.57160995552E+02  0.22189453927E+03  0.24017689943E+03  0.47000000000E+01 0. -1.
        -13    1    6    6    0    0  0.21273094110E+02 -0.33573968691E+02  0.12403391474E+03  0.13024656584E+03  0.00000000000E+00 0.  1.
         14    1    6    6    0    0 -0.48970471415E+01  0.74751601918E+01 -0.96140885347E+01  0.13125920499E+02  0.00000000000E+00 0. -1.
         -5    1    3    3    0  503 -0.36575438528E+02  0.87084261782E+01  0.28546946443E+02  0.47440673912E+02  0.47000000000E+01 0.  1.
         13    1    4    4    0    0  0.10661339799E+02 -0.44657580255E+02 -0.11208216675E+02  0.47260848084E+02  0.00000000000E+00 0. -1.
        -14    1    4    4    0    0  0.81359267630E+02  0.48869670242E+01 -0.42213450500E+02  0.91788824370E+02  0.00000000000E+00 0.  1.
</event>
<event>
12    1  0.8358445E-002  0.1782679E+03  0.7818608E-02  0.1169648E+00
         21   -1    0    0  503  502  0.00000000000E+00  0.00000000000E+00  0.23133697392E+03  0.23133697392E+03  0.00000000000E+00 0.  1.
         21   -1    0    0  501  503 -0.00000000000E+00 -0.00000000000E+00 -0.20003349220E+03  0.20003349220E+03  0.00000000000E+00 0.  1.
          6    2    1    2  501    0  0.44077821629E+02 -0.20102937568E+02 -0.10552077482E+03  0.20715714832E+03  0.17155893367E+03 0.  0.
         24    2    3    3    0    0  0.24505471508E+01  0.36550634171E+02 -0.10450465291E+03  0.13669027897E+03  0.80131490975E+02 0.  0.
         -6    2    1    2    0  502 -0.44077821629E+02  0.20102937568E+02  0.13682425655E+03  0.22421331781E+03  0.17089105373E+03 0.  0.
        -24    2    5    5    0    0 -0.49975143147E+02 -0.28702168380E+02  0.14273387254E+03  0.17447670826E+03  0.82145200425E+02 0.  0.
          5    1    3    3  501    0  0.41627274478E+02 -0.56653571740E+02 -0.10161219130E+01  0.70466869344E+02  0.47000000000E+01 0. -1.
        -11    1    4    4    0    0 -0.10683159523E+02  0.10500489735E+02 -0.10640549010E+03  0.10745472770E+03  0.00000000000E+00 0.  1.
         12    1    4    4    0    0  0.13133706674E+02  0.26050144436E+02  0.19008371884E+01  0.29235551272E+02  0.00000000000E+00 0. -1.
         -5    1    5    5    0  502  0.58973215182E+01  0.48805105948E+02 -0.59096159959E+01  0.49736609544E+02  0.47000000000E+01 0.  1.
         13    1    6    6    0    0 -0.67348908199E+02 -0.49089818355E+01  0.11823659178E+03  0.13616117352E+03  0.00000000000E+00 0. -1.
        -14    1    6    6    0    0  0.17373765051E+02 -0.23793186545E+02  0.24497280765E+02  0.38315534746E+02  0.00000000000E+00 0.  1.
</event>
<event>
12    1  0.8358445E-002  0.1987626E+03  0.7818608E-02  0.1150855E+00
         21   -1    0    0  501  502  0.00000000000E+00  0.00000000000E+00  0.43147749010E+03  0.43147749010E+03  0.00000000000E+00 0. -1.
         21   -1    0    0  502  503 -0.00000000000E+00 -0.00000000000E+00 -0.19396771938E+03  0.19396771938E+03  0.00000000000E+00 0. -1.
         -6    2    1    2    0  503 -0.22840563159E+02  0.96603597474E+02 -0.10858892345E+03  0.22649092318E+03  0.17219941236E+03 0.  0.
        -24    2    3    3    0    0  0.21847143384E+02  0.96240601638E+00 -0.87686040261E+02  0.11877254431E+03  0.77070433543E+02 0.  0.
          6    2    1    2  501    0  0.22840563159E+02 -0.96603597474E+02  0.34609869417E+03  0.39895428631E+03  0.17183209854E+03 0.  0.
         24    2    5    5    0    0 -0.34291693564E+02 -0.17819025634E+01  0.82376112987E+02  0.11290020330E+03  0.69148655007E+02 0.  0.
          5    1    5    5  501    0  0.57132256723E+02 -0.94821694910E+02  0.26372258118E+03  0.28605408301E+03  0.47000000000E+01 0. -1.
        -11    1    6    6    0    0  0.97035129029E+01  0.20341732145E+02  0.84410137551E+01  0.24066469258E+02  0.00000000000E+00 0.  1.
         12    1    6    6    0    0 -0.43995206467E+02 -0.22123634709E+02  0.73935099232E+02  0.88833734039E+02  0.00000000000E+00 0. -1.
         -5    1    3    3    0  503 -0.44687706544E+02  0.95641191457E+02 -0.20902883187E+02  0.10771837886E+03  0.47000000000E+01 0.  1.
         11    1    4    4    0    0 -0.11606544992E+02  0.28419320561E+02 -0.59996886154E+02  0.67394332224E+02  0.00000000000E+00 0. -1.
        -12    1    4    4    0    0  0.33453688376E+02 -0.27456914545E+02 -0.27689154107E+02  0.51378212089E+02  0.00000000000E+00 0.  1.
</event>
<event>
12    1  0.8358445E-002  0.2975741E+03  0.7818608E-02  0.1086510E+00
         21   -1    0    0  503  502  0.00000000000E+00  0.00000000000E+00  0.12356513877E+03  0.12356513877E+03  0.00000000000E+00 0. -1.
         21   -1    0    0  501  503 -0.00000000000E+00 -0.00000000000E+00 -0.10269136501E+04  0.10269136501E+04  0.00000000000E+00 0.  1.
          6    2    1    2  501    0 -0.16810806803E+03 -0.17504723138E+03 -0.76857895711E+03  0.82417472426E+03  0.17218741837E+03 0.  0.
         24    2    3    3    0    0 -0.53412901444E+02 -0.86641135761E+02 -0.20749478355E+03  0.24468515680E+03  0.80356184013E+02 0.  0.
         -6    2    1    2    0  502  0.16810806803E+03  0.17504723138E+03 -0.13476955421E+03  0.32630406460E+03  0.17149243155E+03 0.  0.
        -24    2    5    5    0    0  0.13272248300E+02  0.82770350919E+02 -0.40437341295E+02  0.12281005944E+03  0.80125205546E+02 0.  0.
          5    1    3    3  501    0 -0.11469516659E+03 -0.88406095624E+02 -0.56108417356E+03  0.57948956746E+03  0.47000000000E+01 0. -1.
        -13    1    4    4    0    0 -0.30317047487E+02 -0.48828102582E+02 -0.18743202883E+03  0.19604609765E+03  0.00000000000E+00 0.  1.
         14    1    4    4    0    0 -0.23095853957E+02 -0.37813033179E+02 -0.20062754720E+02  0.48639059152E+02  0.00000000000E+00 0. -1.
         -5    1    5    5    0  502  0.15483581973E+03  0.92276880466E+02 -0.94332212913E+02  0.20349400515E+03  0.47000000000E+01 0.  1.
         11    1    6    6    0    0 -0.23815834950E+02  0.68761072917E+02 -0.40261115944E+02  0.83163914050E+02  0.00000000000E+00 0. -1.
        -12    1    6    6    0    0  0.37088083250E+02  0.14009278001E+02 -0.17622535096E+00  0.39646145394E+02  0.00000000000E+00 0.  1.
</event>
<event>
12    1  0.8358445E-002  0.2050498E+03  0.7818608E-02  0.1148111E+00
         21   -1    0    0  503  502  0.00000000000E+00  0.00000000000E+00  0.32628102144E+03  0.32628102144E+03  0.00000000000E+00 0. -1.
         21   -1    0    0  501  503 -0.00000000000E+00 -0.00000000000E+00 -0.13337204811E+03  0.13337204811E+03  0.00000000000E+00 0. -1.
          6    2    1    2  501    0  0.22044278286E+02  0.82635888667E+02  0.24771668088E+02  0.19448219549E+03  0.17290184650E+03 0.  0.
         24    2    3    3    0    0 -0.30798691521E+02  0.37592185551E+02  0.65214915899E+02  0.11398958128E+03  0.79868063526E+02 0.  0.
         -6    2    1    2    0  502 -0.22044278286E+02 -0.82635888667E+02  0.16813730524E+03  0.26517087406E+03  0.18636200990E+03 0.  0.
        -24    2    5    5    0    0 -0.13223911237E+02 -0.12510432626E+03  0.16634246440E+03  0.22150534394E+03  0.74624645079E+02 0.  0.
          5    1    3    3  501    0  0.52842969807E+02  0.45043703117E+02 -0.40443247811E+02  0.80492614207E+02  0.47000000000E+01 0. -1.
        -13    1    4    4    0    0 -0.47438304609E+02 -0.44689840091E+01  0.39942879471E+02  0.62175543284E+02  0.00000000000E+00 0.  1.
         14    1    4    4    0    0  0.16639613088E+02  0.42061169560E+02  0.25272036428E+02  0.51814037998E+02  0.00000000000E+00 0. -1.
         -5    1    5    5    0  502 -0.88203670495E+01  0.42468437596E+02  0.17948408392E+01  0.43665530117E+02  0.47000000000E+01 0.  1.
         11    1    6    6    0    0 -0.12852667330E+02 -0.85739602985E+02  0.53220960848E+02  0.10172974615E+03  0.00000000000E+00 0. -1.
        -12    1    6    6    0    0 -0.37124390650E+00 -0.39364723279E+02  0.11312150355E+03  0.11977559780E+03  0.00000000000E+00 0.  1.
</event>
<event>
12    1  0.8358445E-002  0.2160676E+03  0.7818608E-02  0.1136909E+00
         21   -1    0    0  501  502  0.00000000000E+00  0.00000000000E+00  0.11302003297E+03  0.11302003297E+03  0.00000000000E+00 0. -1.
         21   -1    0    0  502  503 -0.00000000000E+00 -0.00000000000E+00 -0.98683402716E+03  0.98683402716E+03  0.00000000000E+00 0.  1.
         -6    2    1    2    0  503  0.12859913914E+03  0.18138049310E+02 -0.85658056292E+03  0.88341126518E+03  0.17268026883E+03 0.  0.
        -24    2    3    3    0    0  0.16859481038E+02  0.36806731816E+02 -0.23300390259E+03  0.24960986709E+03  0.79845410142E+02 0.  0.
          6    2    1    2  501    0 -0.12859913914E+03 -0.18138049310E+02 -0.17233431274E+02  0.21644279496E+03  0.17228977020E+03 0.  0.
         24    2    5    5    0    0 -0.15890013419E+03  0.51587931099E+01 -0.12507353896E+02  0.17764435459E+03  0.78263765729E+02 0.  0.
          5    1    5    5  501    0  0.30300995043E+02 -0.23296842420E+02 -0.47260773780E+01  0.38798440365E+02  0.47000000000E+01 0. -1.
        -13    1    6    6    0    0 -0.24917941454E+02  0.12479995111E+02 -0.31574696749E+02  0.42114315369E+02  0.00000000000E+00 0.  1.
         14    1    6    6    0    0 -0.13398219273E+03 -0.73212020015E+01  0.19067342853E+02  0.13553003922E+03  0.00000000000E+00 0. -1.
         -5    1    3    3    0  503  0.11173965810E+03 -0.18668682506E+02 -0.62357666034E+03  0.63380139809E+03  0.47000000000E+01 0.  1.
         13    1    4    4    0    0 -0.70333434480E+01  0.15624403336E+00 -0.18313302681E+03  0.18326810372E+03  0.00000000000E+00 0. -1.
        -14    1    4    4    0    0  0.23892824487E+02  0.36650487783E+02 -0.49870875779E+02  0.66341763374E+02  0.00000000000E+00 0.  1.
</event>
<event>
12    1  0.8358445E-002  0.1825610E+03  0.7818608E-02  0.1165629E+00
         21   -1    0    0  501  502  0.00000000000E+00  0.00000000000E+00  0.82928577349E+03  0.82928577349E+03  0.00000000000E+00 0. -1.
         21   -1    0    0  502  503 -0.00000000000E+00 -0.00000000000E+00 -0.41587179607E+02  0.41587179607E+02  0.00000000000E+00 0. -1.
         -6    2    1    2    0  503  0.54053173466E+02  0.47987693168E+01  0.48201465625E+03  0.51542862181E+03  0.17430938468E+03 0.  0.
        -24    2    3    3    0    0  0.34983023959E+02 -0.30022684165E+02  0.46192021794E+03  0.47068400564E+03  0.77768707691E+02 0.  0.
          6    2    1    2  501    0 -0.54053173466E+02 -0.47987693168E+01  0.30568393763E+03  0.35544433129E+03  0.17307001234E+03 0.  0.
         24    2    5    5    0    0  0.34916492977E+02  0.91929427903E+01  0.18380134786E+03  0.20382366897E+03  0.80358452424E+02 0.  0.
          5    1    5    5  501    0 -0.88969666442E+02 -0.13991712107E+02  0.12188258977E+03  0.15162066232E+03  0.47000000000E+01 0. -1.
        -13    1    6    6    0    0  0.58534298572E+02 -0.29119593477E+01  0.14859576778E+03  0.15973554964E+03  0.00000000000E+00 0.  1.
         14    1    6    6    0    0 -0.23617805595E+02  0.12104902138E+02  0.35205580088E+02  0.44088119332E+02  0.00000000000E+00 0. -1.
         -5    1    3    3    0  503  0.19070149507E+02  0.34821453482E+02  0.20094438314E+02  0.44744616167E+02  0.47000000000E+01 0.  1.
         11    1    4    4    0    0 -0.18172058947E+02 -0.13089887093E+02  0.26700158606E+03  0.26793920174E+03  0.00000000000E+00 0. -1.
        -12    1    4    4    0    0  0.53155082906E+02 -0.16932797072E+02  0.19491863188E+03  0.20274480390E+03  0.00000000000E+00 0.  1.
</event>
<event>
12    1  0.8358445E-002  0.1894742E+03  0.7818608E-02  0.1161182E+00
         21   -1    0    0  501  502  0.00000000000E+00  0.00000000000E+00  0.13567279259E+04  0.13567279259E+04  0.00000000000E+00 0. -1.
         21   -1    0    0  502  503 -0.00000000000E+00 -0.00000000000E+00 -0.34524658287E+02  0.34524658287E+02  0.00000000000E+00 0. -1.
         -6    2    1    2    0  503  0.48246315531E+02 -0.20429540220E+02  0.31090842510E+03  0.36409411862E+03  0.18208625796E+03 0.  0.
        -24    2    3    3    0    0  0.53725707486E+02 -0.16469017775E+02  0.52438097233E+02  0.10549266877E+03  0.72258348527E+02 0.  0.
          6    2    1    2  501    0 -0.48246315531E+02  0.20429540220E+02  0.10112948425E+04  0.10271584656E+04  0.17202378272E+03 0.  0.
         24    2    5    5    0    0  0.34848123430E+02 -0.80903920321E+01  0.41844842430E+03  0.42781963160E+03  0.81551868340E+02 0.  0.
          5    1    5    5  501    0 -0.83094438960E+02  0.28519932252E+02  0.59284641821E+03  0.59933883398E+03  0.47000000000E+01 0. -1.
        -11    1    6    6    0    0  0.13677088707E+02  0.36293943333E+02  0.21830011875E+03  0.22171886461E+03  0.00000000000E+00 0.  1.
         12    1    6    6    0    0  0.21171034722E+02 -0.44384335366E+02  0.20014830555E+03  0.20610076698E+03  0.00000000000E+00 0. -1.
         -5    1    3    3    0  503 -0.54793919557E+01 -0.39605224450E+01  0.25847032787E+03  0.25860144985E+03  0.47000000000E+01 0.  1.
         11    1    4    4    0    0  0.70775234885E+02 -0.17775396659E+02  0.34525201447E+02  0.80728484033E+02  0.00000000000E+00 0. -1.
        -12    1    4    4    0    0 -0.17049527399E+02  0.13063788844E+01  0.17912895786E+02  0.24764184739E+02  0.00000000000E+00 0.  1.
</event>
<event>
12    1  0.8358445E-002  0.4974683E+03  0.7818608E-02  0.1014479E+00
         21   -1    0    0  503  502  0.00000000000E+00  0.00000000000E+00  0.39689149643E+03  0.39689149643E+03  0.00000000000E+00 0.  1.
         21   -1    0    0  501  503 -0.00000000000E+00 -0.00000000000E+00 -0.68400099493E+03  0.68400099493E+03  0.00000000000E+00 0.  1.
          6    2    1    2  501    0  0.99504149567E+02 -0.45513316928E+03  0.18156206376E+02  0.49723003578E+03  0.17280272884E+03 0.  0.
         24    2    3    3    0    0  0.69040861454E+02 -0.26573008083E+03  0.76968417349E+02  0.29652500845E+03  0.81386896728E+02 0.  0.
         -6    2    1    2    0  502 -0.99504149567E+02  0.45513316928E+03 -0.30526570487E+03  0.58366245557E+03  0.17443461215E+03 0.  0.
        -24    2    5    5    0    0 -0.24082243321E+02  0.38498115035E+03 -0.25677739200E+03  0.46971959188E+03  0.76885794431E+02 0.  0.
          5    1    3    3  501    0  0.30463288113E+02 -0.18940308844E+03 -0.58812210973E+02  0.20070502733E+03  0.47000000000E+01 0. -1.
        -11    1    4    4    0    0  0.21163810464E+02 -0.21683927074E+03  0.61215176873E+02  0.22630615124E+03  0.00000000000E+00 0.  1.
         12    1    4    4    0    0  0.47877050990E+02 -0.48890810090E+02  0.15753240475E+02  0.70218857213E+02  0.00000000000E+00 0. -1.
         -5    1    5    5    0  502 -0.75421906246E+02  0.70152018926E+02 -0.48488312878E+02  0.11394286369E+03  0.47000000000E+01 0.  1.
         13    1    6    6    0    0 -0.69671230349E+00  0.20002612785E+03 -0.89082893730E+02  0.21896734731E+03  0.00000000000E+00 0. -1.
        -14    1    6    6    0    0 -0.23385531017E+02  0.18495502250E+03 -0.16769449827E+03  0.25075224457E+03  0.00000000000E+00 0.  1.
</event>
<event>
12    1  0.8358445E-002  0.2332754E+03  0.7818608E-02  0.1124478E+00
         21   -1    0    0  501  502  0.00000000000E+00  0.00000000000E+00  0.49920007697E+02  0.49920007697E+02  0.00000000000E+00 0.  1.
         21   -1    0    0  502  503 -0.00000000000E+00 -0.00000000000E+00 -0.16416099926E+04  0.16416099926E+04  0.00000000000E+00 0.  1.
         -6    2    1    2    0  503 -0.76920172338E+02  0.13795377137E+03 -0.12883452396E+04  0.13092940412E+04  0.17166675297E+03 0.  0.
        -24    2    3    3    0    0 -0.25642771154E+02  0.10858234093E+02 -0.29402409362E+03  0.30556136825E+03  0.78371737137E+02 0.  0.
          6    2    1    2  501    0  0.76920172338E+02 -0.13795377137E+03 -0.30334474526E+03  0.38223595902E+03  0.17069955460E+03 0.  0.
         24    2    5    5    0    0  0.10468347712E+03 -0.13447065194E+03 -0.19666641666E+03  0.27184896247E+03  0.78633277556E+02 0.  0.
          5    1    5    5  501    0 -0.27763304785E+02 -0.34831194277E+01 -0.10667832860E+03  0.11038699654E+03  0.47000000000E+01 0. -1.
        -13    1    6    6    0    0  0.70141444373E+02 -0.53829666779E+02 -0.14559320263E+03  0.17033741778E+03  0.00000000000E+00 0.  1.
         14    1    6    6    0    0  0.34542032750E+02 -0.80640985159E+02 -0.51073214031E+02  0.10151154469E+03  0.00000000000E+00 0. -1.
         -5    1    3    3    0  503 -0.51277401184E+02  0.12709553727E+03 -0.99432114598E+03  0.10037326730E+04  0.47000000000E+01 0.  1.
         13    1    4    4    0    0  0.20147791436E+02 -0.35821491778E+01 -0.18873876067E+03  0.18984489741E+03  0.00000000000E+00 0. -1.
        -14    1    4    4    0    0 -0.45790562590E+02  0.14440383271E+02 -0.10528533294E+03  0.11571647084E+03  0.00000000000E+00 0.  1.
</event>
<event>
12    1  0.8358445E-002  0.1740109E+03  0.7818608E-02  0.1174260E+00
         21   -1    0    0  503  502  0.00000000000E+00  0.00000000000E+00  0.21351851794E+02  0.21351851794E+02  0.00000000000E+00 0. -1.
         21   -1    0    0  501  503 -0.00000000000E+00 -0.00000000000E+00 -0.18256210329E+04  0.18256210329E+04  0.00000000000E+00 0. -1.
          6    2    1    2  501    0  0.18753633130E+01  0.47551440078E+01 -0.13432324350E+04  0.13541902913E+04  0.17184831198E+03 0.  0.
         24    2    3    3    0    0  0.11629475039E+02 -0.41031921456E+02 -0.40870938969E+03  0.41848360104E+03  0.79159938391E+02 0.  0.
         -6    2    1    2    0  502 -0.18753633130E+01 -0.47551440078E+01 -0.46103674612E+03  0.49278259337E+03  0.17393583494E+03 0.  0.
        -24    2    5    5    0    0  0.19553033102E+02 -0.34303278929E+02 -0.44279161464E+03  0.45170652646E+03  0.80095792657E+02 0.  0.
          5    1    3    3  501    0 -0.97541117261E+01  0.45787065464E+02 -0.93452304528E+03  0.93570669027E+03  0.47000000000E+01 0. -1.
        -11    1    4    4    0    0 -0.25446723543E+02 -0.19776033491E+02 -0.29919513023E+03  0.30092582673E+03  0.00000000000E+00 0.  1.
         12    1    4    4    0    0  0.37076198582E+02 -0.21255887965E+02 -0.10951425946E+03  0.11755777431E+03  0.00000000000E+00 0. -1.
         -5    1    5    5    0  502 -0.21428396415E+02  0.29548134922E+02 -0.18245131477E+02  0.41076066911E+02  0.47000000000E+01 0.  1.
         13    1    6    6    0    0  0.42096800629E+02 -0.34674601281E+02 -0.18341654995E+03  0.19135333650E+03  0.00000000000E+00 0. -1.
        -14    1    6    6    0    0 -0.22543767527E+02  0.37132235187E+00 -0.25937506469E+03  0.26035318995E+03  0.00000000000E+00 0.  1.
</event>
<event>
12    1  0.8358445E-002  0.2205346E+03  0.7818608E-02  0.1133852E+00
         21   -1    0    0  501  502  0.00000000000E+00  0.00000000000E+00  0.24810091833E+03  0.24810091833E+03  0.00000000000E+00 0. -1.
         21   -1    0    0  502  503 -0.00000000000E+00 -0.00000000000E+00 -0.31055761686E+03  0.31055761686E+03  0.00000000000E+00 0.  1.
         -6    2    1    2    0  503  0.23260354394E+02 -0.13561529344E+03 -0.20222809131E+03  0.29921846632E+03  0.17234540252E+03 0.  0.
        -24    2    3    3    0    0  0.28769602873E+02 -0.15920895153E+03 -0.20622082991E+03  0.27421757668E+03  0.80579577903E+02 0.  0.
          6    2    1    2  501    0 -0.23260354394E+02  0.13561529344E+03  0.13977139278E+03  0.25944006888E+03  0.16982507235E+03 0.  0.
         24    2    5    5    0    0 -0.19026557702E+00  0.17052599202E+02  0.10323006713E+02  0.82329041222E+02  0.79879153854E+02 0.  0.
          5    1    5    5  501    0 -0.23070088817E+02  0.11856269423E+03  0.12944838607E+03  0.17711102765E+03  0.47000000000E+01 0. -1.
        -13    1    6    6    0    0 -0.16303301884E+02 -0.28091327792E+02 -0.28902372533E+01  0.32607879735E+02  0.00000000000E+00 0.  1.
         14    1    6    6    0    0  0.16113036307E+02  0.45143926995E+02  0.13213243966E+02  0.49721161487E+02  0.00000000000E+00 0. -1.
         -5    1    3    3    0  503 -0.55092484790E+01  0.23593658094E+02  0.39927386036E+01  0.25000889637E+02  0.47000000000E+01 0.  1.
         11    1    4    4    0    0  0.25385496736E+02 -0.60429042756E+01 -0.43480086388E+02  0.50709545935E+02  0.00000000000E+00 0. -1.
        -12    1    4    4    0    0  0.33841061377E+01 -0.15316604725E+03 -0.16274074352E+03  0.22350803075E+03  0.00000000000E+00 0.  1.
</event>
<event>
12    1  0.8358445E-002  0.1742295E+03  0.7818608E-02  0.1174361E+00
         21   -1    0    0  501  502  0.00000000000E+00  0.00000000000E+00  0.37628098659E+03  0.37628098659E+03  0.00000000000E+00 0.  1.
         21   -1    0    0  502  503 -0.00000000000E+00 -0.00000000000E+00 -0.86053985291E+02  0.86053985291E+02  0.00000000000E+00 0.  1.
         -6    2    1    2    0  503 -0.30548862453E+01 -0.27626746201E+02  0.21196943577E+03  0.27438466819E+03  0.17199806686E+03 0.  0.
        -24    2    3    3    0    0 -0.64338643549E+02 -0.41628002939E+02  0.15209795105E+03  0.18744550106E+03  0.78292256772E+02 0.  0.
          6    2    1    2  501    0  0.30548862453E+01  0.27626746201E+02  0.78257565531E+02  0.18795030369E+03  0.16860753441E+03 0.  0.
         24    2    5    5    0    0  0.43797023697E+02  0.63854124469E+02  0.31041828286E+02  0.11567471622E+03  0.80134364495E+02 0.  0.
          5    1    5    5  501    0 -0.40742137452E+02 -0.36227378268E+02  0.47215737245E+02  0.72275587468E+02  0.47000000000E+01 0. -1.
        -11    1    6    6    0    0  0.58355388300E+02  0.61638660433E+02  0.44400935225E+02  0.95792060488E+02  0.00000000000E+00 0.  1.
         12    1    6    6    0    0 -0.14558364603E+02  0.22154640362E+01 -0.13359106939E+02  0.19882655733E+02  0.00000000000E+00 0. -1.
         -5    1    3    3    0  503  0.61283757304E+02  0.14001256738E+02  0.59871484717E+02  0.86939167133E+02  0.47000000000E+01 0.  1.
         13    1    4    4    0    0 -0.82249749353E+01 -0.12231859905E+02 -0.69131321257E+01  0.16280663537E+02  0.00000000000E+00 0. -1.
        -14    1    4    4    0    0 -0.56113668614E+02 -0.29396143034E+02  0.15901108318E+03  0.17116483752E+03  0.00000000000E+00 0.  1.
</event>
<event>
12    1  0.8358445E-002  0.2472183E+03  0.7818608E-02  0.1115212E+00
         21   -1    0    0  501  502  0.00000000000E+00  0.00000000000E+00  0.66061119537E+02  0.66061119537E+02  0.00000000000E+00 0.  1.
         21   -1    0    0  502  503 -0.00000000000E+00 -0.00000000000E+00 -0.94768470398E+03  0.94768470398E+03  0.00000000000E+00 0. -1.
         -6    2    1    2    0  503  0.15713136018E+03  0.81701559105E+02 -0.52356710517E+03  0.57863513694E+03  0.17126207688E+03 0.  0.
        -24    2    3    3    0    0  0.63781534651E+02  0.39260734786E+02 -0.41486265449E+03  0.42912205694E+03  0.80157521184E+02 0.  0.
          6    2    1    2  501    0 -0.15713136018E+03 -0.81701559105E+02 -0.35805647927E+03  0.43511068657E+03  0.17248610990E+03 0.  0.
         24    2    5    5    0    0 -0.12403847424E+03  0.59247858408E+00 -0.16086713126E+03  0.21883961429E+03  0.81404230470E+02 0.  0.
          5    1    5    5  501    0 -0.33092885938E+02 -0.82294037689E+02 -0.19718934801E+03  0.21627107229E+03  0.47000000000E+01 0. -1.
        -11    1    6    6    0    0 -0.26458007191E+02 -0.35328671469E+02 -0.53812073302E+02  0.69597991389E+02  0.00000000000E+00 0.  1.
         12    1    6    6    0    0 -0.97580467049E+02  0.35921150053E+02 -0.10705505796E+03  0.14924162290E+03  0.00000000000E+00 0. -1.
         -5    1    3    3    0  503  0.93349825527E+02  0.42440824319E+02 -0.10870445068E+03  0.14951308000E+03  0.47000000000E+01 0.  1.
         11    1    4    4    0    0 -0.88413013203E+01  0.25596270264E+02 -0.20178576195E+03  0.20359477250E+03  0.00000000000E+00 0. -1.
        -12    1    4    4    0    0  0.72622835971E+02  0.13664464522E+02 -0.21307689254E+03  0.22552728445E+03  0.00000000000E+00 0.  1.
</event>
<event>
12    1  0.8358445E-002  0.2027698E+03  0.7818608E-02  0.1147559E+00
         21   -1    0    0  503  502  0.00000000000E+00  0.00000000000E+00  0.19781604908E+03  0.19781604908E+03  0.00000000000E+00 0.  1.
         21   -1    0    0  501  503 -0.00000000000E+00 -0.00000000000E+00 -0.33355243623E+03  0.33355243623E+03  0.00000000000E+00 0.  1.
          6    2    1    2  501    0 -0.66906453040E+02  0.84359586078E+02 -0.23147394126E+03  0.30772681640E+03  0.17182140386E+03 0.  0.
         24    2    3    3    0    0 -0.11242945995E+03  0.68002540885E+02 -0.16898234503E+03  0.22856125138E+03  0.80127920640E+02 0.  0.
         -6    2    1    2    0  502  0.66906453040E+02 -0.84359586078E+02  0.95737554112E+02  0.22364166892E+03  0.17104649539E+03 0.  0.
        -24    2    5    5    0    0 -0.15190157734E+02  0.46787880054E+01  0.52633026955E+02  0.95003510419E+02  0.77477735616E+02 0.  0.
          5    1    3    3  501    0  0.45523006912E+02  0.16357045193E+02 -0.62491596227E+02  0.79165565019E+02  0.47000000000E+01 0. -1.
        -13    1    4    4    0    0 -0.72491737400E+02  0.77005241191E+02 -0.87075569616E+02  0.13699275158E+03  0.00000000000E+00 0.  1.
         14    1    4    4    0    0 -0.39937722553E+02 -0.90027003054E+01 -0.81906775417E+02  0.91568499795E+02  0.00000000000E+00 0. -1.
         -5    1    5    5    0  502  0.82096610774E+02 -0.89038374084E+02  0.43104527157E+02  0.12863815850E+03  0.47000000000E+01 0.  1.
         11    1    6    6    0    0  0.29648073777E+02 -0.85819499665E+01  0.12202501365E+02  0.33189745155E+02  0.00000000000E+00 0. -1.
        -12    1    6    6    0    0 -0.44838231511E+02  0.13260737972E+02  0.40430525590E+02  0.61813765264E+02  0.00000000000E+00 0.  1.
</event>
<event>
12    1  0.8358445E-002  0.1886524E+03  0.7818608E-02  0.1159852E+00
         21   -1    0    0  503  502  0.00000000000E+00  0.00000000000E+00  0.34385615703E+02  0.34385615703E+02  0.00000000000E+00 0.  1.
         21   -1    0    0  501  503 -0.00000000000E+00 -0.00000000000E+00 -0.10738861466E+04  0.10738861466E+04  0.00000000000E+00 0. -1.
          6    2    1    2  501    0  0.75236003647E+02  0.18236544836E+02 -0.62957943001E+03  0.65702346971E+03  0.17122077339E+03 0.  0.
         24    2    3    3    0    0  0.74963778319E+02  0.46851207355E+02 -0.25287295377E+03  0.27920243765E+03  0.78706205314E+02 0.  0.
         -6    2    1    2    0  502 -0.75236003647E+02 -0.18236544836E+02 -0.40992110091E+03  0.45124829261E+03  0.17203687049E+03 0.  0.
        -24    2    5    5    0    0 -0.92559552434E+02 -0.29181985548E+02 -0.41112942970E+03  0.43018984838E+03  0.81345182158E+02 0.  0.
          5    1    3    3  501    0  0.27222532818E+00 -0.28614662519E+02 -0.37670647625E+03  0.37782103206E+03  0.47000000000E+01 0. -1.
        -11    1    4    4    0    0 -0.59769467792E+01  0.35734210245E+02 -0.67069639783E+02  0.76229877708E+02  0.00000000000E+00 0.  1.
         12    1    4    4    0    0  0.80940725098E+02  0.11116997110E+02 -0.18580331398E+03  0.20297255995E+03  0.00000000000E+00 0. -1.
         -5    1    5    5    0  502  0.17323548788E+02  0.10945440712E+02  0.12083287921E+01  0.21058444232E+02  0.47000000000E+01 0.  1.
         11    1    6    6    0    0  0.11743436372E+02 -0.17779337019E+02 -0.83102080954E+02  0.85790261578E+02  0.00000000000E+00 0. -1.
        -12    1    6    6    0    0 -0.10430298881E+03 -0.11402648529E+02 -0.32802734874E+03  0.34439958681E+03  0.00000000000E+00 0.  1.
</event>
<event>
12    1  0.8358445E-002  0.1738991E+03  0.7818608E-02  0.1173875E+00
         21   -1    0    0  503  502  0.00000000000E+00  0.00000000000E+00  0.40118392421E+03  0.40118392421E+03  0.00000000000E+00 0.  1.
         21   -1    0    0  501  503 -0.00000000000E+00 -0.00000000000E+00 -0.13967534514E+03  0.13967534514E+03  0.00000000000E+00 0.  1.
          6    2    1    2  501    0 -0.18324648118E+02 -0.16428226489E+02 -0.52780522544E+02  0.18173239887E+03  0.17214877834E+03 0.  0.
         24    2    3    3    0    0  0.11337620657E+02  0.92542510605E+01 -0.95098230240E+02  0.12383319139E+03  0.77953852309E+02 0.  0.
         -6    2    1    2    0  502  0.18324648118E+02  0.16428226489E+02  0.31428910162E+03  0.35912687048E+03  0.17201392487E+03 0.  0.
        -24    2    5    5    0    0  0.57891386080E+02  0.36282994743E+02  0.28939992049E+03  0.30812393025E+03  0.80747595129E+02 0.  0.
          5    1    3    3  501    0 -0.29662268775E+02 -0.25682477549E+02  0.42317707696E+02  0.57899207478E+02  0.47000000000E+01 0. -1.
        -11    1    4    4    0    0  0.26447912701E+02  0.37986701477E+02 -0.63043678141E+02  0.78211168824E+02  0.00000000000E+00 0.  1.
         12    1    4    4    0    0 -0.15110292044E+02 -0.28732450417E+02 -0.32054552099E+02  0.45622022564E+02  0.00000000000E+00 0. -1.
         -5    1    5    5    0  502 -0.39566737962E+02 -0.19854768254E+02  0.24889181124E+02  0.51002940233E+02  0.47000000000E+01 0.  1.
         11    1    6    6    0    0 -0.82054405848E+01 -0.18297548218E+02  0.54366181445E+02  0.57946623809E+02  0.00000000000E+00 0. -1.
        -12    1    6    6    0    0  0.66096826665E+02  0.54580542961E+02  0.23503373905E+03  0.25017730644E+03  0.00000000000E+00 0.  1.
</event>
<event>
12    1  0.8358445E-002  0.2087279E+03  0.7818608E-02  0.1142640E+00
         21   -1    0    0  503  502  0.00000000000E+00  0.00000000000E+00  0.26800169011E+03  0.26800169011E+03  0.00000000000E+00 0. -1.
         21   -1    0    0  501  503 -0.00000000000E+00 -0.00000000000E+00 -0.42346250860E+03  0.42346250860E+03  0.00000000000E+00 0.  1.
          6    2    1    2  501    0 -0.10951749625E+03  0.45035458538E+02 -0.34925338476E+03  0.40687255912E+03  0.17188681769E+03 0.  0.
         24    2    3    3    0    0 -0.11177389852E+03  0.69898949225E+02 -0.18625934511E+03  0.24191064994E+03  0.80305363598E+02 0.  0.
         -6    2    1    2    0  502  0.10951749625E+03 -0.45035458538E+02  0.19379256627E+03  0.28459163958E+03  0.17150675808E+03 0.  0.
        -24    2    5    5    0    0  0.27373007196E+02 -0.60480037254E+02  0.41264319975E+02  0.11059966272E+03  0.78245925532E+02 0.  0.
          5    1    3    3  501    0  0.22564022701E+01 -0.24863490686E+02 -0.16299403965E+03  0.16496190918E+03  0.47000000000E+01 0. -1.
        -11    1    4    4    0    0 -0.36182476171E+02  0.26221957020E+02 -0.10860627485E+02  0.45986039634E+02  0.00000000000E+00 0.  1.
         12    1    4    4    0    0 -0.75591422349E+02  0.43676992204E+02 -0.17539871762E+03  0.19592461031E+03  0.00000000000E+00 0. -1.
         -5    1    5    5    0  502  0.82144489054E+02  0.15444578716E+02  0.15252824629E+03  0.17399197686E+03  0.47000000000E+01 0.  1.
         13    1    6    6    0    0  0.11682827479E+02 -0.19493547189E+02  0.59029586810E+02  0.63253292079E+02  0.00000000000E+00 0. -1.
        -14    1    6    6    0    0  0.15690179717E+02 -0.40986490066E+02 -0.17765266835E+02  0.47346370644E+02  0.00000000000E+00 0.  1.
</event>
<event>
12    1  0.8358445E-002  0.1761743E+03  0.7818608E-02  0.1172556E+00
         21   -1    0    0  501  502  0.00000000000E+00  0.00000000000E+00  0.64767099599E+02  0.64767099599E+02  0.00000000000E+00 0.  1.
         21   -1    0    0  502  503 -0.00000000000E+00 -0.00000000000E+00 -0.79766399136E+03  0.79766399136E+03  0.00000000000E+00 0.  1.
         -6    2    1    2    0  503 -0.36842579960E+02  0.20906933972E+02 -0.64099837624E+03  0.66372851313E+03  0.16691957708E+03 0.  0.
        -24    2    3    3    0    0  0.33454209595E+02  0.16662777407E+02 -0.24311718035E+03  0.25963546998E+03  0.83113065131E+02 0.  0.
          6    2    1    2  501    0  0.36842579960E+02 -0.20906933972E+02 -0.91898515515E+02  0.19870257782E+03  0.17100556042E+03 0.  0.
         24    2    5    5    0    0 -0.25490507526E+02 -0.45654716203E+02 -0.91747310136E+02  0.13147178589E+03  0.78314382346E+02 0.  0.
          5    1    5    5  501    0  0.62333087486E+02  0.24747782230E+02 -0.15120537883E+00  0.67230791933E+02  0.47000000000E+01 0. -1.
        -11    1    6    6    0    0  0.16466643780E+02  0.25536729342E+01  0.32500457767E+01  0.16977467431E+02  0.00000000000E+00 0.  1.
         12    1    6    6    0    0 -0.41957151305E+02 -0.48208389137E+02 -0.94997355913E+02  0.11449431846E+03  0.00000000000E+00 0. -1.
         -5    1    3    3    0  503 -0.70296789555E+02  0.42441565656E+01 -0.39788119589E+03  0.40409304316E+03  0.47000000000E+01 0.  1.
         13    1    4    4    0    0 -0.54431300108E+01 -0.16072964170E+02 -0.74256208523E+01  0.18523166213E+02  0.00000000000E+00 0. -1.
        -14    1    4    4    0    0  0.38897339606E+02  0.32735741577E+02 -0.23569155950E+03  0.24111230376E+03  0.00000000000E+00 0.  1.
</event>
<event>
12    1  0.8358445E-002  0.2162850E+03  0.7818608E-02  0.1136762E+00
         21   -1    0    0  503  502  0.00000000000E+00  0.00000000000E+00  0.29332566345E+03  0.29332566345E+03  0.00000000000E+00 0. -1.
         21   -1    0    0  501  503 -0.00000000000E+00 -0.00000000000E+00 -0.22509155829E+03  0.22509155829E+03  0.00000000000E+00 0. -1.
          6    2    1    2  501    0 -0.90552114559E+02  0.93906521232E+02 -0.10617686151E+03  0.24057126638E+03  0.17199676772E+03 0.  0.
         24    2    3    3    0    0 -0.90143680119E+02  0.11367407048E+03 -0.37851228152E+02  0.16928729205E+03  0.78598946635E+02 0.  0.
         -6    2    1    2    0  502  0.90552114559E+02 -0.93906521232E+02  0.17441096667E+03  0.27784595536E+03  0.17251396881E+03 0.  0.
        -24    2    5    5    0    0  0.16259407141E+02 -0.22333124798E+02  0.15075444346E+03  0.17190314747E+03  0.77850196557E+02 0.  0.
          5    1    3    3  501    0 -0.40843443954E+00 -0.19767549252E+02 -0.68325633354E+02  0.71283974324E+02  0.47000000000E+01 0. -1.
        -11    1    4    4    0    0 -0.91404909730E+02  0.66408115955E+02 -0.44715738486E+02  0.12150881719E+03  0.00000000000E+00 0.  1.
         12    1    4    4    0    0  0.12612296110E+01  0.47265954530E+02  0.68645103342E+01  0.47778474860E+02  0.00000000000E+00 0. -1.
         -5    1    5    5    0  502  0.74292707418E+02 -0.71573396435E+02  0.23656523212E+02  0.10594280789E+03  0.47000000000E+01 0.  1.
         13    1    6    6    0    0 -0.69210694079E+01  0.26378583586E+02  0.36592167563E+02  0.45636800947E+02  0.00000000000E+00 0. -1.
        -14    1    6    6    0    0  0.23180476549E+02 -0.48711708383E+02  0.11416227590E+03  0.12626634652E+03  0.00000000000E+00 0.  1.
</event>
<event>
12    1  0.8358445E-002  0.1758044E+03  0.7818608E-02  0.1173786E+00
         21   -1    0    0  503  502  0.00000000000E+00  0.00000000000E+00  0.19954184332E+03  0.19954184332E+03  0.00000000000E+00 0.  1.
         21   -1    0    0  501  503 -0.00000000000E+00 -0.00000000000E+00 -0.21747954714E+03  0.21747954714E+03  0.00000000000E+00 0.  1.
          6    2    1    2  501    0  0.27623496882E+02 -0.23472009392E+02 -0.12647736173E+03  0.21657265028E+03  0.17202673342E+03 0.  0.
         24    2    3    3    0    0  0.18898849178E+02 -0.80200490869E+02 -0.98620703258E+02  0.15260137931E+03  0.82291266968E+02 0.  0.
         -6    2    1    2    0  502 -0.27623496882E+02  0.23472009392E+02  0.10853965791E+03  0.20044874018E+03  0.16457474684E+03 0.  0.
        -24    2    5    5    0    0 -0.38752112185E+02  0.50646920129E+02  0.17031215202E+02  0.10422916349E+03  0.80664859224E+02 0.  0.
          5    1    3    3  501    0  0.87246477049E+01  0.56728481478E+02 -0.27856658472E+02  0.63971270971E+02  0.47000000000E+01 0. -1.
        -13    1    4    4    0    0  0.41197827424E+02 -0.20020940609E+02 -0.66725804787E+02  0.80934739586E+02  0.00000000000E+00 0.  1.
         14    1    4    4    0    0 -0.22298978247E+02 -0.60179550260E+02 -0.31894898471E+02  0.71666639721E+02  0.00000000000E+00 0. -1.
         -5    1    5    5    0  502  0.11128615303E+02 -0.27174910737E+02  0.91508442704E+02  0.96219576689E+02  0.47000000000E+01 0.  1.
         11    1    6    6    0    0 -0.16882012654E+02  0.32184652677E+02 -0.31362917247E+02  0.48005070539E+02  0.00000000000E+00 0. -1.
        -12    1    6    6    0    0 -0.21870099531E+02  0.18462267452E+02  0.48394132449E+02  0.56224092953E+02  0.00000000000E+00 0.  1.
</event>
<event>
12    1  0.8358445E-002  0.1950366E+03  0.7818608E-02  0.1154231E+00
         21   -1    0    0  503  502  0.00000000000E+00  0.00000000000E+00  0.59277439351E+03  0.59277439351E+03  0.00000000000E+00 0.  1.
         21   -1    0    0  501  503 -0.00000000000E+00 -0.00000000000E+00 -0.24490303192E+03  0.24490303192E+03  0.00000000000E+00 0.  1.
          6    2    1    2  501    0 -0.94896068656E+01 -0.91530003763E+02 -0.18634601838E+03  0.26897057704E+03  0.17074114478E+03 0.  0.
         24    2    3    3    0    0  0.46680178615E+01 -0.12962127820E+03 -0.14537515057E+03  0.21107337905E+03  0.81206962660E+02 0.  0.
         -6    2    1    2    0  502  0.94896068656E+01  0.91530003763E+02  0.53421737998E+03  0.56870684839E+03  0.17196358948E+03 0.  0.
        -24    2    5    5    0    0 -0.21413991231E+02 -0.98923479871E+01  0.31031557428E+03  0.32092542373E+03  0.78364241765E+02 0.  0.
          5    1    3    3  501    0 -0.14157624727E+02  0.38091274441E+02 -0.40970867811E+02  0.57897197995E+02  0.47000000000E+01 0. -1.
        -13    1    4    4    0    0  0.33265266598E+02 -0.10924897353E+03 -0.12913306853E+03  0.17238696461E+03  0.00000000000E+00 0.  1.
         14    1    4    4    0    0 -0.28597248736E+02 -0.20372304677E+02 -0.16242082042E+02  0.38686414439E+02  0.00000000000E+00 0. -1.
         -5    1    5    5    0  502  0.30903598097E+02  0.10142235175E+03  0.22390180570E+03  0.24778142466E+03  0.47000000000E+01 0.  1.
         11    1    6    6    0    0 -0.49443637457E+01 -0.86913527969E+01  0.30248374468E+03  0.30264897512E+03  0.00000000000E+00 0. -1.
        -12    1    6    6    0    0 -0.16469627486E+02 -0.12009951902E+01  0.78318296017E+01  0.18276448612E+02  0.00000000000E+00 0.  1.
</event>
<event>
12    1  0.8358445E-002  0.1924914E+03  0.7818608E-02  0.1156317E+00
         21   -1    0    0  503  502  0.00000000000E+00  0.00000000000E+00  0.11655145676E+04  0.11655145676E+04  0.00000000000E+00 0. -1.
         21   -1    0    0  501  503 -0.00000000000E+00 -0.00000000000E+00 -0.68948579863E+02  0.68948579863E+02  0.00000000000E+00 0. -1.
          6    2    1    2  501    0  0.86183448288E+02 -0.64887528683E+00  0.95036022972E+02  0.21467363548E+03  0.17211890166E+03 0.  0.
         24    2    3    3    0    0  0.10048680136E+03  0.72141170551E+01  0.12613048976E+03  0.17924245680E+03  0.77905822263E+02 0.  0.
         -6    2    1    2    0  502 -0.86183448288E+02  0.64887528683E+00  0.10015299648E+04  0.10197895120E+04  0.17169848758E+03 0.  0.
        -24    2    5    5    0    0 -0.10561166046E+03  0.48005809945E+02  0.71071394306E+03  0.72446565049E+03  0.79232501327E+02 0.  0.
          5    1    3    3  501    0 -0.14303353070E+02 -0.78629923419E+01 -0.31094466785E+02  0.35431178675E+02  0.47000000000E+01 0. -1.
        -13    1    4    4    0    0  0.13335978297E+02 -0.28415792997E+02  0.45532256852E+02  0.55303634806E+02  0.00000000000E+00 0.  1.
         14    1    4    4    0    0  0.87150823062E+02  0.35629910052E+02  0.80598232905E+02  0.12393882200E+03  0.00000000000E+00 0. -1.
         -5    1    5    5    0  502  0.19428212174E+02 -0.47356934658E+02  0.29081602175E+03  0.29532386154E+03  0.47000000000E+01 0.  1.
         11    1    6    6    0    0 -0.59973687122E+02  0.67036449497E+02  0.41388390694E+03  0.42354529525E+03  0.00000000000E+00 0. -1.
        -12    1    6    6    0    0 -0.45637973340E+02 -0.19030639552E+02  0.29683003612E+03  0.30092035523E+03  0.00000000000E+00 0.  1.
</event>
<event>
12    1  0.8358445E-002  0.1998712E+03  0.7818608E-02  0.1150114E+00
         21   -1    0    0  503  502  0.00000000000E+00  0.00000000000E+00  0.31179605660E+03  0.31179605660E+03  0.00000000000E+00 0. -1.
         21   -1    0    0  501  503 -0.00000000000E+00 -0.00000000000E+00 -0.16984307019E+03  0.16984307019E+03  0.00000000000E+00 0.  1.
          6    2    1    2  501    0  0.79466447285E+02 -0.59098642429E+02  0.19130734373E+03  0.27576451996E+03  0.17216272804E+03 0.  0.
         24    2    3    3    0    0  0.51982438156E+02 -0.19202147112E+02  0.20343053871E+03  0.22560315084E+03  0.80261455620E+02 0.  0.
         -6    2    1    2    0  502 -0.79466447285E+02  0.59098642429E+02 -0.49354357323E+02  0.20587460682E+03  0.17361144941E+03 0.  0.
        -24    2    5    5    0    0 -0.78653661428E+02 -0.19732939155E+02 -0.92677421734E+01  0.11730765141E+03  0.84257977022E+02 0.  0.
          5    1    3    3  501    0  0.27484009129E+02 -0.39896495317E+02 -0.12123194976E+02  0.50161369128E+02  0.47000000000E+01 0. -1.
        -13    1    4    4    0    0  0.37548826707E+02  0.19284463314E+02  0.44059435505E+02  0.61016708936E+02  0.00000000000E+00 0.  1.
         14    1    4    4    0    0  0.14433611449E+02 -0.38486610426E+02  0.15937110320E+03  0.16458644190E+03  0.00000000000E+00 0. -1.
         -5    1    5    5    0  502 -0.81278585726E+00  0.78831581583E+02 -0.40086615150E+02  0.88566955406E+02  0.47000000000E+01 0.  1.
         13    1    6    6    0    0  0.16855830714E+02 -0.52291687534E+01  0.76465116667E+01  0.19233626169E+02  0.00000000000E+00 0. -1.
        -14    1    6    6    0    0 -0.95509492142E+02 -0.14503770401E+02 -0.16914253840E+02  0.98074025246E+02  0.00000000000E+00 0.  1.
</event>
<event>
12    1  0.8358445E-002  0.2532484E+03  0.7818608E-02  0.1111402E+00
         21   -1    0    0  501  502  0.00000000000E+00  0.00000000000E+00  0.22520072843E+03  0.22520072843E+03  0.00000000000E+00 0. -1.
         21   -1    0    0  502  503 -0.00000000000E+00 -0.00000000000E+00 -0.31295757891E+03  0.31295757891E+03  0.00000000000E+00 0.  1.
         -6    2    1    2    0  503  0.18455863823E+03  0.20148060993E+02 -0.12590109385E+03  0.28205338244E+03  0.17098301028E+03 0.  0.
        -24    2    3    3    0    0  0.17077444700E+03  0.30556159703E+02 -0.15875018350E+03  0.24464368934E+03  0.67463496248E+02 0.  0.
          6    2    1    2  501    0 -0.18455863823E+03 -0.20148060993E+02  0.38144243364E+02  0.25610492489E+03  0.17224086026E+03 0.  0.
         24    2    5    5    0    0 -0.11030542600E+03  0.50788877146E+02  0.52198431627E+02  0.15234944828E+03  0.75755402974E+02 0.  0.
          5    1    5    5  501    0 -0.74253212236E+02 -0.70936938139E+02 -0.14054188263E+02  0.10375547662E+03  0.47000000000E+01 0. -1.
        -13    1    6    6    0    0  0.94450336255E+00 -0.13125030891E+02  0.12232361227E+02  0.17966334731E+02  0.00000000000E+00 0.  1.
         14    1    6    6    0    0 -0.11124992936E+03  0.63913908037E+02  0.39966070399E+02  0.13438311355E+03  0.00000000000E+00 0. -1.
         -5    1    3    3    0  503  0.13784191231E+02 -0.10408098710E+02  0.32849089657E+02  0.37409693102E+02  0.47000000000E+01 0.  1.
         13    1    4    4    0    0  0.35788570652E+02 -0.19334577227E+02 -0.22595900797E+02  0.46531950299E+02  0.00000000000E+00 0. -1.
        -14    1    4    4    0    0  0.13498587635E+03  0.49890736930E+02 -0.13615428271E+03  0.19811173904E+03  0.00000000000E+00 0.  1.
</event>
<event>
12    1  0.8358445E-002  0.2616967E+03  0.7818608E-02  0.1106174E+00
         21   -1    0    0  503  502  0.00000000000E+00  0.00000000000E+00  0.96854155382E+03  0.96854155382E+03  0.00000000000E+00 0. -1.
         21   -1    0    0  501  503 -0.00000000000E+00 -0.00000000000E+00 -0.70950490281E+02  0.70950490281E+02  0.00000000000E+00 0. -1.
          6    2    1    2  501    0  0.12661599470E+02 -0.19705167212E+03  0.41338823088E+03  0.48909440915E+03  0.17127122947E+03 0.  0.
         24    2    3    3    0    0 -0.42812993257E+02 -0.17116036827E+03  0.34766139174E+03  0.39915055201E+03  0.85579762833E+02 0.  0.
         -6    2    1    2    0  502 -0.12661599470E+02  0.19705167212E+03  0.48420283266E+03  0.55039763495E+03  0.17174252771E+03 0.  0.
        -24    2    5    5    0    0 -0.18002873315E+02  0.14736802256E+03  0.46937610849E+03  0.49806298115E+03  0.75573569765E+02 0.  0.
          5    1    3    3  501    0  0.55474592727E+02 -0.25891303848E+02  0.65726839138E+02  0.89943857134E+02  0.47000000000E+01 0. -1.
        -11    1    4    4    0    0 -0.40787872984E+02 -0.74858750021E+02  0.23999116165E+03  0.25468262742E+03  0.00000000000E+00 0.  1.
         12    1    4    4    0    0 -0.20251202727E+01 -0.96301618248E+02  0.10767023009E+03  0.14446792460E+03  0.00000000000E+00 0. -1.
         -5    1    5    5    0  502  0.53412738446E+01  0.49683649556E+02  0.14826724170E+02  0.52334653807E+02  0.47000000000E+01 0.  1.
         11    1    6    6    0    0 -0.28577106269E+02  0.76288386622E+02  0.14992153931E+03  0.17062542860E+03  0.00000000000E+00 0. -1.
        -12    1    6    6    0    0  0.10574232955E+02  0.71079635938E+02  0.31945456918E+03  0.32743755254E+03  0.00000000000E+00 0.  1.
</event>
<event>
12    1  0.8358445E-002  0.1870041E+03  0.7818608E-02  0.1162896E+00
         21   -1    0    0  501  502  0.00000000000E+00  0.00000000000E+00  0.16355651603E+03  0.16355651603E+03  0.00000000000E+00 0.  1.
         21   -1    0    0  502  503 -0.00000000000E+00 -0.00000000000E+00 -0.21234496734E+03  0.21234496734E+03  0.00000000000E+00 0.  1.
         -6    2    1    2    0  503  0.33724311269E+02  0.63930710746E+02 -0.58337840562E+02  0.19589239599E+03  0.17247046768E+03 0.  0.
        -24    2    3    3    0    0  0.26898506934E+02  0.57411947784E+02  0.30843664024E+02  0.10608974216E+03  0.79271939283E+02 0.  0.
          6    2    1    2  501    0 -0.33724311269E+02 -0.63930710746E+02  0.95493892564E+01  0.18000908738E+03  0.16458315757E+03 0.  0.
         24    2    5    5    0    0 -0.52871686826E+02 -0.80510082053E+02 -0.23125104977E+02  0.13840127420E+03  0.96658438023E+02 0.  0.
          5    1    5    5  501    0  0.19147375557E+02  0.16579371306E+02  0.32674494234E+02  0.41607813173E+02  0.47000000000E+01 0. -1.
        -13    1    6    6    0    0  0.20775386780E+02 -0.28955687779E+02  0.17555084142E+02  0.39726937081E+02  0.00000000000E+00 0.  1.
         14    1    6    6    0    0 -0.73647073607E+02 -0.51554394274E+02 -0.40680189120E+02  0.98674337123E+02  0.00000000000E+00 0. -1.
         -5    1    3    3    0  503  0.68258043356E+01  0.65187629622E+01 -0.89181504586E+02  0.89802653834E+02  0.47000000000E+01 0.  1.
         13    1    4    4    0    0 -0.14778535508E+02  0.56725126934E+02  0.26001896168E+02  0.64126778664E+02  0.00000000000E+00 0. -1.
        -14    1    4    4    0    0  0.41677042441E+02  0.68682085041E+00  0.48417678559E+01  0.41962963498E+02  0.00000000000E+00 0.  1.
</event>
<event>
12    1  0.8358445E-002  0.1975947E+03  0.7818608E-02  0.1151861E+00
         21   -1    0    0  501  502  0.00000000000E+00  0.00000000000E+00  0.29600567009E+03  0.29600567009E+03  0.00000000000E+00 0.  1.
         21   -1    0    0  502  503 -0.00000000000E+00 -0.00000000000E+00 -0.20876454450E+03  0.20876454450E+03  0.00000000000E+00 0. -1.
         -6    2    1    2    0  503  0.13626733964E+02  0.98462426886E+02 -0.10978301766E+03  0.22573224156E+03  0.17035902243E+03 0.  0.
        -24    2    3    3    0    0  0.61175570637E+02  0.10960776953E+03 -0.72047000363E+02  0.16383549259E+03  0.76778804266E+02 0.  0.
          6    2    1    2  501    0 -0.13626733964E+02 -0.98462426886E+02  0.19702414325E+03  0.27903797303E+03  0.17077218738E+03 0.  0.
         24    2    5    5    0    0 -0.51172318827E+02 -0.11649887545E+03  0.18035090477E+03  0.23392620848E+03  0.77488244056E+02 0.  0.
          5    1    5    5  501    0  0.37545584863E+02  0.18036448564E+02  0.16673238485E+02  0.45111764553E+02  0.47000000000E+01 0. -1.
        -13    1    6    6    0    0 -0.51182490078E+02 -0.24118786147E+02  0.66683789231E+02  0.87453364040E+02  0.00000000000E+00 0.  1.
         14    1    6    6    0    0  0.10171250805E-01 -0.92380089303E+02  0.11366711554E+03  0.14647284444E+03  0.00000000000E+00 0. -1.
         -5    1    3    3    0  503 -0.47548836673E+02 -0.11145342647E+02 -0.37736017302E+02  0.61896748973E+02  0.47000000000E+01 0.  1.
         11    1    4    4    0    0  0.19848798526E+02  0.93107411733E+02 -0.23656026706E+02  0.98094711998E+02  0.00000000000E+00 0. -1.
        -12    1    4    4    0    0  0.41326772111E+02  0.16500357800E+02 -0.48390973657E+02  0.65740780587E+02  0.00000000000E+00 0.  1.
</event>
<event>
12    1  0.8358445E-002  0.1786329E+03  0.7818608E-02  0.1170547E+00
         21   -1    0    0  501  502  0.00000000000E+00  0.00000000000E+00  0.13678339667E+04  0.13678339667E+04  0.00000000000E+00 0.  1.
         21   -1    0    0  502  503 -0.00000000000E+00 -0.00000000000E+00 -0.51905388822E+02  0.51905388822E+02  0.00000000000E+00 0.  1.
         -6    2    1    2    0  503 -0.28529866341E+02  0.81942436811E+01  0.12916074376E+03  0.22043644634E+03  0.17614945428E+03 0.  0.
        -24    2    3    3    0    0  0.45537949292E+02  0.37017533033E+02  0.55226363652E+02  0.11178468205E+03  0.77471680767E+02 0.  0.
          6    2    1    2  501    0  0.28529866341E+02 -0.81942436811E+01  0.11867678341E+04  0.11993029092E+04  0.17037745441E+03 0.  0.
         24    2    5    5    0    0 -0.31434061988E+02  0.34436400544E+02  0.80043872568E+03  0.80600236945E+03  0.82241717236E+02 0.  0.
          5    1    5    5  501    0  0.59963928329E+02 -0.42630644225E+02  0.38632910841E+03  0.39330053971E+03  0.47000000000E+01 0. -1.
        -11    1    6    6    0    0 -0.24804245455E+02  0.56231163858E+02  0.37920873932E+03  0.38415682001E+03  0.00000000000E+00 0.  1.
         12    1    6    6    0    0 -0.66298165331E+01 -0.21794763314E+02  0.42122998636E+03  0.42184554944E+03  0.00000000000E+00 0. -1.
         -5    1    3    3    0  503 -0.74067815633E+02 -0.28823289352E+02  0.73934380107E+02  0.10865176429E+03  0.47000000000E+01 0.  1.
         11    1    4    4    0    0  0.24708653081E+02  0.15517511970E+02  0.71846654852E+02  0.77545164441E+02  0.00000000000E+00 0. -1.
        -12    1    4    4    0    0  0.20829296211E+02  0.21500021063E+02 -0.16620291200E+02  0.34239517607E+02  0.00000000000E+00 0.  1.
</event>
<event>
12    1  0.8358445E-002  0.2226108E+03  0.7818608E-02  0.1132124E+00
         21   -1    0    0  501  502  0.00000000000E+00  0.00000000000E+00  0.19573528524E+03  0.19573528524E+03  0.00000000000E+00 0.  1.
         21   -1    0    0  502  503 -0.00000000000E+00 -0.00000000000E+00 -0.87027369587E+03  0.87027369587E+03  0.00000000000E+00 0.  1.
         -6    2    1    2    0  503 -0.14076619133E+03  0.20432621983E+02 -0.78669147782E+03  0.81758121670E+03  0.17123945795E+03 0.  0.
        -24    2    3    3    0    0 -0.74910901480E+02 -0.48122467190E+02 -0.52250146624E+03  0.53676958647E+03  0.84772588298E+02 0.  0.
          6    2    1    2  501    0  0.14076619133E+03 -0.20432621983E+02  0.11215306719E+03  0.24842776441E+03  0.17001597274E+03 0.  0.
         24    2    5    5    0    0  0.74425735266E+02 -0.65827090938E+02  0.11041996780E+03  0.16788704455E+03  0.78237423707E+02 0.  0.
          5    1    5    5  501    0  0.66340456063E+02  0.45394468955E+02  0.17330993967E+01  0.80540719862E+02  0.47000000000E+01 0. -1.
        -13    1    6    6    0    0  0.50182794543E+02 -0.26809416091E+01  0.18045645307E+02  0.53396119996E+02  0.00000000000E+00 0.  1.
         14    1    6    6    0    0  0.24242940723E+02 -0.63146149329E+02  0.92374322489E+02  0.11449092455E+03  0.00000000000E+00 0. -1.
         -5    1    3    3    0  503 -0.65855289849E+02  0.68555089173E+02 -0.26419001158E+03  0.28081163023E+03  0.47000000000E+01 0.  1.
         11    1    4    4    0    0 -0.22842948126E+02 -0.19563547146E+02 -0.39470271112E+03  0.39584689315E+03  0.00000000000E+00 0. -1.
        -12    1    4    4    0    0 -0.52067953354E+02 -0.28558920044E+02 -0.12779875512E+03  0.14092269332E+03  0.00000000000E+00 0.  1.
</event>
<event>
12    1  0.8358445E-002  0.1951345E+03  0.7818608E-02  0.1154336E+00
         21   -1    0    0  501  502  0.00000000000E+00  0.00000000000E+00  0.69998798009E+02  0.69998798009E+02  0.00000000000E+00 0. -1.
         21   -1    0    0  502  503 -0.00000000000E+00 -0.00000000000E+00 -0.54277378217E+03  0.54277378217E+03  0.00000000000E+00 0. -1.
         -6    2    1    2    0  503  0.16734005921E+02 -0.88660639011E+02 -0.21060161078E+03  0.28710717551E+03  0.17302241444E+03 0.  0.
        -24    2    3    3    0    0  0.43516206686E+02 -0.10638925805E+03 -0.10042885685E+03  0.17225198006E+03  0.79827657335E+02 0.  0.
          6    2    1    2  501    0 -0.16734005921E+02  0.88660639011E+02 -0.26217337338E+03  0.32566540467E+03  0.17082839994E+03 0.  0.
         24    2    5    5    0    0  0.50770305166E+02  0.56167702563E+02 -0.10777450378E+03  0.15398627412E+03  0.79774646686E+02 0.  0.
          5    1    5    5  501    0 -0.67504311088E+02  0.32492936448E+02 -0.15439886959E+03  0.17167913055E+03  0.47000000000E+01 0. -1.
        -13    1    6    6    0    0  0.28174243514E+01 -0.16253339640E+02 -0.41726457124E+02  0.44868765902E+02  0.00000000000E+00 0.  1.
         14    1    6    6    0    0  0.47952880815E+02  0.72421042204E+02 -0.66048046660E+02  0.10911750822E+03  0.00000000000E+00 0. -1.
         -5    1    3    3    0  503 -0.26782200764E+02  0.17728619038E+02 -0.11017275394E+03  0.11485519545E+03  0.47000000000E+01 0.  1.
         13    1    4    4    0    0 -0.15326882977E+01 -0.48322137092E+02 -0.84039805239E+02  0.96953942319E+02  0.00000000000E+00 0. -1.
        -14    1    4    4    0    0  0.45048894983E+02 -0.58067120957E+02 -0.16389051607E+02  0.75298037744E+02  0.00000000000E+00 0.  1.
</event>
<event>
12    1  0.8358445E-002  0.1781222E+03  0.7818608E-02  0.1170943E+00
         21   -1    0    0  501  502  0.00000000000E+00  0.00000000000E+00  0.12198130525E+04  0.12198130525E+04  0.00000000000E+00 0.  1.
         21   -1    0    0  502  503 -0.00000000000E+00 -0.00000000000E+00 -0.36656259424E+02  0.36656259424E+02  0.00000000000E+00 0.  1.
         -6    2    1    2    0  503  0.68639182192E+01 -0.28321456280E+02  0.24723734939E+03  0.30471923731E+03  0.17572219095E+03 0.  0.
        -24    2    3    3    0    0 -0.59668519545E+02  0.12131538199E+02  0.13809537271E+03  0.17056607443E+03  0.79466642923E+02 0.  0.
          6    2    1    2  501    0 -0.68639182192E+01  0.28321456280E+02  0.93591944369E+03  0.95175007462E+03  0.17039301984E+03 0.  0.
         24    2    5    5    0    0 -0.52159093785E+02 -0.28269926073E+02  0.50518859341E+03  0.51493730824E+03  0.80157075350E+02 0.  0.
          5    1    5    5  501    0  0.45295175566E+02  0.56591382353E+02  0.43073085028E+03  0.43681276638E+03  0.47000000000E+01 0. -1.
        -11    1    6    6    0    0 -0.72196635459E+02 -0.11664971681E+02  0.39541849543E+03  0.40212462280E+03  0.00000000000E+00 0.  1.
         12    1    6    6    0    0  0.20037541674E+02 -0.16604954393E+02  0.10977009798E+03  0.11281268545E+03  0.00000000000E+00 0. -1.
         -5    1    3    3    0  503  0.66532437764E+02 -0.40452994479E+02  0.10914197668E+03  0.13415316288E+03  0.47000000000E+01 0.  1.
         11    1    4    4    0    0 -0.68874008730E+02  0.23814908661E+02  0.13757296800E+03  0.15568269164E+03  0.00000000000E+00 0. -1.
        -12    1    4    4    0    0  0.92054891855E+01 -0.11683370462E+02  0.52240471602E+00  0.14883382787E+02  0.00000000000E+00 0.  1.
</event>
<event>
12    1  0.8358445E-002  0.1737130E+03  0.7818608E-02  0.1174542E+00
         21   -1    0    0  501  502  0.00000000000E+00  0.00000000000E+00  0.10197374800E+03  0.10197374800E+03  0.00000000000E+00 0. -1.
         21   -1    0    0  502  503 -0.00000000000E+00 -0.00000000000E+00 -0.15982238933E+04  0.15982238933E+04  0.00000000000E+00 0. -1.
         -6    2    1    2    0  503 -0.21769393645E+01 -0.29923840694E+02 -0.15157040198E+04  0.15253987433E+04  0.16906352323E+03 0.  0.
        -24    2    3    3    0    0  0.21359872814E+02  0.26394845646E+02 -0.45379806938E+03  0.46172956839E+03  0.78157370147E+02 0.  0.
          6    2    1    2  501    0  0.21769393645E+01  0.29923840694E+02  0.19453874576E+02  0.17479889800E+03  0.17110238513E+03 0.  0.
         24    2    5    5    0    0  0.67275338765E+02  0.23032964660E+02  0.20281376803E+01  0.10689431727E+03  0.79785920160E+02 0.  0.
          5    1    5    5  501    0 -0.65098399401E+02  0.68908760343E+01  0.17425736896E+02  0.67904580725E+02  0.47000000000E+01 0. -1.
        -13    1    6    6    0    0  0.59515135933E+02  0.26534412115E+02 -0.31446968537E+02  0.72353564263E+02  0.00000000000E+00 0.  1.
         14    1    6    6    0    0  0.77602028324E+01 -0.35014474555E+01  0.33475106217E+02  0.34540753010E+02  0.00000000000E+00 0. -1.
         -5    1    3    3    0  503 -0.23536812179E+02 -0.56318686339E+02 -0.10619059505E+04  0.10636691749E+04  0.47000000000E+01 0.  1.
         13    1    4    4    0    0 -0.45779662419E+01 -0.13360944457E+02 -0.30954409780E+03  0.30986613415E+03  0.00000000000E+00 0. -1.
        -14    1    4    4    0    0  0.25937839056E+02  0.39755790102E+02 -0.14425397158E+03  0.15186343424E+03  0.00000000000E+00 0.  1.
</event>
<event>
12    1  0.8358445E-002  0.2035298E+03  0.7818608E-02  0.1147018E+00
         21   -1    0    0  501  502  0.00000000000E+00  0.00000000000E+00  0.12409698771E+03  0.12409698771E+03  0.00000000000E+00 0. -1.
         21   -1    0    0  502  503 -0.00000000000E+00 -0.00000000000E+00 -0.65678409236E+03  0.65678409236E+03  0.00000000000E+00 0.  1.
         -6    2    1    2    0  503 -0.10541899673E+03  0.27134985738E+02 -0.54053058536E+03  0.57720021828E+03  0.17069653176E+03 0.  0.
        -24    2    3    3    0    0 -0.13197937487E+03  0.25203850190E+02 -0.33208915840E+03  0.36701196589E+03  0.79754526663E+02 0.  0.
          6    2    1    2  501    0  0.10541899673E+03 -0.27134985738E+02  0.78434807082E+01  0.20368086180E+03  0.17197354724E+03 0.  0.
         24    2    5    5    0    0  0.92366049502E+02  0.34197506294E+02 -0.30111960646E+02  0.13023183499E+03  0.79703476303E+02 0.  0.
          5    1    5    5  501    0  0.13052947224E+02 -0.61332492032E+02  0.37955441354E+02  0.73449026804E+02  0.47000000000E+01 0. -1.
        -13    1    6    6    0    0  0.57456358119E+02 -0.20734198203E+02 -0.86143284127E+01  0.61687492390E+02  0.00000000000E+00 0.  1.
         14    1    6    6    0    0  0.34909691383E+02  0.54931704497E+02 -0.21497632234E+02  0.68544342604E+02  0.00000000000E+00 0. -1.
         -5    1    3    3    0  503  0.26560378142E+02  0.19311355471E+01 -0.20844142695E+03  0.21018825239E+03  0.47000000000E+01 0.  1.
         13    1    4    4    0    0 -0.30022674214E+02  0.42964556224E+02 -0.10037226381E+03  0.11323385272E+03  0.00000000000E+00 0. -1.
        -14    1    4    4    0    0 -0.10195670065E+03 -0.17760706033E+02 -0.23171689459E+03  0.25377811317E+03  0.00000000000E+00 0.  1.
</event>
<event>
12    1  0.8358445E-002  0.1773181E+03  0.7818608E-02  0.1170539E+00
         21   -1    0    0  503  502  0.00000000000E+00  0.00000000000E+00  0.17969276114E+04  0.17969276114E+04  0.00000000000E+00 0. -1.
         21   -1    0    0  501  503 -0.00000000000E+00 -0.00000000000E+00 -0.17946144887E+02  0.17946144887E+02  0.00000000000E+00 0. -1.
          6    2    1    2  501    0  0.31815471721E+02 -0.25521522400E+02  0.10389832955E+04  0.10539276315E+04  0.17208600124E+03 0.  0.
         24    2    3    3    0    0  0.61152823207E+00  0.49524220958E+02  0.62039784901E+03  0.62749895555E+03  0.80052643479E+02 0.  0.
         -6    2    1    2    0  502 -0.31815471721E+02  0.25521522400E+02  0.73999817108E+03  0.76094612483E+03  0.17256343569E+03 0.  0.
        -24    2    5    5    0    0 -0.67600578408E+02  0.18068144169E+02  0.69509708998E+03  0.70285719480E+03  0.77149048917E+02 0.  0.
          5    1    3    3  501    0  0.31203943489E+02 -0.75045743359E+02  0.41858544646E+03  0.42642867595E+03  0.47000000000E+01 0. -1.
        -13    1    4    4    0    0 -0.96389092146E+01 -0.36467049855E+01  0.89250740084E+01  0.13633193835E+02  0.00000000000E+00 0.  1.
         14    1    4    4    0    0  0.10250437447E+02  0.53170925944E+02  0.61147277500E+03  0.61386576171E+03  0.00000000000E+00 0. -1.
         -5    1    5    5    0  502  0.35785106687E+02  0.74533782311E+01  0.44901081108E+02  0.58088930033E+02  0.47000000000E+01 0.  1.
         13    1    6    6    0    0 -0.56219790712E+02  0.36009332855E+02  0.30684422631E+03  0.31402343247E+03  0.00000000000E+00 0. -1.
        -14    1    6    6    0    0 -0.11380787696E+02 -0.17941188686E+02  0.38825286366E+03  0.38883376232E+03  0.00000000000E+00 0.  1.
</event>
<event>
12    1  0.8358445E-002  0.2821653E+03  0.7818608E-02  0.1094548E+00
         21   -1    0    0  501  502  0.00000000000E+00  0.00000000000E+00  0.42386905596E+03  0.42386905596E+03  0.00000000000E+00 0.  1.
         21   -1    0    0  502  503 -0.00000000000E+00 -0.00000000000E+00 -0.23866698994E+03  0.23866698994E+03  0.00000000000E+00 0.  1.
         -6    2    1    2    0  503  0.20020001208E+03 -0.99066869471E+02 -0.60582013658E+02  0.28833412394E+03  0.17196539531E+03 0.  0.
        -24    2    3    3    0    0  0.27613486406E+02 -0.34893995795E+02 -0.43842943020E+02  0.10338398729E+03  0.82376875407E+02 0.  0.
          6    2    1    2  501    0 -0.20020001208E+03  0.99066869471E+02  0.24578407968E+03  0.37420192196E+03  0.17240352406E+03 0.  0.
         24    2    5    5    0    0 -0.15054573642E+03  0.11723022725E+02  0.20114098373E+03  0.26415833663E+03  0.80749510579E+02 0.  0.
          5    1    5    5  501    0 -0.49654275654E+02  0.87343846746E+02  0.44643095945E+02  0.11004358532E+03  0.47000000000E+01 0. -1.
        -11    1    6    6    0    0 -0.19552261163E+02 -0.24532592904E+02  0.62913823974E+02  0.70301410214E+02  0.00000000000E+00 0.  1.
         12    1    6    6    0    0 -0.13099347526E+03  0.36255615629E+02  0.13822715976E+03  0.19385692642E+03  0.00000000000E+00 0. -1.
         -5    1    3    3    0  503  0.17258652567E+03 -0.64172873676E+02 -0.16739070638E+02  0.18495013664E+03  0.47000000000E+01 0.  1.
         13    1    4    4    0    0  0.41915011357E+02 -0.49059319850E+02 -0.11880606208E+02  0.65611232614E+02  0.00000000000E+00 0. -1.
        -14    1    4    4    0    0 -0.14301524952E+02  0.14165324055E+02 -0.31962336812E+02  0.37772754678E+02  0.00000000000E+00 0.  1.
</event>
<event>
12    1  0.8358445E-002  0.2699135E+03  0.7818608E-02  0.1101415E+00
         21   -1    0    0  501  502  0.00000000000E+00  0.00000000000E+00  0.74668607417E+02  0.74668607417E+02  0.00000000000E+00 0. -1.
         21   -1    0    0  502  503 -0.00000000000E+00 -0.00000000000E+00 -0.99845913611E+03  0.99845913611E+03  0.00000000000E+00 0. -1.
         -6    2    1    2    0  503 -0.13993137415E+03 -0.15335438549E+03 -0.54620110713E+03  0.60898652185E+03  0.17155342417E+03 0.  0.
        -24    2    3    3    0    0 -0.16042523223E+03 -0.10969995750E+03 -0.49817880794E+03  0.54076674084E+03  0.80474887423E+02 0.  0.
          6    2    1    2  501    0  0.13993137415E+03  0.15335438549E+03 -0.37758942156E+03  0.46414122167E+03  0.17249621839E+03 0.  0.
         24    2    5    5    0    0  0.71832446601E+02  0.25919498229E+02 -0.91856826611E+02  0.14391892351E+03  0.80269914510E+02 0.  0.
          5    1    5    5  501    0  0.68098927553E+02  0.12743488726E+03 -0.28573259495E+03  0.32022229816E+03  0.47000000000E+01 0. -1.
        -13    1    6    6    0    0  0.92348549689E+00 -0.83337547453E+01 -0.57319345229E+02  0.57929367605E+02  0.00000000000E+00 0.  1.
         14    1    6    6    0    0  0.70908961104E+02  0.34253252975E+02 -0.34537481382E+02  0.85989555903E+02  0.00000000000E+00 0. -1.
         -5    1    3    3    0  503  0.20493858074E+02 -0.43654427993E+02 -0.48022299192E+02  0.68219781016E+02  0.47000000000E+01 0.  1.
         13    1    4    4    0    0 -0.25643583021E+02 -0.62474833006E+02 -0.16011261160E+03  0.17377211083E+03  0.00000000000E+00 0. -1.
        -14    1    4    4    0    0 -0.13478164921E+03 -0.47225124493E+02 -0.33806619634E+03  0.36699463001E+03  0.00000000000E+00 0.  1.
</event>
<event>
12    1  0.8358445E-002  0.2078978E+03  0.7818608E-02  0.1143380E+00
         21   -1    0    0  503  502  0.00000000000E+00  0.00000000000E+00  0.24833398707E+02  0.24833398707E+02  0.00000000000E+00 0.  1.
         21   -1    0    0  501  503 -0.00000000000E+00 -0.00000000000E+00 -0.25151478928E+04  0.25151478928E+04  0.00000000000E+00 0.  1.
          6    2    1    2  501    0  0.97012336091E+02 -0.62240732079E+02 -0.19540339273E+04  0.19650623619E+04  0.17302079372E+03 0.  0.
         24    2    3    3    0    0  0.76225869631E+02  0.91529324131E+01 -0.66165887500E+03  0.67054140869E+03  0.77065910267E+02 0.  0.
         -6    2    1    2    0  502 -0.97012336091E+02  0.62240732079E+02 -0.53628056679E+03  0.57491892960E+03  0.17219067109E+03 0.  0.
        -24    2    5    5    0    0 -0.10379849540E+02  0.87527840769E+02 -0.30269544793E+03  0.32446190066E+03  0.76695023276E+02 0.  0.
          5    1    3    3  501    0  0.20786466460E+02 -0.71393664492E+02 -0.12923750523E+04  0.12945209532E+04  0.47000000000E+01 0. -1.
        -11    1    4    4    0    0 -0.82129942178E+01 -0.23044491776E+01 -0.25050097034E+03  0.25064616475E+03  0.00000000000E+00 0.  1.
         12    1    4    4    0    0  0.84438863849E+02  0.11457381591E+02 -0.41115790466E+03  0.41989524394E+03  0.00000000000E+00 0. -1.
         -5    1    5    5    0  502 -0.86632486551E+02 -0.25287108690E+02 -0.23358511886E+03  0.25045702894E+03  0.47000000000E+01 0.  1.
         11    1    6    6    0    0  0.30486506638E+02  0.25463628736E+02 -0.73865960163E+02  0.83868966527E+02  0.00000000000E+00 0. -1.
        -12    1    6    6    0    0 -0.40866356178E+02  0.62064212034E+02 -0.22882948777E+03  0.24059293413E+03  0.00000000000E+00 0.  1.
</event>
<event>
12    1  0.8358445E-002  0.1844272E+03  0.7818608E-02  0.1163660E+00
         21   -1    0    0  503  502  0.00000000000E+00  0.00000000000E+00  0.82997466016E+02  0.82997466016E+02  0.00000000000E+00 0. -1.
         21   -1    0    0  501  503 -0.00000000000E+00 -0.00000000000E+00 -0.11415726117E+04  0.11415726117E+04  0.00000000000E+00 0. -1.
          6    2    1    2  501    0  0.55733037320E+02  0.35460719298E+02 -0.10195745921E+04  0.10360642833E+04  0.17185230940E+03 0.  0.
         24    2    3    3    0    0  0.75930328238E+02 -0.76276505292E+01 -0.42380004794E+03  0.43837378176E+03  0.82106614270E+02 0.  0.
         -6    2    1    2    0  502 -0.55733037320E+02 -0.35460719298E+02 -0.39000553562E+02  0.18850579438E+03  0.17219104876E+03 0.  0.
        -24    2    5    5    0    0 -0.10169458414E+03 -0.13728289448E+02 -0.22680627474E+02  0.13490362762E+03  0.84583234196E+02 0.  0.
          5    1    3    3  501    0 -0.20197290919E+02  0.43088369827E+02 -0.59577454418E+03  0.59769050157E+03  0.47000000000E+01 0. -1.
        -11    1    4    4    0    0  0.30290011900E+02 -0.43414895964E+02 -0.17102571043E+03  0.17903109127E+03  0.00000000000E+00 0.  1.
         12    1    4    4    0    0  0.45640316338E+02  0.35787245434E+02 -0.25277433750E+03  0.25934269049E+03  0.00000000000E+00 0. -1.
         -5    1    5    5    0  502  0.45961546824E+02 -0.21732429850E+02 -0.16319926088E+02  0.53602166758E+02  0.47000000000E+01 0.  1.
         13    1    6    6    0    0 -0.70016076945E+02 -0.44110181111E+02  0.51813173609E+01  0.82914444809E+02  0.00000000000E+00 0. -1.
        -14    1    6    6    0    0 -0.31678507199E+02  0.30381891663E+02 -0.27861944835E+02  0.51989182811E+02  0.00000000000E+00 0.  1.
</event>
<event>
12    1  0.8358445E-002  0.1894488E+03  0.7818608E-02  0.1159167E+00
         21   -1    0    0  501  502  0.00000000000E+00  0.00000000000E+00  0.10742812211E+04  0.10742812211E+04  0.00000000000E+00 0. -1.
         21   -1    0    0  502  503 -0.00000000000E+00 -0.00000000000E+00 -0.75628116964E+02  0.75628116964E+02  0.00000000000E+00 0. -1.
         -6    2    1    2    0  503  0.80619905336E+02 -0.13844401409E+02  0.68395205430E+02  0.20055660908E+03  0.16986410078E+03 0.  0.
        -24    2    3    3    0    0  0.65419500128E+02  0.54852776266E+02  0.34914288285E+02  0.12249627119E+03  0.80608875865E+02 0.  0.
          6    2    1    2  501    0 -0.80619905336E+02  0.13844401409E+02  0.93025789868E+03  0.94935272896E+03  0.17087893180E+03 0.  0.
         24    2    5    5    0    0 -0.53888272025E+02 -0.53276463241E+02  0.44497189049E+03  0.45869562828E+03  0.81604955041E+02 0.  0.
          5    1    5    5  501    0 -0.26731633310E+02  0.67120864649E+02  0.48528600819E+03  0.49065710067E+03  0.47000000000E+01 0. -1.
        -11    1    6    6    0    0  0.54040846674E+01  0.16045245361E+02  0.37608663387E+02  0.41243976427E+02  0.00000000000E+00 0.  1.
         12    1    6    6    0    0 -0.59292356693E+02 -0.69321708601E+02  0.40736322710E+03  0.41745165186E+03  0.00000000000E+00 0. -1.
         -5    1    3    3    0  503  0.15200405207E+02 -0.68697177675E+02  0.33480917145E+02  0.78060337892E+02  0.47000000000E+01 0.  1.
         11    1    4    4    0    0  0.72471234432E+02  0.31556623507E+02 -0.10726433191E+01  0.79050938457E+02  0.00000000000E+00 0. -1.
        -12    1    4    4    0    0 -0.70517343041E+01  0.23296152759E+02  0.35986931604E+02  0.43445332734E+02  0.00000000000E+00 0.  1.
</event>
<event>
12    1  0.8358445E-002  0.1751008E+03  0.7818608E-02  0.1173480E+00
         21   -1    0    0  503  502  0.00000000000E+00  0.00000000000E+00  0.59467550094E+02  0.59467550094E+02  0.00000000000E+00 0.  1.
         21   -1    0    0  501  503 -0.00000000000E+00 -0.00000000000E+00 -0.82034136986E+03  0.82034136986E+03  0.00000000000E+00 0.  1.
          6    2    1    2  501    0 -0.15192887065E+02 -0.21733632146E+02 -0.65510869760E+03  0.67810594961E+03  0.17308119091E+03 0.  0.
         24    2    3    3    0    0  0.22950906585E+02  0.42405143158E+02 -0.26779374567E+03  0.28363960951E+03  0.80081193672E+02 0.  0.
         -6    2    1    2    0  502  0.15192887065E+02  0.21733632146E+02 -0.10576512216E+03  0.20170297034E+03  0.16968987181E+03 0.  0.
        -24    2    5    5    0    0 -0.55144968363E+02  0.89924944074E+01 -0.94204756861E+02  0.12913932556E+03  0.68414886540E+02 0.  0.
          5    1    3    3  501    0 -0.38143793651E+02 -0.64138775304E+02 -0.38731495192E+03  0.39446634010E+03  0.47000000000E+01 0. -1.
        -13    1    4    4    0    0 -0.18486966900E+02 -0.14003226870E+02 -0.57367530027E+02  0.61878039798E+02  0.00000000000E+00 0.  1.
         14    1    4    4    0    0  0.41437873485E+02  0.56408370027E+02 -0.21042621565E+03  0.22176156971E+03  0.00000000000E+00 0. -1.
         -5    1    5    5    0  502  0.70337855428E+02  0.12741137739E+02 -0.11560365302E+02  0.72563644775E+02  0.47000000000E+01 0.  1.
         13    1    6    6    0    0 -0.28836807172E+02  0.38626936128E+02 -0.44819377954E+02  0.65820804330E+02  0.00000000000E+00 0. -1.
        -14    1    6    6    0    0 -0.26308161190E+02 -0.29634441720E+02 -0.49385378907E+02  0.63318521233E+02  0.00000000000E+00 0.  1.
</event>
<event>
12    1  0.8358445E-002  0.2150226E+03  0.7818608E-02  0.1137763E+00
         21   -1    0    0  501  502  0.00000000000E+00  0.00000000000E+00  0.89533314902E+02  0.89533314902E+02  0.00000000000E+00 0. -1.
         21   -1    0    0  502  503 -0.00000000000E+00 -0.00000000000E+00 -0.52159112619E+03  0.52159112619E+03  0.00000000000E+00 0.  1.
         -6    2    1    2    0  503  0.12290751392E+03  0.36511382441E+02 -0.25014682213E+03  0.32947517910E+03  0.17187531236E+03 0.  0.
        -24    2    3    3    0    0  0.80695126148E+02  0.73328626633E+02 -0.24064545181E+03  0.27246850240E+03  0.66633778608E+02 0.  0.
          6    2    1    2  501    0 -0.12290751392E+03 -0.36511382441E+02 -0.18191098916E+03  0.28164926198E+03  0.17261332733E+03 0.  0.
         24    2    5    5    0    0 -0.12851575031E+03 -0.42250330968E+02 -0.20401091028E+03  0.25767251577E+03  0.80456729527E+02 0.  0.
          5    1    5    5  501    0  0.56082363904E+01  0.57389485262E+01  0.22099921118E+02  0.23976746214E+02  0.47000000000E+01 0. -1.
        -13    1    6    6    0    0 -0.66919789430E+02 -0.41621264702E+02 -0.54073472848E+02  0.95574726568E+02  0.00000000000E+00 0.  1.
         14    1    6    6    0    0 -0.61595960883E+02 -0.62906626518E+00 -0.14993743743E+03  0.16209778920E+03  0.00000000000E+00 0. -1.
         -5    1    3    3    0  503  0.42212387774E+02 -0.36817244191E+02 -0.95013703118E+01  0.57006676708E+02  0.47000000000E+01 0.  1.
         13    1    4    4    0    0  0.69335859599E+01  0.77465765905E+01  0.19370975088E+01  0.10575273514E+02  0.00000000000E+00 0. -1.
        -14    1    4    4    0    0  0.73761540188E+02  0.65582050042E+02 -0.24258254932E+03  0.26189322888E+03  0.00000000000E+00 0.  1.
</event>
<event>
12    1  0.8358445E-002  0.1917976E+03  0.7818608E-02  0.1157095E+00
         21   -1    0    0  501  502  0.00000000000E+00  0.00000000000E+00  0.13018362744E+04  0.13018362744E+04  0.00000000000E+00 0.  1.
         21   -1    0    0  502  503 -0.00000000000E+00 -0.00000000000E+00 -0.29644100403E+02  0.29644100403E+02  0.00000000000E+00 0.  1.
         -6    2    1    2    0  503  0.82188052016E+02  0.20116454631E+02  0.48222271632E+03  0.51856091278E+03  0.17090092008E+03 0.  0.
        -24    2    3    3    0    0  0.27255474418E+02  0.31141252149E+02  0.11253249919E+03  0.14461963278E+03  0.80861834887E+02 0.  0.
          6    2    1    2  501    0 -0.82188052016E+02 -0.20116454631E+02  0.78996945765E+03  0.81291946200E+03  0.17212425754E+03 0.  0.
         24    2    5    5    0    0 -0.74254469219E+02 -0.44358777293E+02  0.30281106633E+03  0.32507110423E+03  0.80593136127E+02 0.  0.
          5    1    5    5  501    0 -0.79335827971E+01  0.24242322662E+02  0.48715839132E+03  0.48784835777E+03  0.47000000000E+01 0. -1.
        -13    1    6    6    0    0 -0.51079344965E+02 -0.44154529950E+02  0.29162077885E+03  0.29933493056E+03  0.00000000000E+00 0.  1.
         14    1    6    6    0    0 -0.23175124254E+02 -0.20424734389E+00  0.11190287481E+02  0.25736173668E+02  0.00000000000E+00 0. -1.
         -5    1    3    3    0  503  0.54932577598E+02 -0.11024797518E+02  0.36969021714E+03  0.37394128000E+03  0.47000000000E+01 0.  1.
         13    1    4    4    0    0 -0.63092465441E+01  0.48786271470E+02  0.42628993969E+02  0.65093302287E+02  0.00000000000E+00 0. -1.
        -14    1    4    4    0    0  0.33564720962E+02 -0.17645019320E+02  0.69903505216E+02  0.79526330492E+02  0.00000000000E+00 0.  1.
</event>
<event>
12    1  0.8358445E-002  0.2015007E+03  0.7818608E-02  0.1148842E+00
         21   -1    0    0  503  502  0.00000000000E+00  0.00000000000E+00  0.26897528908E+03  0.26897528908E+03  0.00000000000E+00 0. -1.
         21   -1    0    0  501  503 -0.00000000000E+00 -0.00000000000E+00 -0.57986309211E+03  0.57986309211E+03  0.00000000000E+00 0.  1.
          6    2    1    2  501    0  0.10103168456E+03 -0.18490149855E+02 -0.52083906171E+03  0.55783658560E+03  0.17134480181E+03 0.  0.
         24    2    3    3    0    0  0.13005610538E+02 -0.41441890727E+02 -0.37452248872E+03  0.38548229454E+03  0.80267855542E+02 0.  0.
         -6    2    1    2    0  502 -0.10103168456E+03  0.18490149855E+02  0.20995125867E+03  0.29100179559E+03  0.17335866605E+03 0.  0.
        -24    2    5    5    0    0 -0.12503343384E+03  0.18226922650E+02  0.21973834830E+03  0.26465733923E+03  0.76111662761E+02 0.  0.
          5    1    3    3  501    0  0.88026074023E+02  0.22951740872E+02 -0.14631657298E+03  0.17235429106E+03  0.47000000000E+01 0. -1.
        -13    1    4    4    0    0  0.37142595420E+02 -0.29679245331E+02 -0.33061179911E+03  0.33401286159E+03  0.00000000000E+00 0.  1.
         14    1    4    4    0    0 -0.24136984882E+02 -0.11762645396E+02 -0.43910689615E+02  0.51469432952E+02  0.00000000000E+00 0. -1.
         -5    1    5    5    0  502  0.24001749284E+02  0.26322720466E+00 -0.97870896331E+01  0.26344456357E+02  0.47000000000E+01 0.  1.
         13    1    6    6    0    0 -0.88873518032E+02  0.21386884794E+02  0.20683546772E+03  0.22613449926E+03  0.00000000000E+00 0. -1.
        -14    1    6    6    0    0 -0.36159915813E+02 -0.31599621434E+01  0.12902880580E+02  0.38522839973E+02  0.00000000000E+00 0.  1.
</event>
<event>
12    1  0.8358445E-002  0.1938094E+03  0.7818608E-02  0.1155346E+00
         21   -1    0    0  501  502  0.00000000000E+00  0.00000000000E+00  0.31612491652E+03  0.31612491652E+03  0.00000000000E+00 0. -1.
         21   -1    0    0  502  503 -0.00000000000E+00 -0.00000000000E+00 -0.11813544019E+03  0.11813544019E+03  0.00000000000E+00 0. -1.
         -6    2    1    2    0  503  0.50121087708E+02  0.70558007471E+02  0.92942593348E+02  0.21381328152E+03  0.17200941208E+03 0.  0.
        -24    2    3    3    0    0  0.62770909990E+02  0.13506615157E+02  0.11259520640E+03  0.15198129490E+03  0.79360051040E+02 0.  0.
          6    2    1    2  501    0 -0.50121087708E+02 -0.70558007471E+02  0.10504688299E+03  0.22044707519E+03  0.17341138799E+03 0.  0.
         24    2    5    5    0    0 -0.23089593960E+02 -0.59937050893E+02 -0.92788533091E+01  0.10239636426E+03  0.79204411970E+02 0.  0.
          5    1    5    5  501    0 -0.27031493747E+02 -0.10620956577E+02  0.11432573630E+03  0.11805071094E+03  0.47000000000E+01 0. -1.
        -11    1    6    6    0    0  0.16743042270E+02 -0.15693998166E+02 -0.31395687490E+02  0.38888561762E+02  0.00000000000E+00 0.  1.
         12    1    6    6    0    0 -0.39832636230E+02 -0.44243052727E+02  0.22116834181E+02  0.63507802496E+02  0.00000000000E+00 0. -1.
         -5    1    3    3    0  503 -0.12649822282E+02  0.57051392314E+02 -0.19652613056E+02  0.61831986614E+02  0.47000000000E+01 0.  1.
         13    1    4    4    0    0 -0.72705486576E+01  0.18968854505E+02  0.62438765188E+02  0.65660320721E+02  0.00000000000E+00 0. -1.
        -14    1    4    4    0    0  0.70041458647E+02 -0.54622393482E+01  0.50156441216E+02  0.86320974181E+02  0.00000000000E+00 0.  1.
</event>
<event>
12    1  0.8358445E-002  0.2352448E+03  0.7818608E-02  0.1124257E+00
         21   -1    0    0  501  502  0.00000000000E+00  0.00000000000E+00  0.13582764027E+04  0.13582764027E+04  0.00000000000E+00 0.  1.
         21   -1    0    0  502  503 -0.00000000000E+00 -0.00000000000E+00 -0.46092860772E+02  0.46092860772E+02  0.00000000000E+00 0. -1.
         -6    2    1    2    0  503 -0.14729710401E+03 -0.54522051504E+02  0.38180541719E+03  0.44471121408E+03  0.16529850692E+03 0.  0.
        -24    2    3    3    0    0 -0.34641400376E+02 -0.33086573858E+02  0.26588553252E+03  0.28158458559E+03  0.79372630346E+02 0.  0.
          6    2    1    2  501    0  0.14729710401E+03  0.54522051504E+02  0.93037812473E+03  0.95965804938E+03  0.17513145295E+03 0.  0.
         24    2    5    5    0    0  0.64791031515E+02  0.39361409716E+02  0.23943519939E+03  0.26362549760E+03  0.80137319263E+02 0.  0.
          5    1    5    5  501    0  0.82506072491E+02  0.15160641787E+02  0.69094292535E+03  0.69603255178E+03  0.47000000000E+01 0. -1.
        -13    1    6    6    0    0  0.97041393213E+01  0.25069396317E+02  0.17745881534E+03  0.17948335882E+03  0.00000000000E+00 0.  1.
         14    1    6    6    0    0  0.55086892194E+02  0.14292013399E+02  0.61976384050E+02  0.84142138780E+02  0.00000000000E+00 0. -1.
         -5    1    3    3    0  503 -0.11265570363E+03 -0.21435477646E+02  0.11591988466E+03  0.16312662849E+03  0.47000000000E+01 0.  1.
         11    1    4    4    0    0  0.16124919353E+02  0.14585895373E+01  0.11414968340E+02  0.19810149161E+02  0.00000000000E+00 0. -1.
        -12    1    4    4    0    0 -0.50766319729E+02 -0.34545163395E+02  0.25447056418E+03  0.26177443643E+03  0.00000000000E+00 0.  1.
</event>
<event>
12    1  0.8358445E-002  0.2049167E+03  0.7818608E-02  0.1146195E+00
         21   -1    0    0  503  502  0.00000000000E+00  0.00000000000E+00  0.64392262516E+03  0.64392262516E+03  0.00000000000E+00 0. -1.
         21   -1    0    0  501  503 -0.00000000000E+00 -0.00000000000E+00 -0.70710268154E+02  0.70710268154E+02  0.00000000000E+00 0. -1.
          6    2    1    2  501    0  0.10288944205E+03 -0.28566684047E+02  0.17801202191E+03  0.26946532631E+03  0.17181673207E+03 0.  0.
         24    2    3    3    0    0  0.36773023614E+02 -0.58730838459E+02  0.16409173735E+03  0.19532275203E+03  0.80145570962E+02 0.  0.
         -6    2    1    2    0  502 -0.10288944205E+03  0.28566684047E+02  0.39520033510E+03  0.44516756700E+03  0.17489586938E+03 0.  0.
        -24    2    5    5    0    0 -0.10785151497E+03 -0.12187020679E+02  0.16850371213E+03  0.21473550438E+03  0.77054286620E+02 0.  0.
          5    1    3    3  501    0  0.66116418434E+02  0.30164154412E+02  0.13920284558E+02  0.74142574275E+02  0.47000000000E+01 0. -1.
        -11    1    4    4    0    0 -0.24149893069E+02 -0.29912876102E+02  0.55411503114E+02  0.67442065280E+02  0.00000000000E+00 0.  1.
         12    1    4    4    0    0  0.60922916684E+02 -0.28817962357E+02  0.10868023423E+03  0.12788068675E+03  0.00000000000E+00 0. -1.
         -5    1    5    5    0  502  0.49620729241E+01  0.40753704726E+02  0.22669662297E+03  0.23043206262E+03  0.47000000000E+01 0.  1.
         11    1    6    6    0    0 -0.56219260280E+02  0.31384102969E+02  0.96415136580E+02  0.11593724901E+03  0.00000000000E+00 0. -1.
        -12    1    6    6    0    0 -0.51632254693E+02 -0.43571123648E+02  0.72088575545E+02  0.98798255373E+02  0.00000000000E+00 0.  1.
</event>
<event>
12    1  0.8358445E-002  0.2016088E+03  0.7818608E-02  0.1150150E+00
         21   -1    0    0  501  502  0.00000000000E+00  0.00000000000E+00  0.37661599837E+03  0.37661599837E+03  0.00000000000E+00 0.  1.
         21   -1    0    0  502  503 -0.00000000000E+00 -0.00000000000E+00 -0.15217034303E+03  0.15217034303E+03  0.00000000000E+00 0. -1.
         -6    2    1    2    0  503  0.59037641465E+01  0.67832752368E+02  0.26324129673E+03  0.33157517771E+03  0.18976296120E+03 0.  0.
        -24    2    3    3    0    0 -0.21536811495E+02  0.98843253305E+02  0.25991055005E+03  0.28976823769E+03  0.78602255530E+02 0.  0.
          6    2    1    2  501    0 -0.59037641465E+01 -0.67832752368E+02 -0.38795641385E+02  0.19721116369E+03  0.18097238620E+03 0.  0.
         24    2    5    5    0    0  0.20821286856E+02 -0.72233491604E+02  0.37554927534E+02  0.11606257016E+03  0.80055882451E+02 0.  0.
          5    1    5    5  501    0 -0.26725051002E+02  0.44007392357E+01 -0.76350568919E+02  0.81148593526E+02  0.47000000000E+01 0. -1.
        -13    1    6    6    0    0 -0.14876336937E+02 -0.26211385991E+02 -0.18386872565E+02  0.35304663133E+02  0.00000000000E+00 0.  1.
         14    1    6    6    0    0  0.35697623793E+02 -0.46022105613E+02  0.55941800099E+02  0.80757907029E+02  0.00000000000E+00 0. -1.
         -5    1    3    3    0  503  0.27440575641E+02 -0.31010500937E+02  0.33307466746E+01  0.41806940014E+02  0.47000000000E+01 0.  1.
         13    1    4    4    0    0  0.22515189589E+02  0.73200995257E+02  0.14265131917E+03  0.16190959925E+03  0.00000000000E+00 0. -1.
        -14    1    4    4    0    0 -0.44052001084E+02  0.25642258048E+02  0.11725923088E+03  0.12785863844E+03  0.00000000000E+00 0.  1.
</event>
<event>
12    1  0.8358445E-002  0.1997836E+03  0.7818608E-02  0.1150161E+00
         21   -1    0    0  501  502  0.00000000000E+00  0.00000000000E+00  0.11684220316E+03  0.11684220316E+03  0.00000000000E+00 0. -1.
         21   -1    0    0  502  503 -0.00000000000E+00 -0.00000000000E+00 -0.36105334218E+03  0.36105334218E+03  0.00000000000E+00 0. -1.
         -6    2    1    2    0  503  0.29838828171E+02  0.92852841788E+02 -0.64280481209E+02  0.20987008482E+03  0.17436016272E+03 0.  0.
        -24    2    3    3    0    0  0.40123904665E+02  0.13156421547E+03 -0.54128942725E+02  0.16828286341E+03  0.80436988741E+02 0.  0.
          6    2    1    2  501    0 -0.29838828171E+02 -0.92852841788E+02 -0.17993065781E+03  0.26802546052E+03  0.17306241640E+03 0.  0.
         24    2    5    5    0    0 -0.62885541671E+02 -0.87605981524E+02 -0.18947433176E+03  0.23291440061E+03  0.81970703697E+02 0.  0.
          5    1    5    5  501    0  0.33046713499E+02 -0.52468602637E+01  0.95436739484E+01  0.35111059912E+02  0.47000000000E+01 0. -1.
        -11    1    6    6    0    0 -0.61403537501E+02 -0.44850411737E+02 -0.16934689919E+03  0.18563492699E+03  0.00000000000E+00 0.  1.
         12    1    6    6    0    0 -0.14820041693E+01 -0.42755569787E+02 -0.20127432565E+02  0.47279473620E+02  0.00000000000E+00 0. -1.
         -5    1    3    3    0  503 -0.10285076494E+02 -0.38711373686E+02 -0.10151538484E+02  0.41587221411E+02  0.47000000000E+01 0.  1.
         11    1    4    4    0    0  0.61281401590E+02  0.69206854730E+02 -0.22034846486E+02  0.95029118601E+02  0.00000000000E+00 0. -1.
        -12    1    4    4    0    0 -0.21157496924E+02  0.62357360743E+02 -0.32094096238E+02  0.73253744808E+02  0.00000000000E+00 0.  1.
</event>
<event>
12    1  0.8358445E-002  0.3179992E+03  0.7818608E-02  0.1076763E+00
         21   -1    0    0  501  502  0.00000000000E+00  0.00000000000E+00  0.21577720011E+03  0.21577720011E+03  0.00000000000E+00 0.  1.
         21   -1    0    0  502  503 -0.00000000000E+00 -0.00000000000E+00 -0.49942324801E+03  0.49942324801E+03  0.00000000000E+00 0. -1.
         -6    2    1    2    0  503  0.23105765765E+03  0.12836704447E+03 -0.49319132951E+02  0.32019086535E+03  0.17385072366E+03 0.  0.
        -24    2    3    3    0    0  0.24941242520E+03  0.96549575536E+02 -0.40669881871E+02  0.28216260790E+03  0.80207977314E+02 0.  0.
          6    2    1    2  501    0 -0.23105765765E+03 -0.12836704447E+03 -0.23432691495E+03  0.39500958277E+03  0.17679855245E+03 0.  0.
         24    2    5    5    0    0 -0.12630972149E+03 -0.34232270524E+01 -0.14901315518E+03  0.21093455664E+03  0.79514794486E+02 0.  0.
          5    1    5    5  501    0 -0.10474793616E+03 -0.12494381741E+03 -0.85313759770E+02  0.18407502614E+03  0.47000000000E+01 0. -1.
        -11    1    6    6    0    0 -0.58838078305E+02 -0.15577827186E+02 -0.18675730872E+02  0.63666090520E+02  0.00000000000E+00 0.  1.
         12    1    6    6    0    0 -0.67471643181E+02  0.12154600134E+02 -0.13033742430E+03  0.14726846612E+03  0.00000000000E+00 0. -1.
         -5    1    3    3    0  503 -0.18354767549E+02  0.31817468930E+02 -0.86492510804E+01  0.38028257456E+02  0.47000000000E+01 0.  1.
         11    1    4    4    0    0  0.14732467563E+03  0.92336219771E+02 -0.45992150594E+02  0.17984942438E+03  0.00000000000E+00 0. -1.
        -12    1    4    4    0    0  0.10208774957E+03  0.42133557653E+01  0.53222687226E+01  0.10231318352E+03  0.00000000000E+00 0.  1.
</event>
<event>
12    1  0.8358445E-002  0.1775515E+03  0.7818608E-02  0.1171563E+00
         21   -1    0    0  503  502  0.00000000000E+00  0.00000000000E+00  0.10854864705E+04  0.10854864705E+04  0.00000000000E+00 0.  1.
         21   -1    0    0  501  503 -0.00000000000E+00 -0.00000000000E+00 -0.31127714900E+02  0.31127714900E+02  0.00000000000E+00 0.  1.
          6    2    1    2  501    0  0.27640600549E+02  0.32719558541E+02  0.34720210448E+03  0.38750852106E+03  0.16667027399E+03 0.  0.
         24    2    3    3    0    0 -0.35173260058E+02 -0.39158365244E+01  0.12136516663E+03  0.15020671796E+03  0.81117584110E+02 0.  0.
         -6    2    1    2    0  502 -0.27640600549E+02 -0.32719558541E+02  0.70715665114E+03  0.72910566435E+03  0.17230777184E+03 0.  0.
        -24    2    5    5    0    0 -0.28454290888E+02  0.93074927857E+01  0.66118379801E+03  0.66663544457E+03  0.79639971832E+02 0.  0.
          5    1    3    3  501    0  0.62813860607E+02  0.36635395066E+02  0.22583693785E+03  0.23730180310E+03  0.47000000000E+01 0. -1.
        -11    1    4    4    0    0 -0.15463480656E+01  0.36153570190E+02  0.50427491112E+02  0.62067734691E+02  0.00000000000E+00 0.  1.
         12    1    4    4    0    0 -0.33626911992E+02 -0.40069406715E+02  0.70937675515E+02  0.88138983271E+02  0.00000000000E+00 0. -1.
         -5    1    5    5    0  502  0.81369033934E+00 -0.42027051327E+02  0.45972853126E+02  0.62470219783E+02  0.47000000000E+01 0.  1.
         13    1    6    6    0    0  0.20668139050E+02  0.14325973133E+02  0.93980737544E+02  0.97287124058E+02  0.00000000000E+00 0. -1.
        -14    1    6    6    0    0 -0.49122429939E+02 -0.50184803472E+01  0.56720306047E+03  0.56934832051E+03  0.00000000000E+00 0.  1.
</event>
<event>
12    1  0.8358445E-002  0.2382481E+03  0.7818608E-02  0.1121016E+00
         21   -1    0    0  503  502  0.00000000000E+00  0.00000000000E+00  0.20521864305E+03  0.20521864305E+03  0.00000000000E+00 0.  1.
         21   -1    0    0  501  503 -0.00000000000E+00 -0.00000000000E+00 -0.37491952330E+03  0.37491952330E+03  0.00000000000E+00 0.  1.
          6    2    1    2  501    0  0.57162327979E+02  0.15446820817E+03 -0.23362011706E+03  0.33346461191E+03  0.17173330843E+03 0.  0.
         24    2    3    3    0    0  0.88388536267E+02  0.12010024631E+03 -0.11209907914E+03  0.20328901687E+03  0.80768919322E+02 0.  0.
         -6    2    1    2    0  502 -0.57162327979E+02 -0.15446820817E+03  0.63919236816E+02  0.24667355445E+03  0.17214591065E+03 0.  0.
        -24    2    5    5    0    0 -0.13323576045E+02 -0.12496118840E+03 -0.13853481341E+02  0.15252905872E+03  0.85325134186E+02 0.  0.
          5    1    3    3  501    0 -0.31226208288E+02  0.34367961858E+02 -0.12152103792E+03  0.13017559504E+03  0.47000000000E+01 0. -1.
        -11    1    4    4    0    0  0.70035396180E+02  0.12899043705E+03 -0.85818968687E+02  0.17002465985E+03  0.00000000000E+00 0.  1.
         12    1    4    4    0    0  0.18353140086E+02 -0.88901907471E+01 -0.26280110453E+02  0.33264357020E+02  0.00000000000E+00 0. -1.
         -5    1    5    5    0  502 -0.43838751934E+02 -0.29507019770E+02  0.77772718157E+02  0.94144495731E+02  0.47000000000E+01 0.  1.
         13    1    6    6    0    0  0.30395889482E+02 -0.16712820769E+02  0.18339756075E+01  0.34736032329E+02  0.00000000000E+00 0. -1.
        -14    1    6    6    0    0 -0.43719465528E+02 -0.10824836763E+03 -0.15687456949E+02  0.11779302639E+03  0.00000000000E+00 0.  1.
</event>
<event>
12    1  0.8358445E-002  0.2060751E+03  0.7818608E-02  0.1144757E+00
         21   -1    0    0  503  502  0.00000000000E+00  0.00000000000E+00  0.92858244450E+03  0.92858244450E+03  0.00000000000E+00 0.  1.
         21   -1    0    0  501  503 -0.00000000000E+00 -0.00000000000E+00 -0.48720304197E+02  0.48720304197E+02  0.00000000000E+00 0. -1.
          6    2    1    2  501    0 -0.11532000446E+03  0.34188473918E+01  0.31771759018E+03  0.37857622371E+03  0.17048489114E+03 0.  0.
         24    2    3    3    0    0 -0.10460952243E+03 -0.37256581138E+02  0.18266733122E+03  0.23704930982E+03  0.10243933019E+03 0.  0.
         -6    2    1    2    0  502  0.11532000446E+03 -0.34188473918E+01  0.56214455012E+03  0.59872652498E+03  0.17075293421E+03 0.  0.
        -24    2    5    5    0    0  0.11555436441E+03  0.19139209544E+02  0.26281940730E+03  0.29851567910E+03  0.79488674293E+02 0.  0.
          5    1    3    3  501    0 -0.10710482024E+02  0.40675428529E+02  0.13505025896E+03  0.14152691389E+03  0.47000000000E+01 0. -1.
        -11    1    4    4    0    0 -0.84015370672E+02 -0.76199892385E+01  0.18239466602E+03  0.20095885385E+03  0.00000000000E+00 0.  1.
         12    1    4    4    0    0 -0.20594151759E+02 -0.29636591899E+02  0.27266519590E+00  0.36090455973E+02  0.00000000000E+00 0. -1.
         -5    1    5    5    0  502 -0.23435995874E+00 -0.22558056936E+02  0.29932514283E+03  0.30021084588E+03  0.47000000000E+01 0.  1.
         11    1    6    6    0    0 -0.54382824288E+01 -0.94679183636E+01  0.44536095569E+01  0.11791990163E+02  0.00000000000E+00 0. -1.
        -12    1    6    6    0    0  0.12099264684E+03  0.28607127907E+02  0.25836579774E+03  0.28672368894E+03  0.00000000000E+00 0.  1.
</event>
<event>
12    1  0.8358445E-002  0.1894639E+03  0.7818608E-02  0.1159220E+00
         21   -1    0    0  503  502  0.00000000000E+00  0.00000000000E+00  0.50351612674E+02  0.50351612674E+02  0.00000000000E+00 0.  1.
         21   -1    0    0  501  503 -0.00000000000E+00 -0.00000000000E+00 -0.23317345422E+04  0.23317345422E+04  0.00000000000E+00 0.  1.
          6    2    1    2  501    0  0.64336020888E+02  0.39763282285E+02 -0.21355879592E+04  0.21439758647E+04  0.17371336842E+03 0.  0.
         24    2    3    3    0    0  0.32360321976E+02 -0.18984049399E+02 -0.16453390567E+04  0.16491630003E+04  0.10578471272E+03 0.  0.
         -6    2    1    2    0  502 -0.64336020888E+02 -0.39763282285E+02 -0.14579497032E+03  0.23811029025E+03  0.17239517033E+03 0.  0.
        -24    2    5    5    0    0  0.31684613511E+02 -0.37043367464E+02 -0.74175270021E+02  0.11819852420E+03  0.78056355503E+02 0.  0.
          5    1    3    3  501    0  0.31975698912E+02  0.58747331684E+02 -0.49024890257E+03  0.49481286440E+03  0.47000000000E+01 0. -1.
        -11    1    4    4    0    0 -0.17750354769E+02  0.15128134389E+02 -0.11345100086E+04  0.11347497059E+04  0.00000000000E+00 0.  1.
         12    1    4    4    0    0  0.50110676745E+02 -0.34112183788E+02 -0.51082904807E+03  0.51441329431E+03  0.00000000000E+00 0. -1.
         -5    1    5    5    0  502 -0.96020634399E+02 -0.27199148212E+01 -0.71619700299E+02  0.11991176605E+03  0.47000000000E+01 0.  1.
         11    1    6    6    0    0  0.34458358704E+02 -0.12249918283E+01  0.14110325653E+01  0.34508985822E+02  0.00000000000E+00 0. -1.
        -12    1    6    6    0    0 -0.27737451934E+01 -0.35818375636E+02 -0.75586302587E+02  0.83689538380E+02  0.00000000000E+00 0.  1.
</event>
<event>
12    1  0.8358445E-002  0.1941873E+03  0.7818608E-02  0.1155208E+00
         21   -1    0    0  503  502  0.00000000000E+00  0.00000000000E+00  0.12449020535E+03  0.12449020535E+03  0.00000000000E+00 0. -1.
         21   -1    0    0  501  503 -0.00000000000E+00 -0.00000000000E+00 -0.30887564479E+03  0.30887564479E+03  0.00000000000E+00 0. -1.
          6    2    1    2  501    0  0.82995661471E+02  0.31716639383E+02 -0.13025594189E+03  0.23382752371E+03  0.17266868682E+03 0.  0.
         24    2    3    3    0    0  0.89353667390E+01 -0.29112565171E+02 -0.10341302091E+03  0.13418941961E+03  0.79907228776E+02 0.  0.
         -6    2    1    2    0  502 -0.82995661471E+02 -0.31716639383E+02 -0.54129497555E+02  0.19953832643E+03  0.17026836516E+03 0.  0.
        -24    2    5    5    0    0  0.55890911008E+01  0.36816021710E+01 -0.79674736706E+00  0.90145611245E+02  0.89893293891E+02 0.  0.
          5    1    3    3  501    0  0.74060294732E+02  0.60829204553E+02 -0.26842920978E+02  0.99638104102E+02  0.47000000000E+01 0. -1.
        -11    1    4    4    0    0  0.40648537039E+02 -0.56054438308E+01 -0.75206277218E+02  0.85672099875E+02  0.00000000000E+00 0.  1.
         12    1    4    4    0    0 -0.31713170300E+02 -0.23507121340E+02 -0.28206743692E+02  0.48517319730E+02  0.00000000000E+00 0. -1.
         -5    1    5    5    0  502 -0.88584752572E+02 -0.35398241554E+02 -0.53332750188E+02  0.10939271519E+03  0.47000000000E+01 0.  1.
         11    1    6    6    0    0  0.13134324169E+01  0.33303198414E+01  0.44501200438E+02  0.44644965846E+02  0.00000000000E+00 0. -1.
        -12    1    6    6    0    0  0.42756586838E+01  0.35128232954E+00 -0.45297947805E+02  0.45500645400E+02  0.00000000000E+00 0.  1.
</event>
<event>
12    1  0.8358445E-002  0.2279969E+03  0.7818608E-02  0.1128151E+00
         21   -1    0    0  503  502  0.00000000000E+00  0.00000000000E+00  0.52677004055E+02  0.52677004055E+02  0.00000000000E+00 0.  1.
         21   -1    0    0  501  503 -0.00000000000E+00 -0.00000000000E+00 -0.10748307013E+04  0.10748307013E+04  0.00000000000E+00 0. -1.
          6    2    1    2  501    0  0.85865098551E+02  0.12264038146E+03 -0.34713898067E+03  0.41502791775E+03  0.17125776565E+03 0.  0.
         24    2    3    3    0    0  0.75651199157E+02  0.14209183561E+03 -0.34880915195E+03  0.39249877482E+03  0.80462848974E+02 0.  0.
         -6    2    1    2    0  502 -0.85865098551E+02 -0.12264038146E+03 -0.67501471654E+03  0.71247978757E+03  0.17195668593E+03 0.  0.
        -24    2    5    5    0    0 -0.39347363294E+02 -0.12096874439E+03 -0.63029074609E+03  0.64775716713E+03  0.78366260854E+02 0.  0.
          5    1    3    3  501    0  0.10213899393E+02 -0.19451454144E+02  0.16701712858E+01  0.22529142932E+02  0.47000000000E+01 0. -1.
        -13    1    4    4    0    0  0.21291461955E+02  0.87511528749E+02 -0.11344602577E+03  0.14485024949E+03  0.00000000000E+00 0.  1.
         14    1    4    4    0    0  0.54359737203E+02  0.54580306856E+02 -0.23536312619E+03  0.24764852532E+03  0.00000000000E+00 0. -1.
         -5    1    5    5    0  502 -0.46517735256E+02 -0.16716370706E+01 -0.44723970442E+02  0.64722620435E+02  0.47000000000E+01 0.  1.
         11    1    6    6    0    0 -0.62847224640E+02 -0.89536643920E+02 -0.43332547698E+03  0.44692007479E+03  0.00000000000E+00 0. -1.
        -12    1    6    6    0    0  0.23499861346E+02 -0.31432100470E+02 -0.19696526912E+03  0.20083709234E+03  0.00000000000E+00 0.  1.
</event>
<event>
12    1  0.8358445E-002  0.2294959E+03  0.7818608E-02  0.1127114E+00
         21   -1    0    0  501  502  0.00000000000E+00  0.00000000000E+00  0.27494367548E+03  0.27494367548E+03  0.00000000000E+00 0. -1.
         21   -1    0    0  502  503 -0.00000000000E+00 -0.00000000000E+00 -0.19108495732E+03  0.19108495732E+03  0.00000000000E+00 0. -1.
         -6    2    1    2    0  503 -0.14476010367E+03 -0.46709638261E+02  0.36940861134E+02  0.23178587815E+03  0.17094674073E+03 0.  0.
        -24    2    3    3    0    0 -0.77204270732E+02 -0.60592873512E+02 -0.36119868971E+02  0.13120508938E+03  0.79234681833E+02 0.  0.
          6    2    1    2  501    0  0.14476010367E+03  0.46709638261E+02  0.46917857024E+02  0.23424275465E+03  0.17184616631E+03 0.  0.
         24    2    5    5    0    0  0.33861505104E+02  0.66039341006E+02  0.59869932488E+02  0.12083207247E+03  0.74217146489E+02 0.  0.
          5    1    5    5  501    0  0.11089859857E+03 -0.19329702745E+02 -0.12952075464E+02  0.11341068218E+03  0.47000000000E+01 0. -1.
        -13    1    6    6    0    0 -0.98928384975E+01  0.57985789382E+02  0.23407490349E+02  0.63309798832E+02  0.00000000000E+00 0.  1.
         14    1    6    6    0    0  0.43754343601E+02  0.80535516246E+01  0.36462442139E+02  0.57522273638E+02  0.00000000000E+00 0. -1.
         -5    1    3    3    0  503 -0.67555832943E+02  0.13883235251E+02  0.73060730106E+02  0.10058078877E+03  0.47000000000E+01 0.  1.
         13    1    4    4    0    0 -0.32642747379E+02 -0.30188514374E+02  0.23921376048E+02  0.50488885793E+02  0.00000000000E+00 0. -1.
        -14    1    4    4    0    0 -0.44561523353E+02 -0.30404359138E+02 -0.60041245020E+02  0.80716203588E+02  0.00000000000E+00 0.  1.
</event>
<event>
12    1  0.8358445E-002  0.2906217E+03  0.7818608E-02  0.1090056E+00
         21   -1    0    0  501  502  0.00000000000E+00  0.00000000000E+00  0.13706177273E+03  0.13706177273E+03  0.00000000000E+00 0. -1.
         21   -1    0    0  502  503 -0.00000000000E+00 -0.00000000000E+00 -0.64358420110E+03  0.64358420110E+03  0.00000000000E+00 0.  1.
         -6    2    1    2    0  503 -0.23334965628E+03  0.15219652203E+02 -0.17194976507E+03  0.33747578245E+03  0.17216120972E+03 0.  0.
        -24    2    3    3    0    0 -0.89759507245E+02  0.37516693989E+02 -0.24524141843E+02  0.13042097483E+03  0.83330220657E+02 0.  0.
          6    2    1    2  501    0  0.23334965628E+03 -0.15219652203E+02 -0.33457266330E+03  0.44317019138E+03  0.17256086348E+03 0.  0.
         24    2    5    5    0    0  0.21356126506E+03  0.35484023605E+02 -0.23347928008E+03  0.32825976845E+03  0.79839661143E+02 0.  0.
          5    1    5    5  501    0  0.19788391217E+02 -0.50703675808E+02 -0.10109338321E+03  0.11491042292E+03  0.47000000000E+01 0. -1.
        -11    1    6    6    0    0  0.21456382659E+03  0.23377138807E+02 -0.23045023588E+03  0.31573950896E+03  0.00000000000E+00 0.  1.
         12    1    6    6    0    0 -0.10025615262E+01  0.12106884798E+02 -0.30290442048E+01  0.12520259499E+02  0.00000000000E+00 0. -1.
         -5    1    3    3    0  503 -0.14359014903E+03 -0.22297041785E+02 -0.14742562323E+03  0.20705480762E+03  0.47000000000E+01 0.  1.
         11    1    4    4    0    0 -0.95215207033E+02  0.56293882343E+01 -0.22545761820E+02  0.98009882350E+02  0.00000000000E+00 0. -1.
        -12    1    4    4    0    0  0.54556997880E+01  0.31887305754E+02 -0.19783800224E+01  0.32411092483E+02  0.00000000000E+00 0.  1.
</event>
<event>
12    1  0.8358445E-002  0.2620063E+03  0.7818608E-02  0.1106297E+00
         21   -1    0    0  501  502  0.00000000000E+00  0.00000000000E+00  0.98624017064E+03  0.98624017064E+03  0.00000000000E+00 0. -1.
         21   -1    0    0  502  503 -0.00000000000E+00 -0.00000000000E+00 -0.84972583250E+02  0.84972583250E+02  0.00000000000E+00 0.  1.
         -6    2    1    2    0  503 -0.10192122171E+03  0.16575093665E+03  0.21991852608E+03  0.34206936610E+03  0.17545935335E+03 0.  0.
        -24    2    3    3    0    0 -0.10034240597E+03  0.11297619202E+03  0.73238235711E+02  0.18610506278E+03  0.80243609225E+02 0.  0.
          6    2    1    2  501    0  0.10192122171E+03 -0.16575093665E+03  0.68134906131E+03  0.72914338778E+03  0.17190761522E+03 0.  0.
         24    2    5    5    0    0  0.10569764822E+03 -0.63771945809E+02  0.50418045057E+03  0.52463230593E+03  0.76172670822E+02 0.  0.
          5    1    5    5  501    0 -0.37764265049E+01 -0.10197899084E+03  0.17716861074E+03  0.20451108185E+03  0.47000000000E+01 0. -1.
        -11    1    6    6    0    0  0.92157631187E+02 -0.60399088322E+02  0.29368600287E+03  0.31367586318E+03  0.00000000000E+00 0.  1.
         12    1    6    6    0    0  0.13540017028E+02 -0.33728574876E+01  0.21049444770E+03  0.21095644276E+03  0.00000000000E+00 0. -1.
         -5    1    3    3    0  503 -0.15788157430E+01  0.52774744626E+02  0.14668029037E+03  0.15596430333E+03  0.47000000000E+01 0.  1.
         13    1    4    4    0    0 -0.29369483350E+02  0.50902676281E+01  0.44902244083E+02  0.53895165836E+02  0.00000000000E+00 0. -1.
        -14    1    4    4    0    0 -0.70972922618E+02  0.10788592440E+03  0.28335991628E+02  0.13220989694E+03  0.00000000000E+00 0.  1.
</event>
<event>
12    1  0.8358445E-002  0.2312199E+03  0.7818608E-02  0.1125808E+00
         21   -1    0    0  501  502  0.00000000000E+00  0.00000000000E+00  0.86368730931E+02  0.86368730931E+02  0.00000000000E+00 0.  1.
         21   -1    0    0  502  503 -0.00000000000E+00 -0.00000000000E+00 -0.90882814042E+03  0.90882814042E+03  0.00000000000E+00 0. -1.
         -6    2    1    2    0  503  0.15072179777E+03  0.34541025714E+02 -0.69248432528E+03  0.73006654773E+03  0.17190834935E+03 0.  0.
        -24    2    3    3    0    0  0.79519333489E+02  0.87375477551E+02 -0.39654598706E+03  0.42109590148E+03  0.78199999411E+02 0.  0.
          6    2    1    2  501    0 -0.15072179777E+03 -0.34541025714E+02 -0.12997508420E+03  0.26513032362E+03  0.17172775899E+03 0.  0.
         24    2    5    5    0    0 -0.14326952207E+03 -0.25918041055E+02 -0.34688885739E+02  0.16904993074E+03  0.78591726549E+02 0.  0.
          5    1    5    5  501    0 -0.74522756982E+01 -0.86229846591E+01 -0.95286198466E+02  0.96080392878E+02  0.47000000000E+01 0. -1.
        -13    1    6    6    0    0 -0.63966551665E+02 -0.36400528872E+02 -0.48125887803E+02  0.87936450411E+02  0.00000000000E+00 0.  1.
         14    1    6    6    0    0 -0.79302970407E+02  0.10482487817E+02  0.13437002065E+02  0.81113480327E+02  0.00000000000E+00 0. -1.
         -5    1    3    3    0  503  0.71202464281E+02 -0.52834451837E+02 -0.29593833822E+03  0.30897064626E+03  0.47000000000E+01 0.  1.
         13    1    4    4    0    0  0.59362237837E+02  0.10041097222E+03 -0.34613978821E+03  0.36526564526E+03  0.00000000000E+00 0. -1.
        -14    1    4    4    0    0  0.20157095652E+02 -0.13035494672E+02 -0.50406198855E+02  0.55830256219E+02  0.00000000000E+00 0.  1.
</event>
<event>
12    1  0.8358445E-002  0.1875893E+03  0.7818608E-02  0.1160711E+00
         21   -1    0    0  503  502  0.00000000000E+00  0.00000000000E+00  0.16337592280E+03  0.16337592280E+03  0.00000000000E+00 0. -1.
         21   -1    0    0  501  503 -0.00000000000E+00 -0.00000000000E+00 -0.59482268549E+03  0.59482268549E+03  0.00000000000E+00 0. -1.
          6    2    1    2  501    0 -0.11753520670E+02 -0.74277203685E+02 -0.51856465673E+03  0.55136705444E+03  0.17158402393E+03 0.  0.
         24    2    3    3    0    0 -0.62415449793E+02 -0.48734787878E+02 -0.18868550958E+03  0.21661134082E+03  0.71045643961E+02 0.  0.
         -6    2    1    2    0  502  0.11753520670E+02  0.74277203685E+02  0.87117894048E+02  0.20683155385E+03  0.17185609088E+03 0.  0.
        -24    2    5    5    0    0 -0.43432494564E+02  0.42437901909E+02  0.32160142891E+00  0.99058997851E+02  0.78263813639E+02 0.  0.
          5    1    3    3  501    0  0.50661929123E+02 -0.25542415806E+02 -0.32987914715E+03  0.33475571361E+03  0.47000000000E+01 0. -1.
        -11    1    4    4    0    0 -0.18929262885E+02 -0.52567893677E+02 -0.66468719122E+02  0.86831970269E+02  0.00000000000E+00 0.  1.
         12    1    4    4    0    0 -0.43486186908E+02  0.38331057992E+01 -0.12221679046E+03  0.12977937056E+03  0.00000000000E+00 0. -1.
         -5    1    5    5    0  502  0.55186015234E+02  0.31839301776E+02  0.86796292619E+02  0.10777255600E+03  0.47000000000E+01 0.  1.
         11    1    6    6    0    0  0.74678084879E+01  0.85104411777E+01  0.29270216512E+02  0.31383775224E+02  0.00000000000E+00 0. -1.
        -12    1    6    6    0    0 -0.50900303052E+02  0.33927460731E+02 -0.28948615083E+02  0.67675222628E+02  0.00000000000E+00 0.  1.
</event>
<event>
12    1  0.8358445E-002  0.3730593E+03  0.7818608E-02  0.1053535E+00
         21   -1    0    0  501  502  0.00000000000E+00  0.00000000000E+00  0.72300950935E+03  0.72300950935E+03  0.00000000000E+00 0. -1.
         21   -1    0    0  502  503 -0.00000000000E+00 -0.00000000000E+00 -0.21631236289E+03  0.21631236289E+03  0.00000000000E+00 0. -1.
         -6    2    1    2    0  503 -0.54384102740E+02  0.32678322853E+03  0.97371981616E+02  0.38549850639E+03  0.17141437088E+03 0.  0.
        -24    2    3    3    0    0 -0.56524014360E+02  0.81084299236E+02  0.31114684397E+02  0.13097019261E+03  0.80096441780E+02 0.  0.
          6    2    1    2  501    0  0.54384102740E+02 -0.32678322853E+03  0.40932516484E+03  0.55382336585E+03  0.17154684755E+03 0.  0.
         24    2    5    5    0    0  0.10090468791E+00 -0.24351978000E+03  0.21073631514E+03  0.33169932690E+03  0.79452850889E+02 0.  0.
          5    1    5    5  501    0  0.54283198053E+02 -0.83263448530E+02  0.19858884970E+03  0.22212403894E+03  0.47000000000E+01 0. -1.
        -11    1    6    6    0    0  0.46735787500E+00 -0.12560955662E+02  0.46836857168E+02  0.48494197796E+02  0.00000000000E+00 0.  1.
         12    1    6    6    0    0 -0.36645318709E+00 -0.23095882434E+03  0.16389945798E+03  0.28320512911E+03  0.00000000000E+00 0. -1.
         -5    1    3    3    0  503  0.21399116197E+01  0.24569892929E+03  0.66257297219E+02  0.25452831377E+03  0.47000000000E+01 0.  1.
         11    1    4    4    0    0 -0.47765978414E+02  0.55412683779E+02 -0.17570549912E+02  0.75238809411E+02  0.00000000000E+00 0. -1.
        -12    1    4    4    0    0 -0.87580359463E+01  0.25671615457E+02  0.48685234309E+02  0.55731383201E+02  0.00000000000E+00 0.  1.
</event>
<event>
12    1  0.8358445E-002  0.2107199E+03  0.7818608E-02  0.1142766E+00
         21   -1    0    0  503  502  0.00000000000E+00  0.00000000000E+00  0.12037295862E+03  0.12037295862E+03  0.00000000000E+00 0. -1.
         21   -1    0    0  501  503 -0.00000000000E+00 -0.00000000000E+00 -0.10551340648E+04  0.10551340648E+04  0.00000000000E+00 0. -1.
          6    2    1    2  501    0  0.45097619665E+02 -0.97079217169E+02  0.84794854794E+01  0.21089041504E+03  0.18150673755E+03 0.  0.
         24    2    3    3    0    0  0.39282417846E+02 -0.69428510006E+02 -0.66759167237E+02  0.13038375046E+03  0.78611129110E+02 0.  0.
         -6    2    1    2    0  502 -0.45097619665E+02  0.97079217169E+02 -0.94324059168E+03  0.96461660840E+03  0.17124315373E+03 0.  0.
        -24    2    5    5    0    0 -0.76439332385E+02  0.18097157658E+02 -0.56039684114E+03  0.57242801090E+03  0.86363936057E+02 0.  0.
          5    1    3    3  501    0  0.58152018193E+01 -0.27650707164E+02  0.75238652717E+02  0.80506664578E+02  0.47000000000E+01 0. -1.
        -13    1    4    4    0    0  0.24695163096E+02  0.12430680316E+02 -0.25282160173E+02  0.37464123057E+02  0.00000000000E+00 0.  1.
         14    1    4    4    0    0  0.14587254750E+02 -0.81859190322E+02 -0.41477007065E+02  0.92919627401E+02  0.00000000000E+00 0. -1.
         -5    1    5    5    0  502  0.31341712720E+02  0.78982059511E+02 -0.38284375054E+03  0.39218859750E+03  0.47000000000E+01 0.  1.
         11    1    6    6    0    0 -0.78986356543E+02 -0.33416692413E+01 -0.27286623364E+03  0.28408800174E+03  0.00000000000E+00 0. -1.
        -12    1    6    6    0    0  0.25470241586E+01  0.21438826899E+02 -0.28753060750E+03  0.28834000916E+03  0.00000000000E+00 0.  1.
</event>
<event>
12    1  0.8358445E-002  0.1797525E+03  0.7818608E-02  0.1168360E+00
         21   -1    0    0  503  502  0.00000000000E+00  0.00000000000E+00  0.12882680564E+04  0.12882680564E+04  0.00000000000E+00 0. -1.
         21   -1    0    0  501  503 -0.00000000000E+00 -0.00000000000E+00 -0.16835184585E+03  0.16835184585E+03  0.00000000000E+00 0. -1.
          6    2    1    2  501    0 -0.45661288420E+02  0.29131971912E+02 -0.11263894521E+03  0.21102639352E+03  0.17003229615E+03 0.  0.
         24    2    3    3    0    0  0.22222849614E+02  0.61597262254E+02 -0.67709528042E+02  0.12325969254E+03  0.79500275817E+02 0.  0.
         -6    2    1    2    0  502  0.45661288420E+02 -0.29131971912E+02  0.12325551557E+04  0.12455935087E+04  0.17139822635E+03 0.  0.
        -24    2    5    5    0    0 -0.35768040603E+02 -0.19129254319E+02  0.44816561946E+03  0.45691117432E+03  0.79184074482E+02 0.  0.
          5    1    3    3  501    0 -0.67884138034E+02 -0.32465290343E+02 -0.44929417164E+02  0.87766700977E+02  0.47000000000E+01 0. -1.
        -11    1    4    4    0    0  0.11865258744E+02  0.65368456260E+02 -0.13312670199E+02  0.67757262538E+02  0.00000000000E+00 0.  1.
         12    1    4    4    0    0  0.10357590871E+02 -0.37711940053E+01 -0.54396857843E+02  0.55502430001E+02  0.00000000000E+00 0. -1.
         -5    1    5    5    0  502  0.81429329023E+02 -0.10002717593E+02  0.78438953628E+03  0.78868233441E+03  0.47000000000E+01 0.  1.
         13    1    6    6    0    0 -0.31187657686E+02 -0.26931140825E+02  0.44560852636E+03  0.44750968158E+03  0.00000000000E+00 0. -1.
        -14    1    6    6    0    0 -0.45803829173E+01  0.78018865066E+01  0.25570931029E+01  0.94014927468E+01  0.00000000000E+00 0.  1.
</event>
<event>
12    1  0.8358445E-002  0.2198772E+03  0.7818608E-02  0.1134026E+00
         21   -1    0    0  503  502  0.00000000000E+00  0.00000000000E+00  0.38881582803E+03  0.38881582803E+03  0.00000000000E+00 0. -1.
         21   -1    0    0  501  503 -0.00000000000E+00 -0.00000000000E+00 -0.12662635334E+03  0.12662635334E+03  0.00000000000E+00 0. -1.
          6    2    1    2  501    0  0.12151336514E+03 -0.69037431701E+02  0.95407601047E+02  0.23968438688E+03  0.16974784268E+03 0.  0.
         24    2    3    3    0    0  0.89407017794E+02 -0.10439231870E+03  0.10650207717E+03  0.19043032132E+03  0.77650781067E+02 0.  0.
         -6    2    1    2    0  502 -0.12151336514E+03  0.69037431701E+02  0.16678187364E+03  0.27575779449E+03  0.16939451869E+03 0.  0.
        -24    2    5    5    0    0 -0.10425756896E+03  0.88959801528E+02  0.68401489042E+02  0.17379969821E+03  0.82122374680E+02 0.  0.
          5    1    3    3  501    0  0.32106347346E+02  0.35354886997E+02 -0.11094476124E+02  0.49254065568E+02  0.47000000000E+01 0. -1.
        -13    1    4    4    0    0  0.23865401582E+02 -0.29956964613E+02 -0.78118295716E+01  0.39089663631E+02  0.00000000000E+00 0.  1.
         14    1    4    4    0    0  0.65541616213E+02 -0.74435354085E+02  0.11431390674E+03  0.15134065768E+03  0.00000000000E+00 0. -1.
         -5    1    5    5    0  502 -0.17255796183E+02 -0.19922369827E+02  0.98380384602E+02  0.10195809627E+03  0.47000000000E+01 0.  1.
         13    1    6    6    0    0 -0.11449044628E+03  0.73825495500E+02  0.43679726595E+02  0.14306007337E+03  0.00000000000E+00 0. -1.
        -14    1    6    6    0    0  0.10232877325E+02  0.15134306028E+02  0.24721762447E+02  0.30739624848E+02  0.00000000000E+00 0.  1.
</event>
<event>
12    1  0.8358445E-002  0.2228949E+03  0.7818608E-02  0.1131813E+00
         21   -1    0    0  503  502  0.00000000000E+00  0.00000000000E+00  0.22664514732E+03  0.22664514732E+03  0.00000000000E+00 0. -1.
         21   -1    0    0  501  503 -0.00000000000E+00 -0.00000000000E+00 -0.23065583982E+03  0.23065583982E+03  0.00000000000E+00 0. -1.
          6    2    1    2  501    0 -0.43410742691E+02  0.13535544921E+03 -0.53775277395E+02  0.22929005343E+03  0.17168738431E+03 0.  0.
         24    2    3    3    0    0 -0.32526614305E+02  0.11383370920E+02 -0.38670976582E+02  0.10383978301E+03  0.89998301839E+02 0.  0.
         -6    2    1    2    0  502  0.43410742691E+02 -0.13535544921E+03  0.49764584899E+02  0.22801093371E+03  0.17119252837E+03 0.  0.
        -24    2    5    5    0    0  0.37390958967E+02 -0.14877664157E+03 -0.39440015115E+01  0.17212651321E+03  0.77970561831E+02 0.  0.
          5    1    3    3  501    0 -0.10884128386E+02  0.12397207829E+03 -0.15104300813E+02  0.12545027043E+03  0.47000000000E+01 0. -1.
        -13    1    4    4    0    0 -0.21091389048E+01  0.26364652432E+02  0.21956607084E+02  0.34374932137E+02  0.00000000000E+00 0.  1.
         14    1    4    4    0    0 -0.30417475400E+02 -0.14981281512E+02 -0.60627583666E+02  0.69464850872E+02  0.00000000000E+00 0. -1.
         -5    1    5    5    0  502  0.60197837243E+01  0.13421192360E+02  0.53708586410E+02  0.55884420500E+02  0.47000000000E+01 0.  1.
         11    1    6    6    0    0  0.45525191371E+02 -0.89770221335E+02  0.28082259979E+02  0.10449808139E+03  0.00000000000E+00 0. -1.
        -12    1    6    6    0    0 -0.81342324039E+01 -0.59006420237E+02 -0.32026261490E+02  0.67628431824E+02  0.00000000000E+00 0.  1.
</event>
<event>
12    1  0.8358445E-002  0.2360856E+03  0.7818608E-02  0.1122826E+00
         21   -1    0    0  501  502  0.00000000000E+00  0.00000000000E+00  0.34457642879E+02  0.34457642879E+02  0.00000000000E+00 0.  1.
         21   -1    0    0  502  503 -0.00000000000E+00 -0.00000000000E+00 -0.19216328259E+04  0.19216328259E+04  0.00000000000E+00 0.  1.
         -6    2    1    2    0  503 -0.64934980727E+02 -0.14854725779E+03 -0.13465822509E+04  0.13671211261E+04  0.17162043965E+03 0.  0.
        -24    2    3    3    0    0 -0.11269474504E+02 -0.25410099852E+02 -0.28272051263E+03  0.29480278041E+03  0.78772564032E+02 0.  0.
          6    2    1    2  501    0  0.64934980727E+02  0.14854725779E+03 -0.54059293213E+03  0.58896934275E+03  0.16840822103E+03 0.  0.
         24    2    5    5    0    0  0.29831727900E+02  0.71349496805E+02 -0.14205415880E+03  0.18148072143E+03  0.82311515191E+02 0.  0.
          5    1    5    5  501    0  0.35103252827E+02  0.77197760988E+02 -0.39853877333E+03  0.40748862132E+03  0.47000000000E+01 0. -1.
        -13    1    6    6    0    0  0.16095097211E+02  0.74762955021E+02 -0.14763424723E+03  0.16626611968E+03  0.00000000000E+00 0.  1.
         14    1    6    6    0    0  0.13736630689E+02 -0.34134582159E+01  0.55800884234E+01  0.15214601753E+02  0.00000000000E+00 0. -1.
         -5    1    3    3    0  503 -0.53665506223E+02 -0.12313715794E+03 -0.10638617383E+04  0.10723183456E+04  0.47000000000E+01 0.  1.
         11    1    4    4    0    0  0.64335432290E+01 -0.38845516962E+02 -0.65323021262E+02  0.76272287060E+02  0.00000000000E+00 0. -1.
        -12    1    4    4    0    0 -0.17703017733E+02  0.13435417110E+02 -0.21739749137E+03  0.21853049335E+03  0.00000000000E+00 0.  1.
</event>
<event>
12    1  0.8358445E-002  0.2306330E+03  0.7818608E-02  0.1126249E+00
         21   -1    0    0  501  502  0.00000000000E+00  0.00000000000E+00  0.60280437569E+02  0.60280437569E+02  0.00000000000E+00 0.  1.
         21   -1    0    0  502  503 -0.00000000000E+00 -0.00000000000E+00 -0.10696614837E+04  0.10696614837E+04  0.00000000000E+00 0. -1.
         -6    2    1    2    0  503 -0.70928407382E+02 -0.13645379632E+03 -0.74154134344E+03  0.77648800454E+03  0.17146305625E+03 0.  0.
        -24    2    3    3    0    0 -0.69097188468E+02 -0.14111869226E+02 -0.38054992369E+03  0.39529540805E+03  0.80415476708E+02 0.  0.
          6    2    1    2  501    0  0.70928407382E+02  0.13645379632E+03 -0.26783970270E+03  0.35345391674E+03  0.17187520883E+03 0.  0.
         24    2    5    5    0    0 -0.82348319479E+01  0.17844267717E+02 -0.64451858446E+02  0.10501127964E+03  0.80542513294E+02 0.  0.
          5    1    5    5  501    0  0.79163239330E+02  0.11860952860E+03 -0.20338784425E+03  0.24844263709E+03  0.47000000000E+01 0. -1.
        -13    1    6    6    0    0 -0.10857251900E+02  0.17444313642E+02  0.15047391551E+02  0.25467783369E+02  0.00000000000E+00 0.  1.
         14    1    6    6    0    0  0.26224199525E+01  0.39995407593E+00 -0.79499249996E+02  0.79543496275E+02  0.00000000000E+00 0. -1.
         -5    1    3    3    0  503 -0.18312189140E+01 -0.12234192709E+03 -0.36099141975E+03  0.38119259649E+03  0.47000000000E+01 0.  1.
         13    1    4    4    0    0  0.85302677670E+01 -0.24171270813E+02 -0.14008831130E+03  0.14241401183E+03  0.00000000000E+00 0. -1.
        -14    1    4    4    0    0 -0.77627456235E+02  0.10059401587E+02 -0.24046161239E+03  0.25288139622E+03  0.00000000000E+00 0.  1.
</event>
<event>
12    1  0.8358445E-002  0.2001940E+03  0.7818608E-02  0.1150357E+00
         21   -1    0    0  501  502  0.00000000000E+00  0.00000000000E+00  0.24341518366E+02  0.24341518366E+02  0.00000000000E+00 0.  1.
         21   -1    0    0  502  503 -0.00000000000E+00 -0.00000000000E+00 -0.19347068264E+04  0.19347068264E+04  0.00000000000E+00 0. -1.
         -6    2    1    2    0  503 -0.88490152561E+02 -0.51208057816E+02 -0.13450864476E+04  0.13593669044E+04  0.16783341982E+03 0.  0.
        -24    2    3    3    0    0 -0.70275296985E+01  0.12569314290E+02 -0.79952838643E+03  0.80406572459E+03  0.84075412146E+02 0.  0.
          6    2    1    2  501    0  0.88490152561E+02  0.51208057816E+02 -0.56527886035E+03  0.59968144034E+03  0.17211876030E+03 0.  0.
         24    2    5    5    0    0  0.51518239461E+02  0.47374003839E+02 -0.54862472354E+03  0.55868055497E+03  0.78971197201E+02 0.  0.
          5    1    5    5  501    0  0.36971913100E+02  0.38340539769E+01 -0.16654136805E+02  0.41000885367E+02  0.47000000000E+01 0. -1.
        -11    1    6    6    0    0  0.10539598504E+02 -0.18183279515E+02 -0.22369117561E+03  0.22467633795E+03  0.00000000000E+00 0.  1.
         12    1    6    6    0    0  0.40978640956E+02  0.65557283354E+02 -0.32493354793E+03  0.33400421702E+03  0.00000000000E+00 0. -1.
         -5    1    3    3    0  503 -0.81462622862E+02 -0.63777372106E+02 -0.54555806122E+03  0.55530117979E+03  0.47000000000E+01 0.  1.
         13    1    4    4    0    0 -0.55068073530E+00 -0.33603923294E+02 -0.20749449384E+03  0.21019869620E+03  0.00000000000E+00 0. -1.
        -14    1    4    4    0    0 -0.64768489632E+01  0.46173237584E+02 -0.59203389259E+03  0.59386702839E+03  0.00000000000E+00 0.  1.
</event>
<event>
12    1  0.8358445E-002  0.2820006E+03  0.7818608E-02  0.1094608E+00
         21   -1    0    0  501  502  0.00000000000E+00  0.00000000000E+00  0.13036715373E+03  0.13036715373E+03  0.00000000000E+00 0.  1.
         21   -1    0    0  502  503 -0.00000000000E+00 -0.00000000000E+00 -0.72869255456E+03  0.72869255456E+03  0.00000000000E+00 0. -1.
         -6    2    1    2    0  503  0.16789327157E+03 -0.14697152289E+03 -0.47261638578E+03  0.55035494480E+03  0.17243995471E+03 0.  0.
        -24    2    3    3    0    0  0.13044866373E+03 -0.17214226167E+03 -0.43097950735E+03  0.48878072624E+03  0.80705950614E+02 0.  0.
          6    2    1    2  501    0 -0.16789327157E+03  0.14697152289E+03 -0.12570901504E+03  0.30870476348E+03  0.17235746388E+03 0.  0.
         24    2    5    5    0    0 -0.16058843511E+03  0.14351144736E+03 -0.54175594334E+02  0.23656286833E+03  0.81503463937E+02 0.  0.
          5    1    5    5  501    0 -0.73048364579E+01  0.34600755317E+01 -0.71533420710E+02  0.72141895157E+02  0.47000000000E+01 0. -1.
        -13    1    6    6    0    0 -0.48787269031E+02  0.67399126928E+02 -0.57723598814E+02  0.10126625198E+03  0.00000000000E+00 0.  1.
         14    1    6    6    0    0 -0.11180116608E+03  0.76112320434E+02  0.35480044802E+01  0.13529661634E+03  0.00000000000E+00 0. -1.
         -5    1    3    3    0  503  0.37444607842E+02  0.25170738771E+02 -0.41636878429E+02  0.61574218566E+02  0.47000000000E+01 0.  1.
         13    1    4    4    0    0  0.34561660326E+02 -0.66911280446E+02 -0.79221898675E+02  0.10930570454E+03  0.00000000000E+00 0. -1.
        -14    1    4    4    0    0  0.95887003400E+02 -0.10523098122E+03 -0.35175760868E+03  0.37947502170E+03  0.00000000000E+00 0.  1.
</event>
<event>
12    1  0.8358445E-002  0.2332680E+03  0.7818608E-02  0.1124376E+00
         21   -1    0    0  503  502  0.00000000000E+00  0.00000000000E+00  0.49387434134E+03  0.49387434134E+03  0.00000000000E+00 0. -1.
         21   -1    0    0  501  503 -0.00000000000E+00 -0.00000000000E+00 -0.16486231378E+03  0.16486231378E+03  0.00000000000E+00 0. -1.
          6    2    1    2  501    0 -0.11049075589E+03 -0.11277637437E+03 -0.25240553038E+02  0.23462955314E+03  0.17171844378E+03 0.  0.
         24    2    3    3    0    0 -0.72788525772E+02 -0.80817249092E+02  0.50666733369E+02  0.14392756874E+03  0.79488552243E+02 0.  0.
         -6    2    1    2    0  502  0.11049075589E+03  0.11277637437E+03  0.35425258060E+03  0.42410710198E+03  0.17159611106E+03 0.  0.
        -24    2    5    5    0    0  0.26871602888E+02  0.99612785095E+02  0.12652685739E+03  0.18111216820E+03  0.78407791909E+02 0.  0.
          5    1    3    3  501    0 -0.37702230117E+02 -0.31959125278E+02 -0.75907286407E+02  0.90701984399E+02  0.47000000000E+01 0. -1.
        -11    1    4    4    0    0 -0.11150754768E+02 -0.68355955153E+02  0.12534404914E+02  0.70384566798E+02  0.00000000000E+00 0.  1.
         12    1    4    4    0    0 -0.61637771003E+02 -0.12461293938E+02  0.38132328454E+02  0.73543001939E+02  0.00000000000E+00 0. -1.
         -5    1    5    5    0  502  0.83619153000E+02  0.13163589274E+02  0.22772572321E+03  0.24299493378E+03  0.47000000000E+01 0.  1.
         11    1    6    6    0    0  0.19286367515E+02 -0.46707081648E+01  0.42747060320E+02  0.47128448443E+02  0.00000000000E+00 0. -1.
        -12    1    6    6    0    0  0.75852353733E+01  0.10428349326E+03  0.83779797073E+02  0.13398371976E+03  0.00000000000E+00 0.  1.
</event>
<event>
12    1  0.8358445E-002  0.2481843E+03  0.7818608E-02  0.1115325E+00
         21   -1    0    0  501  502  0.00000000000E+00  0.00000000000E+00  0.12807826956E+03  0.12807826956E+03  0.00000000000E+00 0. -1.
         21   -1    0    0  502  503 -0.00000000000E+00 -0.00000000000E+00 -0.72417560701E+03  0.72417560701E+03  0.00000000000E+00 0. -1.
         -6    2    1    2    0  503  0.17411767223E+03 -0.40078347872E+02 -0.55233079424E+03  0.60552848594E+03  0.17225621403E+03 0.  0.
        -24    2    3    3    0    0  0.19900509644E+03 -0.45312905946E+02 -0.51941707588E+03  0.56366934909E+03  0.79200685194E+02 0.  0.
          6    2    1    2  501    0 -0.17411767223E+03  0.40078347872E+02 -0.43766543217E+02  0.24672539063E+03  0.16442223184E+03 0.  0.
         24    2    5    5    0    0 -0.18983131703E+03  0.38780132643E+02 -0.10951445217E+02  0.21001674515E+03  0.80294903208E+02 0.  0.
          5    1    5    5  501    0  0.15713644796E+02  0.12982152288E+01 -0.32815098000E+02  0.36708645471E+02  0.47000000000E+01 0. -1.
        -13    1    6    6    0    0 -0.52585628357E+02 -0.22957629200E+02 -0.15570124817E+02  0.59453593962E+02  0.00000000000E+00 0.  1.
         14    1    6    6    0    0 -0.13724568867E+03  0.61737761843E+02  0.46186796002E+01  0.15056315119E+03  0.00000000000E+00 0. -1.
         -5    1    3    3    0  503 -0.24887424205E+02  0.52345580740E+01 -0.32913718363E+02  0.41859136856E+02  0.47000000000E+01 0.  1.
         13    1    4    4    0    0  0.10584694583E+03  0.16340210846E+02 -0.24513624080E+03  0.26751141095E+03  0.00000000000E+00 0. -1.
        -14    1    4    4    0    0  0.93158150607E+02 -0.61653116792E+02 -0.27428083508E+03  0.29615793814E+03  0.00000000000E+00 0.  1.
</event>
<event>
12    1  0.8358445E-002  0.1914234E+03  0.7818608E-02  0.1158457E+00
         21   -1    0    0  501  502  0.00000000000E+00  0.00000000000E+00  0.12607708356E+03  0.12607708356E+03  0.00000000000E+00 0.  1.
         21   -1    0    0  502  503 -0.00000000000E+00 -0.00000000000E+00 -0.41484374827E+03  0.41484374827E+03  0.00000000000E+00 0. -1.
         -6    2    1    2    0  503  0.68686420273E+02 -0.19965423432E+01 -0.29877786612E+03  0.35483959548E+03  0.17866481110E+03 0.  0.
        -24    2    3    3    0    0  0.40514397461E+02 -0.40655223262E+02 -0.29018461800E+03  0.30601244736E+03  0.78372455865E+02 0.  0.
          6    2    1    2  501    0 -0.68686420273E+02  0.19965423432E+01  0.10011201408E+02  0.18608123635E+03  0.17263890598E+03 0.  0.
         24    2    5    5    0    0 -0.75965682930E+02  0.38836092601E+02 -0.40555461451E+02  0.12292098366E+03  0.78649829612E+02 0.  0.
          5    1    5    5  501    0  0.72792626568E+01 -0.36839550258E+02  0.50566662859E+02  0.63160252697E+02  0.47000000000E+01 0. -1.
        -11    1    6    6    0    0 -0.58170501063E+02  0.54269057895E+02 -0.42811463993E+01  0.79669731098E+02  0.00000000000E+00 0.  1.
         12    1    6    6    0    0 -0.17795181867E+02 -0.15432965294E+02 -0.36274315052E+02  0.43251252559E+02  0.00000000000E+00 0. -1.
         -5    1    3    3    0  503  0.28172022813E+02  0.38658680919E+02 -0.85932481209E+01  0.48827148115E+02  0.47000000000E+01 0.  1.
         11    1    4    4    0    0 -0.11089388102E+02  0.10444929055E+02 -0.12023444379E+03  0.12119567874E+03  0.00000000000E+00 0. -1.
        -12    1    4    4    0    0  0.51603785563E+02 -0.51100152317E+02 -0.16995017420E+03  0.18481676862E+03  0.00000000000E+00 0.  1.
</event>
<event>
12    1  0.8358445E-002  0.2115244E+03  0.7818608E-02  0.1140851E+00
         21   -1    0    0  503  502  0.00000000000E+00  0.00000000000E+00  0.33751405563E+03  0.33751405563E+03  0.00000000000E+00 0. -1.
         21   -1    0    0  501  503 -0.00000000000E+00 -0.00000000000E+00 -0.13934551693E+03  0.13934551693E+03  0.00000000000E+00 0. -1.
          6    2    1    2  501    0  0.49869352090E+02  0.11036110170E+03  0.40277273884E+02  0.21290458955E+03  0.17041003613E+03 0.  0.
         24    2    3    3    0    0 -0.16820966458E+02  0.26985631531E+02  0.58078528647E+02  0.10456234347E+03  0.80925885606E+02 0.  0.
         -6    2    1    2    0  502 -0.49869352090E+02 -0.11036110170E+03  0.15789126482E+03  0.26395498301E+03  0.17342449800E+03 0.  0.
        -24    2    5    5    0    0 -0.11298304541E+02 -0.56034809834E+01  0.12482705097E+03  0.14743366718E+03  0.77432828173E+02 0.  0.
          5    1    3    3  501    0  0.66690318548E+02  0.83375470166E+02 -0.17801254763E+02  0.10834224608E+03  0.47000000000E+01 0. -1.
        -13    1    4    4    0    0 -0.23044249114E+02  0.28734588627E+02  0.76572607323E+02  0.84971043262E+02  0.00000000000E+00 0.  1.
         14    1    4    4    0    0  0.62232826557E+01 -0.17489570966E+01 -0.18494078675E+02  0.19591300212E+02  0.00000000000E+00 0. -1.
         -5    1    5    5    0  502 -0.38571047549E+02 -0.10475762071E+03  0.33064213852E+02  0.11652131584E+03  0.47000000000E+01 0.  1.
         11    1    6    6    0    0  0.32267310478E+02 -0.88459728916E+01  0.67708343480E+02  0.75523839539E+02  0.00000000000E+00 0. -1.
        -12    1    6    6    0    0 -0.43565615018E+02  0.32424919081E+01  0.57118707490E+02  0.71909827639E+02  0.00000000000E+00 0.  1.
</event>
<event>
12    1  0.8358445E-002  0.1845428E+03  0.7818608E-02  0.1164576E+00
         21   -1    0    0  503  502  0.00000000000E+00  0.00000000000E+00  0.15633437529E+03  0.15633437529E+03  0.00000000000E+00 0.  1.
         21   -1    0    0  501  503 -0.00000000000E+00 -0.00000000000E+00 -0.40631780157E+03  0.40631780157E+03  0.00000000000E+00 0.  1.
          6    2    1    2  501    0 -0.25273972524E+01 -0.63344187952E+02 -0.31849840924E+03  0.36580111047E+03  0.16837559754E+03 0.  0.
         24    2    3    3    0    0 -0.27765608484E+02  0.28969890133E+01 -0.26230777133E+03  0.27522330623E+03  0.78505922281E+02 0.  0.
         -6    2    1    2    0  502  0.25273972524E+01  0.63344187952E+02  0.68514982971E+02  0.19685106639E+03  0.17331233528E+03 0.  0.
        -24    2    5    5    0    0 -0.53924790984E+02  0.76683083452E+02  0.64274032743E+02  0.13849996229E+03  0.79138548760E+02 0.  0.
          5    1    3    3  501    0  0.25238211231E+02 -0.66241176965E+02 -0.56190637914E+02  0.90577804241E+02  0.47000000000E+01 0. -1.
        -11    1    4    4    0    0 -0.39241390157E+02 -0.15727536397E+02 -0.24101785724E+03  0.24469746548E+03  0.00000000000E+00 0.  1.
         12    1    4    4    0    0  0.11475781673E+02  0.18624525410E+02 -0.21289914088E+02  0.30525840752E+02  0.00000000000E+00 0. -1.
         -5    1    5    5    0  502  0.56452188237E+02 -0.13338895500E+02  0.42409502277E+01  0.58351104092E+02  0.47000000000E+01 0.  1.
         13    1    6    6    0    0 -0.22716696445E+01  0.58151846658E+01 -0.17508816068E+02  0.18588585093E+02  0.00000000000E+00 0. -1.
        -14    1    6    6    0    0 -0.51653121340E+02  0.70867898787E+02  0.81782848810E+02  0.11991137720E+03  0.00000000000E+00 0.  1.
</event>
<event>
12    1  0.8358445E-002  0.2099928E+03  0.7818608E-02  0.1141820E+00
         21   -1    0    0  503  502  0.00000000000E+00  0.00000000000E+00  0.59364740299E+03  0.59364740299E+03  0.00000000000E+00 0. -1.
         21   -1    0    0  501  503 -0.00000000000E+00 -0.00000000000E+00 -0.14340811805E+03  0.14340811805E+03  0.00000000000E+00 0. -1.
          6    2    1    2  501    0  0.11640274939E+03 -0.23951281404E+02 -0.31212224179E+02  0.21229970342E+03  0.17312913442E+03 0.  0.
         24    2    3    3    0    0  0.80261959113E+01 -0.50392900728E+02 -0.86029658614E+01  0.98379094492E+02  0.83669414644E+02 0.  0.
         -6    2    1    2    0  502 -0.11640274939E+03  0.23951281404E+02  0.48145150912E+03  0.52475581763E+03  0.17160958176E+03 0.  0.
        -24    2    5    5    0    0 -0.18569350162E+02  0.54810441880E+02  0.17215547173E+03  0.19885738170E+03  0.80979914224E+02 0.  0.
          5    1    3    3  501    0  0.10837655348E+03  0.26441619324E+02 -0.22609258317E+02  0.11392060892E+03  0.47000000000E+01 0. -1.
        -13    1    4    4    0    0 -0.20084007889E+02  0.14273563196E+02 -0.12754768391E+02  0.27745019299E+02  0.00000000000E+00 0.  1.
         14    1    4    4    0    0  0.28110203800E+02 -0.64666463924E+02  0.41518025294E+01  0.70634075193E+02  0.00000000000E+00 0. -1.
         -5    1    5    5    0  502 -0.97833399226E+02 -0.30859160476E+02  0.30929603739E+03  0.32589843592E+03  0.47000000000E+01 0.  1.
         11    1    6    6    0    0  0.23607403412E+02  0.11625299432E+02  0.10635784618E+03  0.10956481428E+03  0.00000000000E+00 0. -1.
        -12    1    6    6    0    0 -0.42176753575E+02  0.43185142449E+02  0.65797625545E+02  0.89292567428E+02  0.00000000000E+00 0.  1.
</event>
<event>
12    1  0.8358445E-002  0.2032285E+03  0.7818608E-02  0.1149860E+00
         21   -1    0    0  501  502  0.00000000000E+00  0.00000000000E+00  0.12312226711E+04  0.12312226711E+04  0.00000000000E+00 0.  1.
         21   -1    0    0  502  503 -0.00000000000E+00 -0.00000000000E+00 -0.14234520678E+03  0.14234520678E+03  0.00000000000E+00 0.  1.
         -6    2    1    2    0  503 -0.31741321155E+02  0.10355325241E+03 -0.65802512295E+02  0.20113976857E+03  0.15619362447E+03 0.  0.
        -24    2    3    3    0    0 -0.73987713100E+02  0.69544432580E+02 -0.21771981785E+02  0.13112451970E+03  0.80056296954E+02 0.  0.
          6    2    1    2  501    0  0.31741321155E+02 -0.10355325241E+03  0.11546799766E+04  0.11724281093E+04  0.17196230853E+03 0.  0.
         24    2    5    5    0    0  0.31406376312E+02 -0.86415213521E+02  0.11460352616E+04  0.11526633512E+04  0.82353086207E+02 0.  0.
          5    1    5    5  501    0  0.33494484304E+00 -0.17138038886E+02  0.86447150190E+01  0.19764758097E+02  0.47000000000E+01 0. -1.
        -11    1    6    6    0    0 -0.23677025615E+02 -0.15205517798E+02  0.44208559341E+03  0.44298022666E+03  0.00000000000E+00 0.  1.
         12    1    6    6    0    0  0.55083401926E+02 -0.71209695722E+02  0.70394966820E+03  0.70968312457E+03  0.00000000000E+00 0. -1.
         -5    1    3    3    0  503  0.42246391945E+02  0.34008819826E+02 -0.44030530510E+02  0.70015248877E+02  0.47000000000E+01 0.  1.
         13    1    4    4    0    0  0.16233278337E+01  0.42088671321E+02  0.12128474854E+02  0.43831396841E+02  0.00000000000E+00 0. -1.
        -14    1    4    4    0    0 -0.75611040933E+02  0.27455761260E+02 -0.33900456639E+02  0.87293122854E+02  0.00000000000E+00 0.  1.
</event>
<event>
12    1  0.8358445E-002  0.2617902E+03  0.7818608E-02  0.1106099E+00
         21   -1    0    0  501  502  0.00000000000E+00  0.00000000000E+00  0.17198405040E+03  0.17198405040E+03  0.00000000000E+00 0. -1.
         21   -1    0    0  502  503 -0.00000000000E+00 -0.00000000000E+00 -0.10715873377E+04  0.10715873377E+04  0.00000000000E+00 0.  1.
         -6    2    1    2    0  503 -0.11478604458E+03  0.16011729851E+03 -0.94263876302E+03  0.97826747659E+03  0.17212214527E+03 0.  0.
        -24    2    3    3    0    0 -0.13518220494E+03  0.16268759540E+03 -0.71525974963E+03  0.74991267477E+03  0.77659694256E+02 0.  0.
          6    2    1    2  501    0  0.11478604458E+03 -0.16011729851E+03  0.43035475693E+02  0.26530391153E+03  0.17239700691E+03 0.  0.
         24    2    5    5    0    0  0.15878056962E+02 -0.20596188414E+02 -0.93299311656E+01  0.86381704935E+02  0.81843971445E+02 0.  0.
          5    1    5    5  501    0  0.98907987615E+02 -0.13952111010E+03  0.52365406858E+02  0.17892220660E+03  0.47000000000E+01 0. -1.
        -11    1    6    6    0    0 -0.20885338285E+02 -0.37006279493E+02  0.67571396916E+01  0.43026980071E+02  0.00000000000E+00 0.  1.
         12    1    6    6    0    0  0.36763395247E+02  0.16410091080E+02 -0.16087070857E+02  0.43354724864E+02  0.00000000000E+00 0. -1.
         -5    1    3    3    0  503  0.20396160367E+02 -0.25702968823E+01 -0.22737901338E+03  0.22835480181E+03  0.47000000000E+01 0.  1.
         13    1    4    4    0    0 -0.33138822187E+02  0.22111440772E+02 -0.60018843219E+02  0.72037204903E+02  0.00000000000E+00 0. -1.
        -14    1    4    4    0    0 -0.10204338276E+03  0.14057615462E+03 -0.65524090641E+03  0.67787546987E+03  0.00000000000E+00 0.  1.
</event>
<event>
12    1  0.8358445E-002  0.3046950E+03  0.7818608E-02  0.1083802E+00
         21   -1    0    0  503  502  0.00000000000E+00  0.00000000000E+00  0.12482935700E+04  0.12482935700E+04  0.00000000000E+00 0. -1.
         21   -1    0    0  501  503 -0.00000000000E+00 -0.00000000000E+00 -0.73121467423E+02  0.73121467423E+02  0.00000000000E+00 0. -1.
          6    2    1    2  501    0  0.17294338851E+03  0.18157820151E+03  0.52718376353E+03  0.60536481219E+03  0.16019917734E+03 0.  0.
         24    2    3    3    0    0  0.40759832471E+02  0.92440166083E+02  0.30745876104E+03  0.33385192380E+03  0.81973587422E+02 0.  0.
         -6    2    1    2    0  502 -0.17294338851E+03 -0.18157820151E+03  0.64798833903E+03  0.71605022521E+03  0.17308662170E+03 0.  0.
        -24    2    5    5    0    0 -0.18349962963E+03 -0.11759147659E+03  0.56379705410E+03  0.60967354708E+03  0.79591747999E+02 0.  0.
          5    1    3    3  501    0  0.13218355603E+03  0.89138035428E+02  0.21972500248E+03  0.27151288839E+03  0.47000000000E+01 0. -1.
        -13    1    4    4    0    0  0.26936097791E+02 -0.72217324113E+01  0.47224940347E+02  0.54844341312E+02  0.00000000000E+00 0.  1.
         14    1    4    4    0    0  0.13823734681E+02  0.99661898495E+02  0.26023382070E+03  0.27900758249E+03  0.00000000000E+00 0. -1.
         -5    1    5    5    0  502  0.10556241126E+02 -0.63986724921E+02  0.84191284928E+02  0.10637667813E+03  0.47000000000E+01 0.  1.
         13    1    6    6    0    0 -0.89095078237E+02 -0.10323818225E+03  0.34288624258E+03  0.36900817144E+03  0.00000000000E+00 0. -1.
        -14    1    6    6    0    0 -0.94404551395E+02 -0.14353294344E+02  0.22091081152E+03  0.24066537564E+03  0.00000000000E+00 0.  1.
</event>
<event>
12    1  0.8358445E-002  0.2044802E+03  0.7818608E-02  0.1147644E+00
         21   -1    0    0  503  502  0.00000000000E+00  0.00000000000E+00  0.10634754548E+04  0.10634754548E+04  0.00000000000E+00 0. -1.
         21   -1    0    0  501  503 -0.00000000000E+00 -0.00000000000E+00 -0.56224026413E+02  0.56224026413E+02  0.00000000000E+00 0.  1.
          6    2    1    2  501    0  0.94374375503E+02 -0.19756229569E+02  0.17688567508E+03  0.26452732393E+03  0.17143316978E+03 0.  0.
         24    2    3    3    0    0  0.73418675116E+01  0.38089868184E+02  0.67111109338E+02  0.11289166270E+03  0.82072440166E+02 0.  0.
         -6    2    1    2    0  502 -0.94374375503E+02  0.19756229569E+02  0.83036575332E+03  0.85517215730E+03  0.18032000157E+03 0.  0.
        -24    2    5    5    0    0 -0.11627536181E+03  0.13795903472E+02  0.39954192602E+03  0.42372524416E+03  0.78734015330E+02 0.  0.
          5    1    3    3  501    0  0.87032507991E+02 -0.57846097752E+02  0.10977456574E+03  0.15163566123E+03  0.47000000000E+01 0. -1.
        -13    1    4    4    0    0 -0.33367410362E+02  0.44346028464E+01  0.43583824232E+02  0.55069043131E+02  0.00000000000E+00 0.  1.
         14    1    4    4    0    0  0.40709277873E+02  0.33655265337E+02  0.23527285106E+02  0.57822619573E+02  0.00000000000E+00 0. -1.
         -5    1    5    5    0  502  0.21900986304E+02  0.59603260965E+01  0.43082382730E+03  0.43144691314E+03  0.47000000000E+01 0.  1.
         11    1    6    6    0    0 -0.14197256908E+02  0.26539486981E+02  0.16340613440E+03  0.16615496151E+03  0.00000000000E+00 0. -1.
        -12    1    6    6    0    0 -0.10207810490E+03 -0.12743583509E+02  0.23613579162E+03  0.25757028265E+03  0.00000000000E+00 0.  1.
</event>
<event>
12    1  0.8358445E-002  0.2548458E+03  0.7818608E-02  0.1110872E+00
         21   -1    0    0  501  502  0.00000000000E+00  0.00000000000E+00  0.82728552170E+02  0.82728552170E+02  0.00000000000E+00 0. -1.
         21   -1    0    0  502  503 -0.00000000000E+00 -0.00000000000E+00 -0.77457369956E+03  0.77457369956E+03  0.00000000000E+00 0.  1.
         -6    2    1    2    0  503 -0.57886135380E+02 -0.18196572446E+03 -0.36541208204E+03  0.44550238511E+03  0.16877220118E+03 0.  0.
        -24    2    3    3    0    0 -0.88368659321E+02 -0.89407158094E+02 -0.27442464236E+03  0.31209670063E+03  0.79327210576E+02 0.  0.
          6    2    1    2  501    0  0.57886135380E+02  0.18196572446E+03 -0.32643306535E+03  0.41179986661E+03  0.16296703484E+03 0.  0.
         24    2    5    5    0    0  0.70661905052E+02  0.87290915843E+02 -0.11530772702E+03  0.18001863752E+03  0.80610353732E+02 0.  0.
          5    1    5    5  501    0 -0.12775769673E+02  0.94674808620E+02 -0.21112533833E+03  0.23178122910E+03  0.47000000000E+01 0. -1.
        -13    1    6    6    0    0  0.30417781819E+02  0.86221108313E+02 -0.10342412439E+03  0.13804300227E+03  0.00000000000E+00 0.  1.
         14    1    6    6    0    0  0.40244123233E+02  0.10698075294E+01 -0.11883602627E+02  0.41975635247E+02  0.00000000000E+00 0. -1.
         -5    1    3    3    0  503  0.30482523942E+02 -0.92558566369E+02 -0.90987439678E+02  0.13340568449E+03  0.47000000000E+01 0.  1.
         13    1    4    4    0    0 -0.13338480402E+02 -0.36202560173E+02 -0.24300814314E+02  0.45596820052E+02  0.00000000000E+00 0. -1.
        -14    1    4    4    0    0 -0.75030178920E+02 -0.53204597920E+02 -0.25012382805E+03  0.26649988058E+03  0.00000000000E+00 0.  1.
</event>
<event>
12    1  0.8358445E-002  0.1828032E+03  0.7818608E-02  0.1165790E+00
         21   -1    0    0  501  502  0.00000000000E+00  0.00000000000E+00  0.38008101618E+03  0.38008101618E+03  0.00000000000E+00 0.  1.
         21   -1    0    0  502  503 -0.00000000000E+00 -0.00000000000E+00 -0.89795579580E+02  0.89795579580E+02  0.00000000000E+00 0.  1.
         -6    2    1    2    0  503  0.55569531173E+02  0.26273407735E+02  0.18856523239E+03  0.26067807329E+03  0.16916839622E+03 0.  0.
        -24    2    3    3    0    0  0.59556159790E+02 -0.37094629030E+02  0.15761526290E+03  0.18988688809E+03  0.79319048757E+02 0.  0.
          6    2    1    2  501    0 -0.55569531173E+02 -0.26273407735E+02  0.10172020420E+03  0.20919852246E+03  0.17215910406E+03 0.  0.
         24    2    5    5    0    0 -0.72920573355E+02 -0.25640517683E+02  0.22522272179E+01  0.10811723013E+03  0.75560682619E+02 0.  0.
          5    1    5    5  501    0  0.17351042182E+02 -0.63289005224E+00  0.99467976985E+02  0.10108129234E+03  0.47000000000E+01 0. -1.
        -13    1    6    6    0    0 -0.51767760303E+02 -0.70830089751E+01  0.36541311713E+02  0.63759999096E+02  0.00000000000E+00 0.  1.
         14    1    6    6    0    0 -0.21152813051E+02 -0.18557508708E+02 -0.34289084495E+02  0.44357231033E+02  0.00000000000E+00 0. -1.
         -5    1    3    3    0  503 -0.39866286171E+01  0.63368036766E+02  0.30949969491E+02  0.70791185205E+02  0.47000000000E+01 0.  1.
         11    1    4    4    0    0 -0.12280602141E+02 -0.10837167349E+02  0.77154493175E+02  0.78873780195E+02  0.00000000000E+00 0. -1.
        -12    1    4    4    0    0  0.71836761931E+02 -0.26257461681E+02  0.80460769726E+02  0.11101310789E+03  0.00000000000E+00 0.  1.
</event>
<event>
12    1  0.8358445E-002  0.1724487E+03  0.7818608E-02  0.1176146E+00
         21   -1    0    0  501  502  0.00000000000E+00  0.00000000000E+00  0.74924897309E+03  0.74924897309E+03  0.00000000000E+00 0. -1.
         21   -1    0    0  502  503 -0.00000000000E+00 -0.00000000000E+00 -0.74904316355E+02  0.74904316355E+02  0.00000000000E+00 0. -1.
         -6    2    1    2    0  503 -0.11408027813E+01  0.10759937249E+02  0.53355384056E+02  0.18051408608E+03  0.17210886260E+03 0.  0.
        -24    2    3    3    0    0  0.50182215384E+02 -0.21755070986E+02  0.68583452560E+02  0.11770276525E+03  0.78477468921E+02 0.  0.
          6    2    1    2  501    0  0.11408027813E+01 -0.10759937249E+02  0.62098927268E+03  0.64363920337E+03  0.16889840036E+03 0.  0.
         24    2    5    5    0    0 -0.14090930925E+02 -0.60283056642E+02  0.26137072352E+03  0.28027693789E+03  0.80049394445E+02 0.  0.
          5    1    5    5  501    0  0.15231733706E+02  0.49523119393E+02  0.35961854916E+03  0.36336226547E+03  0.47000000000E+01 0. -1.
        -11    1    6    6    0    0  0.30978808903E+02 -0.13797817847E+02  0.12155673894E+03  0.12619868129E+03  0.00000000000E+00 0.  1.
         12    1    6    6    0    0 -0.45069739827E+02 -0.46485238794E+02  0.13981398458E+03  0.15407825660E+03  0.00000000000E+00 0. -1.
         -5    1    3    3    0  503 -0.51323018166E+02  0.32515008234E+02 -0.15228068504E+02  0.62811320831E+02  0.47000000000E+01 0.  1.
         13    1    4    4    0    0 -0.12159939341E+02  0.13601919144E+02 -0.36916440958E+00  0.18248633141E+02  0.00000000000E+00 0. -1.
        -14    1    4    4    0    0  0.62342154725E+02 -0.35356990129E+02  0.68952616969E+02  0.99454132110E+02  0.00000000000E+00 0.  1.
</event>
<event>
12    1  0.8358445E-002  0.2020948E+03  0.7818608E-02  0.1148130E+00
         21   -1    0    0  503  502  0.00000000000E+00  0.00000000000E+00  0.58491339925E+03  0.58491339925E+03  0.00000000000E+00 0.  1.
         21   -1    0    0  501  503 -0.00000000000E+00 -0.00000000000E+00 -0.84973690504E+02  0.84973690504E+02  0.00000000000E+00 0. -1.
          6    2    1    2  501    0  0.55273318685E+02 -0.90666733044E+02  0.39286611581E+03  0.44179872182E+03  0.17194978745E+03 0.  0.
         24    2    3    3    0    0  0.65224949837E+02 -0.11218644516E+03  0.38709297587E+03  0.41694812591E+03  0.84644404272E+02 0.  0.
         -6    2    1    2    0  502 -0.55273318685E+02  0.90666733044E+02  0.10707359293E+03  0.22808836794E+03  0.17112554761E+03 0.  0.
        -24    2    5    5    0    0 -0.24152402897E+02  0.12276137265E+03  0.51603471538E+02  0.15669087738E+03  0.78964673100E+02 0.  0.
          5    1    3    3  501    0 -0.99516311520E+01  0.21519712112E+02  0.57731399391E+01  0.24850595902E+02  0.47000000000E+01 0. -1.
        -13    1    4    4    0    0  0.85476424146E+02 -0.89945558187E+02  0.32692190182E+03  0.34967749772E+03  0.00000000000E+00 0.  1.
         14    1    4    4    0    0 -0.20251474308E+02 -0.22240886969E+02  0.60171074052E+02  0.67270628192E+02  0.00000000000E+00 0. -1.
         -5    1    5    5    0  502 -0.31120915788E+02 -0.32094639606E+02  0.55470121396E+02  0.71397490562E+02  0.47000000000E+01 0.  1.
         13    1    6    6    0    0 -0.38486729660E+02  0.62573680312E+02 -0.39094960007E+01  0.73566147015E+02  0.00000000000E+00 0. -1.
        -14    1    6    6    0    0  0.14334326763E+02  0.60187692338E+02  0.55512967539E+02  0.83124730362E+02  0.00000000000E+00 0.  1.
</event>
<event>
12    1  0.8358445E-002  0.2057048E+03  0.7818608E-02  0.1145223E+00
         21   -1    0    0  503  502  0.00000000000E+00  0.00000000000E+00  0.52821867744E+03  0.52821867744E+03  0.00000000000E+00 0.  1.
         21   -1    0    0  501  503 -0.00000000000E+00 -0.00000000000E+00 -0.10030450229E+03  0.10030450229E+03  0.00000000000E+00 0.  1.
          6    2    1    2  501    0  0.76188326987E+01 -0.11041947209E+03  0.71124331750E+02  0.21668164231E+03  0.17216781674E+03 0.  0.
         24    2    3    3    0    0  0.69059743027E+02 -0.51279553498E+02  0.26787264618E+02  0.12045076912E+03  0.79949918838E+02 0.  0.
         -6    2    1    2    0  502 -0.76188326987E+01  0.11041947209E+03  0.35678984340E+03  0.41184153743E+03  0.17338959936E+03 0.  0.
        -24    2    5    5    0    0 -0.14950868348E+02  0.94193485605E+02  0.11311469438E+03  0.16747151137E+03  0.78459109356E+02 0.  0.
          5    1    3    3  501    0 -0.61440910329E+02 -0.59139918593E+02  0.44337067133E+02  0.96230873191E+02  0.47000000000E+01 0. -1.
        -11    1    4    4    0    0  0.46967562762E+02 -0.67165661257E+02  0.38833110440E+02  0.90692824801E+02  0.00000000000E+00 0.  1.
         12    1    4    4    0    0  0.22092180265E+02  0.15886107759E+02 -0.12045845822E+02  0.29757944320E+02  0.00000000000E+00 0. -1.
         -5    1    5    5    0  502  0.73320356489E+01  0.16225986487E+02  0.24367514902E+03  0.24437002606E+03  0.47000000000E+01 0.  1.
         11    1    6    6    0    0  0.30439184626E+02  0.19688568146E+02  0.33818492657E+02  0.49576951519E+02  0.00000000000E+00 0. -1.
        -12    1    6    6    0    0 -0.45390052974E+02  0.74504917459E+02  0.79296201721E+02  0.11789455985E+03  0.00000000000E+00 0.  1.
</event>
<event>
12    1  0.8358445E-002  0.2915073E+03  0.7818608E-02  0.1089710E+00
         21   -1    0    0  503  502  0.00000000000E+00  0.00000000000E+00  0.55669319474E+03  0.55669319474E+03  0.00000000000E+00 0. -1.
         21   -1    0    0  501  503 -0.00000000000E+00 -0.00000000000E+00 -0.38289783104E+03  0.38289783104E+03  0.00000000000E+00 0.  1.
          6    2    1    2  501    0 -0.15902126139E+03 -0.17112460161E+03 -0.27794052365E+03  0.40196490439E+03  0.17249190944E+03 0.  0.
         24    2    3    3    0    0 -0.16327514730E+03 -0.13500377063E+03 -0.15732239553E+03  0.27589495234E+03  0.80516437981E+02 0.  0.
         -6    2    1    2    0  502  0.15902126139E+03  0.17112460161E+03  0.45173588735E+03  0.53762612139E+03  0.17437070749E+03 0.  0.
        -24    2    5    5    0    0  0.10112014699E+03  0.11761338581E+03  0.41612934782E+03  0.45098949563E+03  0.78547427736E+02 0.  0.
          5    1    3    3  501    0  0.42538859138E+01 -0.36120830987E+02 -0.12061812812E+03  0.12606995204E+03  0.47000000000E+01 0. -1.
        -13    1    4    4    0    0 -0.95072927004E+02 -0.37274468929E+02 -0.10259586150E+03  0.14475551209E+03  0.00000000000E+00 0.  1.
         14    1    4    4    0    0 -0.68202220297E+02 -0.97729301697E+02 -0.54726534022E+02  0.13113944025E+03  0.00000000000E+00 0. -1.
         -5    1    5    5    0  502  0.57901114400E+02  0.53511215807E+02  0.35606539530E+02  0.86636625761E+02  0.47000000000E+01 0.  1.
         11    1    6    6    0    0  0.25007566333E+02  0.88741921512E+02  0.23324364485E+03  0.25080491397E+03  0.00000000000E+00 0. -1.
        -12    1    6    6    0    0  0.76112580655E+02  0.28871464295E+02  0.18288570298E+03  0.20018458167E+03  0.00000000000E+00 0.  1.
</event>
<event>
12    1  0.8358445E-002  0.1841420E+03  0.7818608E-02  0.1164273E+00
         21   -1    0    0  503  502  0.00000000000E+00  0.00000000000E+00  0.91616484785E+03  0.91616484785E+03  0.00000000000E+00 0. -1.
         21   -1    0    0  501  503 -0.00000000000E+00 -0.00000000000E+00 -0.49931830202E+02  0.49931830202E+02  0.00000000000E+00 0. -1.
          6    2    1    2  501    0  0.15496687532E+02 -0.58414455803E+02  0.18249496814E+03  0.25799639748E+03  0.17206199971E+03 0.  0.
         24    2    3    3    0    0 -0.25065630736E+02 -0.96166403768E+02  0.12252936591E+03  0.17621330210E+03  0.78494708540E+02 0.  0.
         -6    2    1    2    0  502 -0.15496687532E+02  0.58414455803E+02  0.68373804951E+03  0.70810028057E+03  0.17394220602E+03 0.  0.
        -24    2    5    5    0    0  0.30384518656E+01 -0.19890364574E+02  0.18201505153E+03  0.19994355968E+03  0.80268856247E+02 0.  0.
          5    1    3    3  501    0  0.40562318268E+02  0.37751947965E+02  0.59965602231E+02  0.81783095376E+02  0.47000000000E+01 0. -1.
        -11    1    4    4    0    0 -0.62590203138E+01  0.81904852039E+01  0.41496807185E+02  0.42757974574E+02  0.00000000000E+00 0.  1.
         12    1    4    4    0    0 -0.18806610422E+02 -0.10435688897E+03  0.81032558725E+02  0.13345532753E+03  0.00000000000E+00 0. -1.
         -5    1    5    5    0  502 -0.18535139398E+02  0.78304820377E+02  0.50172299798E+03  0.50815672089E+03  0.47000000000E+01 0.  1.
         13    1    6    6    0    0 -0.26369161750E+02  0.16916401613E+02  0.10581741996E+03  0.11035770794E+03  0.00000000000E+00 0. -1.
        -14    1    6    6    0    0  0.29407613615E+02 -0.36806766188E+02  0.76197631567E+02  0.89585851741E+02  0.00000000000E+00 0.  1.
</event>
<event>
12    1  0.8358445E-002  0.1728801E+03  0.7818608E-02  0.1175894E+00
         21   -1    0    0  501  502  0.00000000000E+00  0.00000000000E+00  0.72108493069E+03  0.72108493069E+03  0.00000000000E+00 0.  1.
         21   -1    0    0  502  503 -0.00000000000E+00 -0.00000000000E+00 -0.43080172646E+02  0.43080172646E+02  0.00000000000E+00 0.  1.
         -6    2    1    2    0  503  0.43024524544E+01  0.18147637039E+02  0.24933892634E+03  0.30340968848E+03  0.17187114664E+03 0.  0.
        -24    2    3    3    0    0  0.47190885627E+02  0.62864501570E+02  0.16807094596E+03  0.20110822071E+03  0.77574147210E+02 0.  0.
          6    2    1    2  501    0 -0.43024524544E+01 -0.18147637039E+02  0.42866583171E+03  0.46075541486E+03  0.16790863356E+03 0.  0.
         24    2    5    5    0    0  0.13092807563E+02  0.36071028904E+02  0.36255941691E+03  0.37338032181E+03  0.80566700263E+02 0.  0.
          5    1    5    5  501    0 -0.17395260018E+02 -0.54218665943E+02  0.66106414799E+02  0.87375093049E+02  0.47000000000E+01 0. -1.
        -13    1    6    6    0    0  0.16465732372E+02 -0.23559851394E+02  0.95949332006E+02  0.10016217476E+03  0.00000000000E+00 0.  1.
         14    1    6    6    0    0 -0.33729248085E+01  0.59630880297E+02  0.26661008490E+03  0.27321814705E+03  0.00000000000E+00 0. -1.
         -5    1    3    3    0  503 -0.42888433173E+02 -0.44716864531E+02  0.81267980378E+02  0.10230146777E+03  0.47000000000E+01 0.  1.
         11    1    4    4    0    0  0.22832318776E+02  0.22669546597E+02  0.14541659572E+03  0.14893357390E+03  0.00000000000E+00 0. -1.
        -12    1    4    4    0    0  0.24358566852E+02  0.40194954973E+02  0.22654350237E+02  0.52174646803E+02  0.00000000000E+00 0.  1.
</event>
<event>
12    1  0.8358445E-002  0.2456515E+03  0.7818608E-02  0.1117468E+00
         21   -1    0    0  501  502  0.00000000000E+00  0.00000000000E+00  0.38691594987E+03  0.38691594987E+03  0.00000000000E+00 0. -1.
         21   -1    0    0  502  503 -0.00000000000E+00 -0.00000000000E+00 -0.15329966197E+03  0.15329966197E+03  0.00000000000E+00 0. -1.
         -6    2    1    2    0  503 -0.16103429369E+03 -0.31867315054E+02  0.15417082097E+03  0.29002292605E+03  0.18274869654E+03 0.  0.
        -24    2    3    3    0    0 -0.10091481097E+02 -0.50478021697E+02  0.67176989182E+02  0.11475140000E+03  0.77493659496E+02 0.  0.
          6    2    1    2  501    0  0.16103429369E+03  0.31867315054E+02  0.79445466926E+02  0.25019268579E+03  0.17128113817E+03 0.  0.
         24    2    5    5    0    0  0.11872214940E+03 -0.10396238999E+02  0.11205852433E+03  0.18191218294E+03  0.79573229691E+02 0.  0.
          5    1    5    5  501    0  0.42312144287E+02  0.42263554053E+02 -0.32613057405E+02  0.68280502844E+02  0.47000000000E+01 0. -1.
        -11    1    6    6    0    0  0.23459804559E+02  0.31800981834E+01  0.75252012113E+02  0.78888153619E+02  0.00000000000E+00 0.  1.
         12    1    6    6    0    0  0.95262344843E+02 -0.13576337182E+02  0.36806512219E+02  0.10302402932E+03  0.00000000000E+00 0. -1.
         -5    1    3    3    0  503 -0.15094281259E+03  0.18610706642E+02  0.86993831787E+02  0.17527152605E+03  0.47000000000E+01 0.  1.
         13    1    4    4    0    0 -0.31586203585E+02  0.47312121113E+01  0.34804572875E+02  0.47238024069E+02  0.00000000000E+00 0. -1.
        -14    1    4    4    0    0  0.21494722488E+02 -0.55209233808E+02  0.32372416307E+02  0.67513375935E+02  0.00000000000E+00 0.  1.
</event>
<event>
12    1  0.8358445E-002  0.1733114E+03  0.7818608E-02  0.1174469E+00
         21   -1    0    0  501  502  0.00000000000E+00  0.00000000000E+00  0.76179788429E+02  0.76179788429E+02  0.00000000000E+00 0.  1.
         21   -1    0    0  502  503 -0.00000000000E+00 -0.00000000000E+00 -0.39840654879E+03  0.39840654879E+03  0.00000000000E+00 0.  1.
         -6    2    1    2    0  503  0.19543861429E+02  0.19062234825E+02 -0.18599160039E+03  0.25413935264E+03  0.17102223196E+03 0.  0.
        -24    2    3    3    0    0  0.54218050610E+02 -0.27783985351E+01 -0.43468251544E+02  0.10576715973E+03  0.79686176184E+02 0.  0.
          6    2    1    2  501    0 -0.19543861429E+02 -0.19062234825E+02 -0.13623515996E+03  0.22044698458E+03  0.17114766397E+03 0.  0.
         24    2    5    5    0    0 -0.69215457233E+01  0.52772041067E+02 -0.98171671351E+02  0.13804306955E+03  0.81150575359E+02 0.  0.
          5    1    5    5  501    0 -0.12622315706E+02 -0.71834275892E+02 -0.38063488612E+02  0.82403915028E+02  0.47000000000E+01 0. -1.
        -13    1    6    6    0    0 -0.54807571961E+01  0.47044640356E+02 -0.11276081646E+03  0.12230387816E+03  0.00000000000E+00 0.  1.
         14    1    6    6    0    0 -0.14407885272E+01  0.57274007109E+01  0.14589145107E+02  0.15739191385E+02  0.00000000000E+00 0. -1.
         -5    1    3    3    0  503 -0.34674189181E+02  0.21840633360E+02 -0.14252334885E+03  0.14837219291E+03  0.47000000000E+01 0.  1.
         13    1    4    4    0    0  0.63450430269E+02 -0.17269190929E+02 -0.54449980101E+02  0.85375537420E+02  0.00000000000E+00 0. -1.
        -14    1    4    4    0    0 -0.92323796597E+01  0.14490792394E+02  0.10981728557E+02  0.20391622311E+02  0.00000000000E+00 0.  1.
</event>
<event>
12    1  0.8358445E-002  0.1787606E+03  0.7818608E-02  0.1169216E+00
         21   -1    0    0  503  502  0.00000000000E+00  0.00000000000E+00  0.40528754669E+02  0.40528754669E+02  0.00000000000E+00 0.  1.
         21   -1    0    0  501  503 -0.00000000000E+00 -0.00000000000E+00 -0.78780794433E+03  0.78780794433E+03  0.00000000000E+00 0.  1.
          6    2    1    2  501    0 -0.35966097825E+01 -0.48143062467E+02 -0.34680326627E+03  0.38977504730E+03  0.17123490281E+03 0.  0.
         24    2    3    3    0    0  0.36419295038E+02 -0.61229163901E+02 -0.32354850204E+03  0.34144914588E+03  0.82634801906E+02 0.  0.
         -6    2    1    2    0  502  0.35966097825E+01  0.48143062467E+02 -0.40047592339E+03  0.43856165170E+03  0.17211817759E+03 0.  0.
        -24    2    5    5    0    0 -0.57846017253E+02 -0.98415390444E+00 -0.18627950914E+03  0.21032739992E+03  0.78679281648E+02 0.  0.
          5    1    3    3  501    0 -0.40015904820E+02  0.13086101433E+02 -0.23254764235E+02  0.48325901429E+02  0.47000000000E+01 0. -1.
        -13    1    4    4    0    0  0.25886321112E+02  0.60393364570E+01 -0.29887275633E+02  0.39997805569E+02  0.00000000000E+00 0.  1.
         14    1    4    4    0    0  0.10532973926E+02 -0.67268500358E+02 -0.29366122640E+03  0.30145134031E+03  0.00000000000E+00 0. -1.
         -5    1    5    5    0  502  0.61442627035E+02  0.49127216372E+02 -0.21419641425E+03  0.22823425177E+03  0.47000000000E+01 0.  1.
         13    1    6    6    0    0  0.70875807495E+01  0.15419347072E+02 -0.59837145021E+01  0.17994301994E+02  0.00000000000E+00 0. -1.
        -14    1    6    6    0    0 -0.64933598002E+02 -0.16403500976E+02 -0.18029579464E+03  0.19233309793E+03  0.00000000000E+00 0.  1.
</event>
<event>
12    1  0.8358445E-002  0.1903189E+03  0.7818608E-02  0.1158203E+00
         21   -1    0    0  501  502  0.00000000000E+00  0.00000000000E+00  0.28309600874E+03  0.28309600874E+03  0.00000000000E+00 0.  1.
         21   -1    0    0  502  503 -0.00000000000E+00 -0.00000000000E+00 -0.13279694347E+03  0.13279694347E+03  0.00000000000E+00 0.  1.
         -6    2    1    2    0  503  0.76720108535E+02 -0.25473643726E+02  0.11526036984E+03  0.22249993423E+03  0.17229737752E+03 0.  0.
        -24    2    3    3    0    0  0.28237118160E+02 -0.41859344207E+02  0.13722911991E+03  0.16660890172E+03  0.79857092611E+02 0.  0.
          6    2    1    2  501    0 -0.76720108535E+02  0.25473643726E+02  0.35038695425E+02  0.19339301798E+03  0.17215768251E+03 0.  0.
         24    2    5    5    0    0 -0.70756139595E+02 -0.38569347913E+02 -0.10853950354E+02  0.11423937852E+03  0.80242142773E+02 0.  0.
          5    1    5    5  501    0 -0.59639689406E+01  0.64042991639E+02  0.45892645778E+02  0.79153639462E+02  0.47000000000E+01 0. -1.
        -11    1    6    6    0    0  0.17616446555E+01  0.19477344900E+02  0.45583859488E+01  0.20081066672E+02  0.00000000000E+00 0.  1.
         12    1    6    6    0    0 -0.72517784250E+02 -0.58046692813E+02 -0.15412336302E+02  0.94158311844E+02  0.00000000000E+00 0. -1.
         -5    1    3    3    0  503  0.48482990376E+02  0.16385700481E+02 -0.21968750071E+02  0.55891032516E+02  0.47000000000E+01 0.  1.
         13    1    4    4    0    0  0.16834411229E+02  0.10622195771E+02  0.72381549736E+00  0.19918643360E+02  0.00000000000E+00 0. -1.
        -14    1    4    4    0    0  0.11402706930E+02 -0.52481539978E+02  0.13650530441E+03  0.14669025836E+03  0.00000000000E+00 0.  1.
</event>
<event>
12    1  0.8358445E-002  0.2337919E+03  0.7818608E-02  0.1124805E+00
         21   -1    0    0  503  502  0.00000000000E+00  0.00000000000E+00  0.47244683084E+03  0.47244683084E+03  0.00000000000E+00 0. -1.
         21   -1    0    0  501  503 -0.00000000000E+00 -0.00000000000E+00 -0.12732287552E+03  0.12732287552E+03  0.00000000000E+00 0. -1.
          6    2    1    2  501    0 -0.65623843398E+02  0.13639221078E+03  0.71914041001E+02  0.24018343149E+03  0.17206721794E+03 0.  0.
         24    2    3    3    0    0  0.43191843131E+01  0.84848328681E+01  0.10292402833E+02  0.81843162645E+02  0.80633256003E+02 0.  0.
         -6    2    1    2    0  502  0.65623843398E+02 -0.13639221078E+03  0.27320991432E+03  0.35958627486E+03  0.17818335445E+03 0.  0.
        -24    2    5    5    0    0  0.95329774665E+02 -0.99691938882E+02  0.12031097536E+03  0.19949402693E+03  0.79352929217E+02 0.  0.
          5    1    3    3  501    0 -0.69943027711E+02  0.12790737791E+03  0.61621638168E+02  0.15834026885E+03  0.47000000000E+01 0. -1.
        -13    1    4    4    0    0  0.99671128550E+01  0.53097956556E+01  0.45071957202E+02  0.46465240713E+02  0.00000000000E+00 0.  1.
         14    1    4    4    0    0 -0.56479285419E+01  0.31750372125E+01 -0.34779554369E+02  0.35377921931E+02  0.00000000000E+00 0. -1.
         -5    1    5    5    0  502 -0.29705931267E+02 -0.36700271896E+02  0.15289893896E+03  0.16009224793E+03  0.47000000000E+01 0.  1.
         13    1    6    6    0    0  0.53468166172E+02 -0.88971035700E+01  0.67027272265E+02  0.86201267236E+02  0.00000000000E+00 0. -1.
        -14    1    6    6    0    0  0.41861608493E+02 -0.90794835312E+02  0.53283703091E+02  0.11329275970E+03  0.00000000000E+00 0.  1.
</event>
<event>
12    1  0.8358445E-002  0.1836958E+03  0.7818608E-02  0.1164274E+00
         21   -1    0    0  503  502  0.00000000000E+00  0.00000000000E+00  0.32882702423E+03  0.32882702423E+03  0.00000000000E+00 0.  1.
         21   -1    0    0  501  503 -0.00000000000E+00 -0.00000000000E+00 -0.16305485114E+03  0.16305485114E+03  0.00000000000E+00 0.  1.
          6    2    1    2  501    0 -0.26966791274E+02 -0.58125064564E+02 -0.66844276334E+02  0.19547968374E+03  0.17215812067E+03 0.  0.
         24    2    3    3    0    0 -0.64964196773E+02  0.11748370211E+02 -0.41993716192E+02  0.11201867457E+03  0.80164457133E+02 0.  0.
         -6    2    1    2    0  502  0.26966791274E+02  0.58125064564E+02  0.23261644942E+03  0.29640219163E+03  0.17215724121E+03 0.  0.
        -24    2    5    5    0    0 -0.45295459747E+02  0.34050512423E+02  0.17938333881E+03  0.20335773425E+03  0.77232569354E+02 0.  0.
          5    1    3    3  501    0  0.37997405498E+02 -0.69873434775E+02 -0.24850560142E+02  0.83461009167E+02  0.47000000000E+01 0. -1.
        -11    1    4    4    0    0  0.49894696610E+01 -0.20688885250E+02  0.48080132450E+01  0.21818381511E+02  0.00000000000E+00 0.  1.
         12    1    4    4    0    0 -0.69953666434E+02  0.32437255461E+02 -0.46801729437E+02  0.90200293058E+02  0.00000000000E+00 0. -1.
         -5    1    5    5    0  502  0.72262251021E+02  0.24074552141E+02  0.53233110613E+02  0.93044457379E+02  0.47000000000E+01 0.  1.
         13    1    6    6    0    0  0.16120513321E+02 -0.97326162360E+01  0.22919132767E+02  0.29662795137E+02  0.00000000000E+00 0. -1.
        -14    1    6    6    0    0 -0.61415973068E+02  0.43783128659E+02  0.15646420604E+03  0.17369493912E+03  0.00000000000E+00 0.  1.
</event>
<event>
12    1  0.8358445E-002  0.3594506E+03  0.7818608E-02  0.1058836E+00
         21   -1    0    0  501  502  0.00000000000E+00  0.00000000000E+00  0.50452903633E+03  0.50452903633E+03  0.00000000000E+00 0.  1.
         21   -1    0    0  502  503 -0.00000000000E+00 -0.00000000000E+00 -0.28831985446E+03  0.28831985446E+03  0.00000000000E+00 0. -1.
         -6    2    1    2    0  503 -0.12381648329E+03 -0.28976492470E+03 -0.24891400542E+02  0.36031145436E+03  0.17294660796E+03 0.  0.
        -24    2    3    3    0    0 -0.14495878727E+03 -0.25917798284E+03  0.10471368972E+02  0.30878307871E+03  0.83970609943E+02 0.  0.
          6    2    1    2  501    0  0.12381648329E+03  0.28976492470E+03  0.24110058241E+03  0.43253743643E+03  0.17223504276E+03 0.  0.
         24    2    5    5    0    0  0.16488065766E+02  0.20812768621E+03  0.16263772323E+03  0.27645240131E+03  0.79911895827E+02 0.  0.
          5    1    5    5  501    0  0.10732841753E+03  0.81637238489E+02  0.78462859179E+02  0.15608503512E+03  0.47000000000E+01 0. -1.
        -13    1    6    6    0    0  0.40492937747E+02  0.15767819260E+03  0.94121527915E+02  0.18804508089E+03  0.00000000000E+00 0.  1.
         14    1    6    6    0    0 -0.24004871981E+02  0.50449493608E+02  0.68516195315E+02  0.88407320424E+02  0.00000000000E+00 0. -1.
         -5    1    3    3    0  503  0.21142303980E+02 -0.30586941856E+02 -0.35362769513E+02  0.51528375652E+02  0.47000000000E+01 0.  1.
         11    1    4    4    0    0 -0.11034342684E+03 -0.21770534793E+03 -0.23128723787E+02  0.24516571585E+03  0.00000000000E+00 0. -1.
        -12    1    4    4    0    0 -0.34615360435E+02 -0.41472634913E+02  0.33600092758E+02  0.63617362866E+02  0.00000000000E+00 0.  1.
</event>
<event>
12    1  0.8358445E-002  0.1847603E+03  0.7818608E-02  0.1163675E+00
         21   -1    0    0  503  502  0.00000000000E+00  0.00000000000E+00  0.63399007859E+02  0.63399007859E+02  0.00000000000E+00 0. -1.
         21   -1    0    0  501  503 -0.00000000000E+00 -0.00000000000E+00 -0.61291116896E+03  0.61291116896E+03  0.00000000000E+00 0. -1.
          6    2    1    2  501    0 -0.63876966423E+02 -0.15368489939E+02 -0.39760506210E+03  0.43843602889E+03  0.17268441939E+03 0.  0.
         24    2    3    3    0    0 -0.36924624748E+02  0.59312260975E+02 -0.24082401612E+03  0.26263492066E+03  0.78099440404E+02 0.  0.
         -6    2    1    2    0  502  0.63876966423E+02  0.15368489939E+02 -0.15190709900E+03  0.23787414793E+03  0.17085633206E+03 0.  0.
        -24    2    5    5    0    0 -0.26205328596E+02 -0.15595912302E+02 -0.69678418608E+02  0.11194853512E+03  0.82142807161E+02 0.  0.
          5    1    3    3  501    0 -0.26952341675E+02 -0.74680750914E+02 -0.15678104598E+03  0.17580110823E+03  0.47000000000E+01 0. -1.
        -13    1    4    4    0    0  0.11143814709E+02  0.32905955258E+02 -0.33804994155E+02  0.48474365674E+02  0.00000000000E+00 0.  1.
         14    1    4    4    0    0 -0.48068439457E+02  0.26406305717E+02 -0.20701902197E+03  0.21416055498E+03  0.00000000000E+00 0. -1.
         -5    1    5    5    0  502  0.90082295019E+02  0.30964402241E+02 -0.82228680390E+02  0.12592561281E+03  0.47000000000E+01 0.  1.
         13    1    6    6    0    0 -0.22479161079E+02  0.22282831805E+01  0.13824060425E+02  0.26483628441E+02  0.00000000000E+00 0. -1.
        -14    1    6    6    0    0 -0.37261675170E+01 -0.17824195483E+02 -0.83502479033E+02  0.85464906679E+02  0.00000000000E+00 0.  1.
</event>
<event>
12    1  0.8358445E-002  0.2313176E+03  0.7818608E-02  0.1126572E+00
         21   -1    0    0  503  502  0.00000000000E+00  0.00000000000E+00  0.17865222161E+03  0.17865222161E+03  0.00000000000E+00 0.  1.
         21   -1    0    0  501  503 -0.00000000000E+00 -0.00000000000E+00 -0.37019353599E+03  0.37019353599E+03  0.00000000000E+00 0.  1.
          6    2    1    2  501    0 -0.11978798410E+03 -0.96640836207E+02 -0.22166700109E+03  0.32038118255E+03  0.17268245539E+03 0.  0.
         24    2    3    3    0    0 -0.13994422422E+03 -0.10711179233E+03 -0.22553414518E+03  0.29686608652E+03  0.78781347624E+02 0.  0.
         -6    2    1    2    0  502  0.11978798410E+03  0.96640836207E+02  0.30125686720E+02  0.22846457505E+03  0.16613215430E+03 0.  0.
        -24    2    5    5    0    0  0.95506533385E+02  0.17347294162E+02 -0.27647548603E+02  0.12728705097E+03  0.77557590647E+02 0.  0.
          5    1    3    3  501    0  0.20156240120E+02  0.10470956119E+02  0.38671440879E+01  0.23515096028E+02  0.47000000000E+01 0. -1.
        -13    1    4    4    0    0 -0.94625052648E+02 -0.23156122045E+02 -0.12094061796E+03  0.15529565238E+03  0.00000000000E+00 0.  1.
         14    1    4    4    0    0 -0.45319171576E+02 -0.83955670281E+02 -0.10459352723E+03  0.14157043414E+03  0.00000000000E+00 0. -1.
         -5    1    5    5    0  502  0.24281450720E+02  0.79293542045E+02  0.57773235324E+02  0.10117752408E+03  0.47000000000E+01 0.  1.
         11    1    6    6    0    0 -0.19944664479E+01 -0.33497118248E+01 -0.27336453583E+02  0.27613043299E+02  0.00000000000E+00 0. -1.
        -12    1    6    6    0    0  0.97500999833E+02  0.20697005986E+02 -0.31109502029E+00  0.99674007671E+02  0.00000000000E+00 0.  1.
</event>
<event>
12    1  0.8358445E-002  0.1774683E+03  0.7818608E-02  0.1170301E+00
         21   -1    0    0  501  502  0.00000000000E+00  0.00000000000E+00  0.52528907282E+03  0.52528907282E+03  0.00000000000E+00 0.  1.
         21   -1    0    0  502  503 -0.00000000000E+00 -0.00000000000E+00 -0.75035747218E+02  0.75035747218E+02  0.00000000000E+00 0.  1.
         -6    2    1    2    0  503 -0.10952686632E+02 -0.41834325239E+02  0.35978230053E+03  0.40112644859E+03  0.17201468504E+03 0.  0.
        -24    2    3    3    0    0 -0.51728763872E+02  0.27942575166E+01  0.28894077140E+03  0.30787940508E+03  0.92840108832E+02 0.  0.
          6    2    1    2  501    0  0.10952686632E+02  0.41834325239E+02  0.90471025074E+02  0.19919837145E+03  0.17211889117E+03 0.  0.
         24    2    5    5    0    0  0.41998662873E+02  0.40040571899E+02 -0.48286957796E+01  0.98843017897E+02  0.79871714662E+02 0.  0.
          5    1    5    5  501    0 -0.31045976241E+02  0.17937533397E+01  0.95299720853E+02  0.10035535355E+03  0.47000000000E+01 0. -1.
        -13    1    6    6    0    0 -0.26468146678E+00  0.51646142359E+02 -0.15136774726E+02  0.53819290463E+02  0.00000000000E+00 0.  1.
         14    1    6    6    0    0  0.42263344340E+02 -0.11605570460E+02  0.10308078946E+02  0.45023727434E+02  0.00000000000E+00 0. -1.
         -5    1    3    3    0  503  0.40776077240E+02 -0.44628582756E+02  0.70841529126E+02  0.93247043506E+02  0.47000000000E+01 0.  1.
         13    1    4    4    0    0 -0.51251729344E+02  0.41938394599E+02  0.16113645155E+03  0.17421401987E+03  0.00000000000E+00 0. -1.
        -14    1    4    4    0    0 -0.47703452797E+00 -0.39144137082E+02  0.12780431986E+03  0.13366538521E+03  0.00000000000E+00 0.  1.
</event>
<event>
12    1  0.8358445E-002  0.1966669E+03  0.7818608E-02  0.1152871E+00
         21   -1    0    0  501  502  0.00000000000E+00  0.00000000000E+00  0.17266797983E+03  0.17266797983E+03  0.00000000000E+00 0. -1.
         21   -1    0    0  502  503 -0.00000000000E+00 -0.00000000000E+00 -0.32734679638E+03  0.32734679638E+03  0.00000000000E+00 0.  1.
         -6    2    1    2    0  503  0.16584075488E+02 -0.95014852194E+02 -0.21902111296E+03  0.29436055524E+03  0.17139146672E+03 0.  0.
        -24    2    3    3    0    0 -0.26240421207E+02 -0.11695716360E+03 -0.13536262020E+03  0.19773635559E+03  0.80056789553E+02 0.  0.
          6    2    1    2  501    0 -0.16584075488E+02  0.95014852194E+02  0.64342296401E+02  0.20565422097E+03  0.16985544972E+03 0.  0.
         24    2    5    5    0    0 -0.45356527193E+01  0.11281563089E+03  0.54808676362E+01  0.14281482242E+03  0.87281698391E+02 0.  0.
          5    1    5    5  501    0 -0.12048422768E+02 -0.17800778697E+02  0.58861428765E+02  0.62839398546E+02  0.47000000000E+01 0. -1.
        -13    1    6    6    0    0  0.21416593843E+02  0.76968487421E+02 -0.30764447110E+02  0.85611154377E+02  0.00000000000E+00 0.  1.
         14    1    6    6    0    0 -0.25952246562E+02  0.35847143470E+02  0.36245314747E+02  0.57203668044E+02  0.00000000000E+00 0. -1.
         -5    1    3    3    0  503  0.42824496695E+02  0.21942311405E+02 -0.83658492760E+02  0.96624199649E+02  0.47000000000E+01 0.  1.
         13    1    4    4    0    0  0.25900033597E+02 -0.65682400518E+02 -0.59063760346E+02  0.92051709730E+02  0.00000000000E+00 0. -1.
        -14    1    4    4    0    0 -0.52140454804E+02 -0.51274763082E+02 -0.76298859849E+02  0.10568464586E+03  0.00000000000E+00 0.  1.
</event>
<event>
12    1  0.8358445E-002  0.1900074E+03  0.7818608E-02  0.1158479E+00
         21   -1    0    0  503  502  0.00000000000E+00  0.00000000000E+00  0.65878820547E+02  0.65878820547E+02  0.00000000000E+00 0. -1.
         21   -1    0    0  501  503 -0.00000000000E+00 -0.00000000000E+00 -0.62333077155E+03  0.62333077155E+03  0.00000000000E+00 0.  1.
          6    2    1    2  501    0 -0.78539613591E+02 -0.18498419719E+02 -0.15861983394E+03  0.24742925185E+03  0.17190206665E+03 0.  0.
         24    2    3    3    0    0 -0.17056189374E+02  0.49724371790E+02 -0.95731893701E+02  0.13602214363E+03  0.81080215475E+02 0.  0.
         -6    2    1    2    0  502  0.78539613591E+02  0.18498419719E+02 -0.39883211707E+03  0.44178034025E+03  0.17202368728E+03 0.  0.
        -24    2    5    5    0    0 -0.11454266170E+01  0.10514559843E+02 -0.82967920294E+02  0.11588813651E+03  0.80215437510E+02 0.  0.
          5    1    3    3  501    0 -0.61483424217E+02 -0.68222791509E+02 -0.62887940235E+02  0.11140710822E+03  0.47000000000E+01 0. -1.
        -11    1    4    4    0    0 -0.26943679631E+02  0.22256828742E+02 -0.10053566850E+03  0.10643659586E+03  0.00000000000E+00 0.  1.
         12    1    4    4    0    0  0.98874902564E+01  0.27467543049E+02  0.48037748002E+01  0.29585547773E+02  0.00000000000E+00 0. -1.
         -5    1    5    5    0  502  0.79685040208E+02  0.79838598754E+01 -0.31586419678E+03  0.32589220374E+03  0.47000000000E+01 0.  1.
         13    1    6    6    0    0  0.32447563715E+02  0.25626967120E+02 -0.28825953466E+02  0.50403585468E+02  0.00000000000E+00 0. -1.
        -14    1    6    6    0    0 -0.33592990332E+02 -0.15112407277E+02 -0.54141966828E+02  0.65484551042E+02  0.00000000000E+00 0.  1.
</event>
<event>
12    1  0.8358445E-002  0.1778265E+03  0.7818608E-02  0.1170799E+00
         21   -1    0    0  503  502  0.00000000000E+00  0.00000000000E+00  0.56134170320E+03  0.56134170320E+03  0.00000000000E+00 0.  1.
         21   -1    0    0  501  503 -0.00000000000E+00 -0.00000000000E+00 -0.89525333392E+02  0.89525333392E+02  0.00000000000E+00 0.  1.
          6    2    1    2  501    0 -0.14970063006E+02 -0.28099686222E+02  0.35926527120E+02  0.18141937223E+03  0.17495307404E+03 0.  0.
         24    2    3    3    0    0  0.96809316443E+01  0.45985339186E+02  0.12157619206E+01  0.95843734643E+02  0.83523478949E+02 0.  0.
         -6    2    1    2    0  502  0.14970063006E+02  0.28099686222E+02  0.43588984269E+03  0.46944766437E+03  0.17136936560E+03 0.  0.
        -24    2    5    5    0    0  0.58300564612E+02  0.59501294710E+02  0.23917261044E+03  0.26552769760E+03  0.79762526906E+02 0.  0.
          5    1    3    3  501    0 -0.24650994650E+02 -0.74085025409E+02  0.34710765199E+02  0.85575637583E+02  0.47000000000E+01 0. -1.
        -13    1    4    4    0    0 -0.20256517611E+02  0.59159193936E+02  0.58718507962E+01  0.62806172982E+02  0.00000000000E+00 0.  1.
         14    1    4    4    0    0  0.29937449255E+02 -0.13173854750E+02 -0.46560888756E+01  0.33037561661E+02  0.00000000000E+00 0. -1.
         -5    1    5    5    0  502 -0.43330501607E+02 -0.31401608487E+02  0.19671723224E+03  0.20391996677E+03  0.47000000000E+01 0.  1.
         13    1    6    6    0    0 -0.13451625934E+02 -0.35918561816E+01  0.97300318133E+01  0.16985911520E+02  0.00000000000E+00 0. -1.
        -14    1    6    6    0    0  0.71752190546E+02  0.63093150891E+02  0.22944257863E+03  0.24854178608E+03  0.00000000000E+00 0.  1.
</event>
<event>
12    1  0.8358445E-002  0.4329842E+03  0.7818608E-02  0.1033285E+00
         21   -1    0    0  501  502  0.00000000000E+00  0.00000000000E+00  0.97757611484E+02  0.97757611484E+02  0.00000000000E+00 0.  1.
         21   -1    0    0  502  503 -0.00000000000E+00 -0.00000000000E+00 -0.21229440703E+04  0.21229440703E+04  0.00000000000E+00 0. -1.
         -6    2    1    2    0  503  0.36671582198E+03 -0.14301423171E+03 -0.65550029995E+03  0.78559275805E+03  0.18039338597E+03 0.  0.
        -24    2    3    3    0    0  0.24656217019E+03 -0.20840177936E+02 -0.41719525391E+03  0.49203733837E+03  0.82593254448E+02 0.  0.
          6    2    1    2  501    0 -0.36671582198E+03  0.14301423171E+03 -0.13696861588E+04  0.14351089237E+04  0.16900853418E+03 0.  0.
         24    2    5    5    0    0 -0.13108978633E+03  0.42948786021E+02 -0.36672609703E+03  0.39998395653E+03  0.80436340889E+02 0.  0.
          5    1    5    5  501    0 -0.23562603566E+03  0.10006544569E+03 -0.10029600618E+04  0.10351249672E+04  0.47000000000E+01 0. -1.
        -13    1    6    6    0    0 -0.78185162823E+02 -0.16703417247E+02 -0.18470794333E+03  0.20126834864E+03  0.00000000000E+00 0.  1.
         14    1    6    6    0    0 -0.52904623503E+02  0.59652203269E+02 -0.18201815370E+03  0.19871560789E+03  0.00000000000E+00 0. -1.
         -5    1    3    3    0  503  0.12015365179E+03 -0.12217405377E+03 -0.23830504604E+03  0.29355541968E+03  0.47000000000E+01 0.  1.
         13    1    4    4    0    0  0.17941036384E+03 -0.23524837898E+02 -0.36338557591E+03  0.40594405209E+03  0.00000000000E+00 0. -1.
        -14    1    4    4    0    0  0.67151806354E+02  0.26846599620E+01 -0.53809678001E+02  0.86093286278E+02  0.00000000000E+00 0.  1.
</event>
<event>
12    1  0.8358445E-002  0.1820105E+03  0.7818608E-02  0.1166761E+00
         21   -1    0    0  503  502  0.00000000000E+00  0.00000000000E+00  0.59064945380E+02  0.59064945380E+02  0.00000000000E+00 0.  1.
         21   -1    0    0  501  503 -0.00000000000E+00 -0.00000000000E+00 -0.13931571058E+04  0.13931571058E+04  0.00000000000E+00 0.  1.
          6    2    1    2  501    0  0.52614908980E+02 -0.32113901471E+02 -0.12347560690E+04  0.12480986967E+04  0.17125470901E+03 0.  0.
         24    2    3    3    0    0 -0.16950105171E+02  0.49326475702E+01 -0.91833303470E+03  0.92197392817E+03  0.79929497187E+02 0.  0.
         -6    2    1    2    0  502 -0.52614908980E+02  0.32113901471E+02 -0.99336091420E+02  0.20412335452E+03  0.16732917703E+03 0.  0.
        -24    2    5    5    0    0  0.30449258408E+01  0.62715396929E+02 -0.96688062728E+02  0.14037721116E+03  0.80091743362E+02 0.  0.
          5    1    3    3  501    0  0.69565014151E+02 -0.37046549041E+02 -0.31642303430E+03  0.32612476849E+03  0.47000000000E+01 0. -1.
        -11    1    4    4    0    0  0.30596147897E+02  0.93847469651E+00 -0.49835302728E+03  0.49929224389E+03  0.00000000000E+00 0.  1.
         12    1    4    4    0    0 -0.47546253069E+02  0.39941728737E+01 -0.41998000742E+03  0.42268168428E+03  0.00000000000E+00 0. -1.
         -5    1    5    5    0  502 -0.55659834821E+02 -0.30601495458E+02 -0.26480286918E+01  0.63746143354E+02  0.47000000000E+01 0.  1.
         13    1    6    6    0    0 -0.36858753144E+02  0.22510232791E+02 -0.28569231888E+02  0.51783001789E+02  0.00000000000E+00 0. -1.
        -14    1    6    6    0    0  0.39903678984E+02  0.40205164137E+02 -0.68118830840E+02  0.88594209375E+02  0.00000000000E+00 0.  1.
</event>
<event>
12    1  0.8358445E-002  0.1748811E+03  0.7818608E-02  0.1173355E+00
         21   -1    0    0  503  502  0.00000000000E+00  0.00000000000E+00  0.18096989078E+03  0.18096989078E+03  0.00000000000E+00 0. -1.
         21   -1    0    0  501  503 -0.00000000000E+00 -0.00000000000E+00 -0.22982426353E+03  0.22982426353E+03  0.00000000000E+00 0. -1.
          6    2    1    2  501    0 -0.15256279020E+02  0.67036087612E+01 -0.13185081931E+03  0.21901607069E+03  0.17408534760E+03 0.  0.
         24    2    3    3    0    0 -0.47478671282E+02  0.44061903913E+02 -0.12970295456E+03  0.16941135214E+03  0.87645160786E+02 0.  0.
         -6    2    1    2    0  502  0.15256279020E+02 -0.67036087612E+01  0.82996446562E+02  0.19177808361E+03  0.17208349948E+03 0.  0.
        -24    2    5    5    0    0 -0.18622967503E+01 -0.25911691906E+02  0.11997432737E+03  0.14648515079E+03  0.79932322925E+02 0.  0.
          5    1    3    3  501    0  0.32222392262E+02 -0.37358295152E+02 -0.21478647541E+01  0.49604718553E+02  0.47000000000E+01 0. -1.
        -13    1    4    4    0    0 -0.50101087199E+02  0.12031779318E+02 -0.20290544597E+02  0.55376789833E+02  0.00000000000E+00 0.  1.
         14    1    4    4    0    0  0.26224159174E+01  0.32030124595E+02 -0.10941240996E+03  0.11403456231E+03  0.00000000000E+00 0. -1.
         -5    1    5    5    0  502  0.17118575770E+02  0.19208083145E+02 -0.36977880807E+02  0.45292932820E+02  0.47000000000E+01 0.  1.
         13    1    6    6    0    0  0.35783375844E+02 -0.82897208490E+01  0.83355567016E+02  0.91089626254E+02  0.00000000000E+00 0. -1.
        -14    1    6    6    0    0 -0.37645672594E+02 -0.17621971057E+02  0.36618760352E+02  0.55395524537E+02  0.00000000000E+00 0.  1.
</event>
<event>
12    1  0.8358445E-002  0.1773882E+03  0.7818608E-02  0.1171829E+00
         21   -1    0    0  501  502  0.00000000000E+00  0.00000000000E+00  0.90578276564E+03  0.90578276564E+03  0.00000000000E+00 0. -1.
         21   -1    0    0  502  503 -0.00000000000E+00 -0.00000000000E+00 -0.38165250368E+02  0.38165250368E+02  0.00000000000E+00 0. -1.
         -6    2    1    2    0  503  0.38459987390E+02  0.23498493128E+02  0.26416772969E+03  0.31496611986E+03  0.16549234858E+03 0.  0.
        -24    2    3    3    0    0  0.40727898394E+02 -0.24287558289E+02  0.24729826670E+03  0.26402184725E+03  0.79388008637E+02 0.  0.
          6    2    1    2  501    0 -0.38459987390E+02 -0.23498493128E+02  0.60344978558E+03  0.62898189615E+03  0.17156699030E+03 0.  0.
         24    2    5    5    0    0 -0.42008169123E+02 -0.16703399548E+02  0.15122141616E+03  0.17666414169E+03  0.79363797950E+02 0.  0.
          5    1    5    5  501    0  0.35481817331E+01 -0.67950935803E+01  0.45222836942E+03  0.45231775446E+03  0.47000000000E+01 0. -1.
        -11    1    6    6    0    0  0.86127115328E+01  0.33085491588E+01 -0.55120762881E+01  0.10747477959E+02  0.00000000000E+00 0.  1.
         12    1    6    6    0    0 -0.50620880656E+02 -0.20011948707E+02  0.15673349245E+03  0.16591666373E+03  0.00000000000E+00 0. -1.
         -5    1    3    3    0  503 -0.22679110040E+01  0.47786051417E+02  0.16869462995E+02  0.50944272613E+02  0.47000000000E+01 0.  1.
         11    1    4    4    0    0  0.23547365296E+02  0.17594411336E+02  0.29782611648E+02  0.41845497717E+02  0.00000000000E+00 0. -1.
        -12    1    4    4    0    0  0.17180533097E+02 -0.41881969625E+02  0.21751565505E+03  0.22217634953E+03  0.00000000000E+00 0.  1.
</event>
<event>
12    1  0.8358445E-002  0.1768878E+03  0.7818608E-02  0.1171257E+00
         21   -1    0    0  503  502  0.00000000000E+00  0.00000000000E+00  0.64316063061E+02  0.64316063061E+02  0.00000000000E+00 0.  1.
         21   -1    0    0  501  503 -0.00000000000E+00 -0.00000000000E+00 -0.11853388920E+04  0.11853388920E+04  0.00000000000E+00 0.  1.
          6    2    1    2  501    0 -0.33783867893E+01 -0.32045570539E+02 -0.10428755574E+04  0.10577706384E+04  0.17392804005E+03 0.  0.
         24    2    3    3    0    0  0.18601743334E+02  0.26452212830E+02 -0.86365242523E+03  0.86790716669E+03  0.79508452158E+02 0.  0.
         -6    2    1    2    0  502  0.33783867893E+01  0.32045570539E+02 -0.78147271594E+02  0.19188431673E+03  0.17226219220E+03 0.  0.
        -24    2    5    5    0    0  0.27138979599E+02  0.77436001027E+02 -0.20633210669E+02  0.11471687441E+03  0.77468531824E+02 0.  0.
          5    1    3    3  501    0 -0.21980130123E+02 -0.58497783370E+02 -0.17922313216E+03  0.18986347168E+03  0.47000000000E+01 0. -1.
        -11    1    4    4    0    0  0.37255013315E+02  0.40703244729E+02 -0.41652576010E+03  0.42016472839E+03  0.00000000000E+00 0.  1.
         12    1    4    4    0    0 -0.18653269981E+02 -0.14251031898E+02 -0.44712666513E+03  0.44774243830E+03  0.00000000000E+00 0. -1.
         -5    1    5    5    0  502 -0.23760592810E+02 -0.45390430487E+02 -0.57514060925E+02  0.77167442322E+02  0.47000000000E+01 0.  1.
         11    1    6    6    0    0 -0.17082781124E+02  0.61177223681E+02 -0.60401031258E+00  0.63520382057E+02  0.00000000000E+00 0. -1.
        -12    1    6    6    0    0  0.44221760723E+02  0.16258777346E+02 -0.20029200356E+02  0.51196492352E+02  0.00000000000E+00 0.  1.
</event>
<event>
12    1  0.8358445E-002  0.2016576E+03  0.7818608E-02  0.1148356E+00
         21   -1    0    0  503  502  0.00000000000E+00  0.00000000000E+00  0.47621010175E+03  0.47621010175E+03  0.00000000000E+00 0. -1.
         21   -1    0    0  501  503 -0.00000000000E+00 -0.00000000000E+00 -0.10059676433E+03  0.10059676433E+03  0.00000000000E+00 0. -1.
          6    2    1    2  501    0 -0.22498886852E+02  0.10254533571E+03  0.75617933902E+02  0.21533345833E+03  0.17212983635E+03 0.  0.
         24    2    3    3    0    0  0.23841588712E+02  0.57496757869E+02  0.10364341341E+03  0.14473365987E+03  0.79571204818E+02 0.  0.
         -6    2    1    2    0  502  0.22498886852E+02 -0.10254533571E+03  0.29999540352E+03  0.36147340776E+03  0.17217443653E+03 0.  0.
        -24    2    5    5    0    0 -0.51974167250E+02 -0.69010019978E+02  0.19773841098E+03  0.23051755369E+03  0.81081233750E+02 0.  0.
          5    1    3    3  501    0 -0.46340475565E+02  0.45048577843E+02 -0.28025479512E+02  0.70599798464E+02  0.47000000000E+01 0. -1.
        -11    1    4    4    0    0 -0.12180615569E+02  0.37066542811E+02  0.94621269358E+02  0.10234979534E+03  0.00000000000E+00 0.  1.
         12    1    4    4    0    0  0.36022204281E+02  0.20430215057E+02  0.90221440563E+01  0.42383864523E+02  0.00000000000E+00 0. -1.
         -5    1    5    5    0  502  0.74473054102E+02 -0.33535315734E+02  0.10225699254E+03  0.13095585406E+03  0.47000000000E+01 0.  1.
         13    1    6    6    0    0 -0.18358432379E+02 -0.33682881144E+02  0.17029202318E+03  0.17455927842E+03  0.00000000000E+00 0. -1.
        -14    1    6    6    0    0 -0.33615734871E+02 -0.35327138834E+02  0.27446387796E+02  0.55958275279E+02  0.00000000000E+00 0.  1.
</event>
<event>
12    1  0.8358445E-002  0.1983337E+03  0.7818608E-02  0.1152509E+00
         21   -1    0    0  501  502  0.00000000000E+00  0.00000000000E+00  0.48135484666E+03  0.48135484666E+03  0.00000000000E+00 0.  1.
         21   -1    0    0  502  503 -0.00000000000E+00 -0.00000000000E+00 -0.12986213526E+03  0.12986213526E+03  0.00000000000E+00 0.  1.
         -6    2    1    2    0  503  0.60907803578E+02 -0.67400438234E+02 -0.13473036040E+02  0.19879080625E+03  0.17630565033E+03 0.  0.
        -24    2    3    3    0    0 -0.28095849859E+02 -0.22546434018E+01 -0.20314421401E+02  0.88181044191E+02  0.81047891037E+02 0.  0.
          6    2    1    2  501    0 -0.60907803578E+02  0.67400438234E+02  0.36496574744E+03  0.41242617567E+03  0.16924176188E+03 0.  0.
         24    2    5    5    0    0 -0.58094463856E+02  0.17153367875E+02  0.64804767539E+02  0.10803927251E+03  0.61673509301E+02 0.  0.
          5    1    5    5  501    0 -0.28133397215E+01  0.50247070358E+02  0.30016097990E+03  0.30438690316E+03  0.47000000000E+01 0. -1.
        -11    1    6    6    0    0 -0.39780225870E+02  0.39451259643E+02  0.52116151094E+02  0.76517719926E+02  0.00000000000E+00 0.  1.
         12    1    6    6    0    0 -0.18314237986E+02 -0.22297891768E+02  0.12688616444E+02  0.31521552589E+02  0.00000000000E+00 0. -1.
         -5    1    3    3    0  503  0.89003653437E+02 -0.65145794832E+02  0.68413853604E+01  0.11060976206E+03  0.47000000000E+01 0.  1.
         11    1    4    4    0    0  0.22315985492E+02  0.12240012473E+02 -0.24798209053E+02  0.35535507399E+02  0.00000000000E+00 0. -1.
        -12    1    4    4    0    0 -0.50411835351E+02 -0.14494655875E+02  0.44837876522E+01  0.52645536792E+02  0.00000000000E+00 0.  1.
</event>
<event>
12    1  0.8358445E-002  0.2317720E+03  0.7818608E-02  0.1125803E+00
         21   -1    0    0  503  502  0.00000000000E+00  0.00000000000E+00  0.50930122034E+02  0.50930122034E+02  0.00000000000E+00 0.  1.
         21   -1    0    0  501  503 -0.00000000000E+00 -0.00000000000E+00 -0.10447812903E+04  0.10447812903E+04  0.00000000000E+00 0.  1.
          6    2    1    2  501    0  0.11166309770E+02  0.15080544137E+03 -0.51143586380E+03  0.56150237762E+03  0.17564540892E+03 0.  0.
         24    2    3    3    0    0 -0.52043902322E+02  0.13594913654E+03 -0.36495829817E+03  0.40120887202E+03  0.81137316258E+02 0.  0.
         -6    2    1    2    0  502 -0.11166309770E+02 -0.15080544137E+03 -0.48241530449E+03  0.53420903474E+03  0.17259142263E+03 0.  0.
        -24    2    5    5    0    0 -0.55364533386E+02 -0.31305423688E+02 -0.21303215023E+03  0.23617697103E+03  0.79696947900E+02 0.  0.
          5    1    3    3  501    0  0.63210212092E+02  0.14856304828E+02 -0.14647756563E+03  0.16029350560E+03  0.47000000000E+01 0. -1.
        -13    1    4    4    0    0  0.21197513716E+02  0.36859951531E+02 -0.76229980268E+02  0.87286886222E+02  0.00000000000E+00 0.  1.
         14    1    4    4    0    0 -0.73241416039E+02  0.99089185007E+02 -0.28872831790E+03  0.31392198580E+03  0.00000000000E+00 0. -1.
         -5    1    5    5    0  502  0.44198223616E+02 -0.11950001768E+03 -0.26938315426E+03  0.29803206371E+03  0.47000000000E+01 0.  1.
         13    1    6    6    0    0  0.10336807332E+02  0.15500841910E+02 -0.64687934439E+02  0.67317564927E+02  0.00000000000E+00 0. -1.
        -14    1    6    6    0    0 -0.65701340717E+02 -0.46806265598E+02 -0.14834421579E+03  0.16885940610E+03  0.00000000000E+00 0.  1.
</event>
<event>
12    1  0.8358445E-002  0.2276132E+03  0.7818608E-02  0.1128410E+00
         21   -1    0    0  501  502  0.00000000000E+00  0.00000000000E+00  0.40969432777E+03  0.40969432777E+03  0.00000000000E+00 0. -1.
         21   -1    0    0  502  503 -0.00000000000E+00 -0.00000000000E+00 -0.13421631234E+03  0.13421631234E+03  0.00000000000E+00 0.  1.
         -6    2    1    2    0  503 -0.35857996006E+02  0.14501700471E+03  0.71190064176E+02  0.23806538191E+03  0.17114722695E+03 0.  0.
        -24    2    3    3    0    0  0.94795851814E+01  0.15218002329E+03  0.80961403868E+02  0.19090211036E+03  0.81487697236E+02 0.  0.
          6    2    1    2  501    0  0.35857996006E+02 -0.14501700471E+03  0.20428795125E+03  0.30584525821E+03  0.17173242969E+03 0.  0.
         24    2    5    5    0    0  0.54415505948E+02 -0.17104025344E+02  0.81440358164E+02  0.12746439434E+03  0.79756159113E+02 0.  0.
          5    1    5    5  501    0 -0.18557509942E+02 -0.12791297937E+03  0.12284759309E+03  0.17838086386E+03  0.47000000000E+01 0. -1.
        -11    1    6    6    0    0  0.48400965312E+02 -0.10650380201E+02  0.42161260527E+01  0.49737910697E+02  0.00000000000E+00 0.  1.
         12    1    6    6    0    0  0.60145406363E+01 -0.64536451439E+01  0.77224232111E+02  0.77726483646E+02  0.00000000000E+00 0. -1.
         -5    1    3    3    0  503 -0.45337581188E+02 -0.71630185795E+01 -0.97713396919E+01  0.47163271542E+02  0.47000000000E+01 0.  1.
         11    1    4    4    0    0 -0.17465251523E+02  0.14185472754E+03  0.58931877569E+02  0.15459872228E+03  0.00000000000E+00 0. -1.
        -12    1    4    4    0    0  0.26944836704E+02  0.10325295748E+02  0.22029526299E+02  0.36303388083E+02  0.00000000000E+00 0.  1.
</event>
<event>
12    1  0.8358445E-002  0.2696533E+03  0.7818608E-02  0.1101851E+00
         21   -1    0    0  503  502  0.00000000000E+00  0.00000000000E+00  0.18600939967E+03  0.18600939967E+03  0.00000000000E+00 0. -1.
         21   -1    0    0  501  503 -0.00000000000E+00 -0.00000000000E+00 -0.59405968690E+03  0.59405968690E+03  0.00000000000E+00 0.  1.
          6    2    1    2  501    0 -0.11154150623E+03  0.17353135302E+03 -0.43355833964E+03  0.50921202840E+03  0.16961550019E+03 0.  0.
         24    2    3    3    0    0 -0.11657566531E+02  0.11537720361E+03 -0.31675095911E+03  0.34481993416E+03  0.71566884286E+02 0.  0.
         -6    2    1    2    0  502  0.11154150623E+03 -0.17353135302E+03  0.25508052413E+02  0.27085705817E+03  0.17366130004E+03 0.  0.
        -24    2    5    5    0    0  0.92949406827E+02 -0.16900067171E+03 -0.30538393620E+02  0.21144756948E+03  0.81096620696E+02 0.  0.
          5    1    3    3  501    0 -0.99883939697E+02  0.58154149410E+02 -0.11680738053E+03  0.16439209424E+03  0.47000000000E+01 0. -1.
        -13    1    4    4    0    0  0.27228380931E+02  0.76826354593E+02 -0.18801030843E+03  0.20491839733E+03  0.00000000000E+00 0.  1.
         14    1    4    4    0    0 -0.38885947462E+02  0.38550849019E+02 -0.12874065068E+03  0.13990153683E+03  0.00000000000E+00 0. -1.
         -5    1    5    5    0  502  0.18592099401E+02 -0.45306813133E+01  0.56046446033E+02  0.59409488688E+02  0.47000000000E+01 0.  1.
         13    1    6    6    0    0  0.94227669336E+02 -0.16246826596E+03 -0.80429236294E+01  0.18798797763E+03  0.00000000000E+00 0. -1.
        -14    1    6    6    0    0 -0.12782625091E+01 -0.65324057482E+01 -0.22495469990E+02  0.23459591855E+02  0.00000000000E+00 0.  1.
</event>
<event>
12    1  0.8358445E-002  0.2048870E+03  0.7818608E-02  0.1145725E+00
         21   -1    0    0  501  502  0.00000000000E+00  0.00000000000E+00  0.33594820414E+03  0.33594820414E+03  0.00000000000E+00 0.  1.
         21   -1    0    0  502  503 -0.00000000000E+00 -0.00000000000E+00 -0.14588841333E+03  0.14588841333E+03  0.00000000000E+00 0.  1.
         -6    2    1    2    0  503  0.13457081254E+02  0.10982283586E+03  0.35236435243E+01  0.20491726261E+03  0.17244280252E+03 0.  0.
        -24    2    3    3    0    0  0.44683594793E+02  0.53089765976E+02 -0.52966161112E+02  0.11885377213E+03  0.80657659466E+02 0.  0.
          6    2    1    2  501    0 -0.13457081254E+02 -0.10982283586E+03  0.18653614729E+03  0.27691935486E+03  0.17218143494E+03 0.  0.
         24    2    5    5    0    0 -0.41867719472E+02 -0.10011544660E+03  0.20167891355E+03  0.24296657677E+03  0.81131773532E+02 0.  0.
          5    1    5    5  501    0  0.28410638219E+02 -0.97073892674E+01 -0.15142766254E+02  0.33952778093E+02  0.47000000000E+01 0. -1.
        -13    1    6    6    0    0  0.14997587409E+02 -0.33958627306E+02  0.21802684162E+02  0.43051980596E+02  0.00000000000E+00 0.  1.
         14    1    6    6    0    0 -0.56865306881E+02 -0.66156819291E+02  0.17987622938E+03  0.19991459617E+03  0.00000000000E+00 0. -1.
         -5    1    3    3    0  503 -0.31226513540E+02  0.56733069888E+02  0.56489804636E+02  0.86063490486E+02  0.47000000000E+01 0.  1.
         11    1    4    4    0    0 -0.12984446009E+02  0.13723643102E+02  0.12891453043E+02  0.22871899346E+02  0.00000000000E+00 0. -1.
        -12    1    4    4    0    0  0.57668040802E+02  0.39366122874E+02 -0.65857614155E+02  0.95981872779E+02  0.00000000000E+00 0.  1.
</event>
<event>
12    1  0.8358445E-002  0.1855163E+03  0.7818608E-02  0.1163504E+00
         21   -1    0    0  501  502  0.00000000000E+00  0.00000000000E+00  0.36078993629E+03  0.36078993629E+03  0.00000000000E+00 0.  1.
         21   -1    0    0  502  503 -0.00000000000E+00 -0.00000000000E+00 -0.16009516985E+03  0.16009516985E+03  0.00000000000E+00 0.  1.
         -6    2    1    2    0  503 -0.78151694785E+02 -0.26506069427E+02 -0.67166949379E+02  0.19730101771E+03  0.16615063463E+03 0.  0.
        -24    2    3    3    0    0 -0.76979405077E+02 -0.75342711382E+02 -0.61655411161E+02  0.14791621323E+03  0.80470264356E+02 0.  0.
          6    2    1    2  501    0  0.78151694785E+02  0.26506069427E+02  0.26786171582E+03  0.32358408842E+03  0.16169880756E+03 0.  0.
         24    2    5    5    0    0  0.71962379051E+02 -0.39399847466E+02  0.15647731025E+03  0.19392887906E+03  0.79952045202E+02 0.  0.
          5    1    5    5  501    0  0.61893157334E+01  0.65905916893E+02  0.11138440557E+03  0.12965520936E+03  0.47000000000E+01 0. -1.
        -13    1    6    6    0    0  0.76659905541E+02 -0.51283857081E+01  0.12723492770E+03  0.14863299863E+03  0.00000000000E+00 0.  1.
         14    1    6    6    0    0 -0.46975264897E+01 -0.34271461758E+02  0.29242382553E+02  0.45295880426E+02  0.00000000000E+00 0. -1.
         -5    1    3    3    0  503 -0.11722897080E+01  0.48836641955E+02 -0.55115382180E+01  0.49384804486E+02  0.47000000000E+01 0.  1.
         13    1    4    4    0    0 -0.25296609938E+02 -0.53597692213E+02  0.65424332806E+01  0.59627464462E+02  0.00000000000E+00 0. -1.
        -14    1    4    4    0    0 -0.51682795139E+02 -0.21745019169E+02 -0.68197844441E+02  0.88288748765E+02  0.00000000000E+00 0.  1.
</event>
<event>
12    1  0.8358445E-002  0.2467199E+03  0.7818608E-02  0.1115737E+00
         21   -1    0    0  503  502  0.00000000000E+00  0.00000000000E+00  0.14429808113E+04  0.14429808113E+04  0.00000000000E+00 0. -1.
         21   -1    0    0  501  503 -0.00000000000E+00 -0.00000000000E+00 -0.43448976818E+02  0.43448976818E+02  0.00000000000E+00 0. -1.
          6    2    1    2  501    0 -0.10244751444E+03  0.14004993541E+03  0.55889495303E+03  0.61092901716E+03  0.17538876206E+03 0.  0.
         24    2    3    3    0    0 -0.11846711808E+02  0.75394092340E+01  0.12944458099E+03  0.15243446209E+03  0.79266502451E+02 0.  0.
         -6    2    1    2    0  502  0.10244751444E+03 -0.14004993541E+03  0.84063688147E+03  0.87550077098E+03  0.17239998804E+03 0.  0.
        -24    2    5    5    0    0  0.11421878256E+03 -0.15413455031E+03  0.82538333224E+03  0.85117588878E+03  0.80245614279E+02 0.  0.
          5    1    3    3  501    0 -0.90600802637E+02  0.13251052617E+03  0.42945037204E+03  0.45849455507E+03  0.47000000000E+01 0. -1.
        -11    1    4    4    0    0 -0.18202104278E+02 -0.50392755139E+01 -0.31028012451E+01  0.19139965345E+02  0.00000000000E+00 0.  1.
         12    1    4    4    0    0  0.63553924701E+01  0.12578684748E+02  0.13254738224E+03  0.13329449674E+03  0.00000000000E+00 0. -1.
         -5    1    5    5    0  502 -0.11771268111E+02  0.14084614906E+02  0.15253549230E+02  0.24324882201E+02  0.47000000000E+01 0.  1.
         11    1    6    6    0    0  0.10146743622E+03 -0.76719402284E+02  0.56952609081E+03  0.58355931611E+03  0.00000000000E+00 0. -1.
        -12    1    6    6    0    0  0.12751346336E+02 -0.77415148028E+02  0.25585724142E+03  0.26761657267E+03  0.00000000000E+00 0.  1.
</event>
<event>
12    1  0.8358445E-002  0.1918390E+03  0.7818608E-02  0.1156825E+00
         21   -1    0    0  501  502  0.00000000000E+00  0.00000000000E+00  0.16728654526E+03  0.16728654526E+03  0.00000000000E+00 0. -1.
         21   -1    0    0  502  503 -0.00000000000E+00 -0.00000000000E+00 -0.23108751543E+03  0.23108751543E+03  0.00000000000E+00 0. -1.
         -6    2    1    2    0  503  0.69798934738E+02 -0.47061154368E+02 -0.75660159927E+02  0.20616883286E+03  0.17232087599E+03 0.  0.
        -24    2    3    3    0    0  0.67858629441E+02  0.35572573007E+02 -0.33684641260E+02  0.11334571154E+03  0.76435552769E+02 0.  0.
          6    2    1    2  501    0 -0.69798934738E+02  0.47061154368E+02  0.11859189754E+02  0.19220522784E+03  0.17238203411E+03 0.  0.
         24    2    5    5    0    0 -0.44710152008E+02 -0.37474660713E+00  0.67809633221E+02  0.11453828606E+03  0.80757256574E+02 0.  0.
          5    1    5    5  501    0 -0.25088782730E+02  0.47435900975E+02 -0.55950443466E+02  0.77666941772E+02  0.47000000000E+01 0. -1.
        -11    1    6    6    0    0  0.83037382374E+01  0.28204933642E+02  0.35824399205E+02  0.46344988174E+02  0.00000000000E+00 0.  1.
         12    1    6    6    0    0 -0.53013890245E+02 -0.28579680249E+02  0.31985234016E+02  0.68193297890E+02  0.00000000000E+00 0. -1.
         -5    1    3    3    0  503  0.19403052962E+01 -0.82633727374E+02 -0.41975518667E+02  0.92823121321E+02  0.47000000000E+01 0.  1.
         13    1    4    4    0    0  0.36378694690E+02  0.16661772480E+02  0.22739891302E+02  0.46023110998E+02  0.00000000000E+00 0. -1.
        -14    1    4    4    0    0  0.31479934751E+02  0.18910800527E+02 -0.56424532562E+02  0.67322600539E+02  0.00000000000E+00 0.  1.
</event>
<event>
12    1  0.8358445E-002  0.1757923E+03  0.7818608E-02  0.1172376E+00
         21   -1    0    0  501  502  0.00000000000E+00  0.00000000000E+00  0.11027581971E+04  0.11027581971E+04  0.00000000000E+00 0. -1.
         21   -1    0    0  502  503 -0.00000000000E+00 -0.00000000000E+00 -0.36524970172E+02  0.36524970172E+02  0.00000000000E+00 0. -1.
         -6    2    1    2    0  503  0.35425476520E+02 -0.20872124825E+02  0.25183104102E+03  0.30612420213E+03  0.16912286636E+03 0.  0.
        -24    2    3    3    0    0 -0.15659561699E+02 -0.36827823065E+02  0.23182980558E+03  0.24879702833E+03  0.80953024209E+02 0.  0.
          6    2    1    2  501    0 -0.35425476520E+02  0.20872124825E+02  0.81440218587E+03  0.83315896510E+03  0.17091615137E+03 0.  0.
         24    2    5    5    0    0 -0.20545247751E+02 -0.13415064377E+02  0.77063936460E+03  0.77541550593E+03  0.82353539141E+02 0.  0.
          5    1    5    5  501    0 -0.14880228769E+02  0.34287189202E+02  0.43762821268E+02  0.57743459170E+02  0.47000000000E+01 0. -1.
        -11    1    6    6    0    0 -0.41847859248E+02 -0.18956508889E+02  0.24224317935E+03  0.24656104821E+03  0.00000000000E+00 0.  1.
         12    1    6    6    0    0  0.21302611497E+02  0.55414445124E+01  0.52839618525E+03  0.52885445772E+03  0.00000000000E+00 0. -1.
         -5    1    3    3    0  503  0.51085038219E+02  0.15955698240E+02  0.20001235438E+02  0.57327173794E+02  0.47000000000E+01 0.  1.
         11    1    4    4    0    0  0.29146756897E+02 -0.29752424207E+02  0.78066972319E+02  0.88482723460E+02  0.00000000000E+00 0. -1.
        -12    1    4    4    0    0 -0.44806318596E+02 -0.70753988580E+01  0.15376283326E+03  0.16031430487E+03  0.00000000000E+00 0.  1.
</event>
<event>
12    1  0.8358445E-002  0.1901616E+03  0.7818608E-02  0.1158440E+00
         21   -1    0    0  501  502  0.00000000000E+00  0.00000000000E+00  0.11103144905E+03  0.11103144905E+03  0.00000000000E+00 0.  1.
         21   -1    0    0  502  503 -0.00000000000E+00 -0.00000000000E+00 -0.33869333612E+03  0.33869333612E+03  0.00000000000E+00 0.  1.
         -6    2    1    2    0  503 -0.71948233094E+02 -0.34610818886E+02 -0.68358345614E+02  0.20207501168E+03  0.17258907816E+03 0.  0.
        -24    2    3    3    0    0 -0.12616329650E+02  0.84036672916E+01  0.24496816552E+02  0.83691347566E+02  0.78577059237E+02 0.  0.
          6    2    1    2  501    0  0.71948233094E+02  0.34610818886E+02 -0.15930354146E+03  0.24764977350E+03  0.17198353107E+03 0.  0.
         24    2    5    5    0    0  0.10658545253E+03  0.31015047342E+02 -0.73917170515E+02  0.15531565799E+03  0.79604105837E+02 0.  0.
          5    1    5    5  501    0 -0.34637219437E+02  0.35957715439E+01 -0.85386370948E+02  0.92334115509E+02  0.47000000000E+01 0. -1.
        -13    1    6    6    0    0  0.78317775717E+02  0.23211108835E+02 -0.66750933392E+01  0.81957223219E+02  0.00000000000E+00 0.  1.
         14    1    6    6    0    0  0.28267676813E+02  0.78039385070E+01 -0.67242077176E+02  0.73358434767E+02  0.00000000000E+00 0. -1.
         -5    1    3    3    0  503 -0.59331903444E+02 -0.43014486177E+02 -0.92855162166E+02  0.11838366411E+03  0.47000000000E+01 0.  1.
         13    1    4    4    0    0  0.77931733570E+00  0.42448251479E+02  0.19664477546E+02  0.46788386019E+02  0.00000000000E+00 0. -1.
        -14    1    4    4    0    0 -0.13395646986E+02 -0.34044584187E+02  0.48323390065E+01  0.36902961547E+02  0.00000000000E+00 0.  1.
</event>
<event>
12    1  0.8358445E-002  0.2100037E+03  0.7818608E-02  0.1141654E+00
         21   -1    0    0  503  502  0.00000000000E+00  0.00000000000E+00  0.23452331243E+04  0.23452331243E+04  0.00000000000E+00 0. -1.
         21   -1    0    0  501  503 -0.00000000000E+00 -0.00000000000E+00 -0.21513435698E+02  0.21513435698E+02  0.00000000000E+00 0.  1.
          6    2    1    2  501    0  0.10236165972E+03 -0.64098896823E+02  0.15838216853E+04  0.15976232969E+04  0.17123810886E+03 0.  0.
         24    2    3    3    0    0  0.69161477193E+02 -0.10696993395E+03  0.12969690400E+04  0.13056529079E+04  0.79843273886E+02 0.  0.
         -6    2    1    2    0  502 -0.10236165972E+03  0.64098896823E+02  0.73989800331E+03  0.76912326313E+03  0.17179918695E+03 0.  0.
        -24    2    5    5    0    0 -0.80137983891E+02 -0.26829963224E+02  0.41134345580E+03  0.42746242246E+03  0.79867018239E+02 0.  0.
          5    1    3    3  501    0  0.33200182528E+02  0.42871037128E+02  0.28685264528E+03  0.29197038899E+03  0.47000000000E+01 0. -1.
        -13    1    4    4    0    0  0.40062026771E+01 -0.49222677249E+01  0.51518191230E+01  0.81743268666E+01  0.00000000000E+00 0.  1.
         14    1    4    4    0    0  0.65155274516E+02 -0.10204766623E+03  0.12918172209E+04  0.12974785810E+04  0.00000000000E+00 0. -1.
         -5    1    5    5    0  502 -0.22223675831E+02  0.90928860047E+02  0.32855454751E+03  0.34166084067E+03  0.47000000000E+01 0.  1.
         13    1    6    6    0    0  0.12889771575E+02  0.63610641921E+01  0.94311792843E+02  0.95400857534E+02  0.00000000000E+00 0. -1.
        -14    1    6    6    0    0 -0.93027755466E+02 -0.33191027416E+02  0.31703166296E+03  0.33206156493E+03  0.00000000000E+00 0.  1.
</event>
<event>
12    1  0.8358445E-002  0.4024502E+03  0.7818608E-02  0.1042942E+00
         21   -1    0    0  503  502  0.00000000000E+00  0.00000000000E+00  0.55697403516E+03  0.55697403516E+03  0.00000000000E+00 0.  1.
         21   -1    0    0  501  503 -0.00000000000E+00 -0.00000000000E+00 -0.35031924303E+03  0.35031924303E+03  0.00000000000E+00 0. -1.
          6    2    1    2  501    0  0.36365477474E+03 -0.75669952804E+01 -0.83778074662E+02  0.41098952670E+03  0.17202200632E+03 0.  0.
         24    2    3    3    0    0  0.21013164948E+03  0.13452513064E+02  0.17222644684E+02  0.22596410945E+03  0.80167818043E+02 0.  0.
         -6    2    1    2    0  502 -0.36365477474E+03  0.75669952804E+01  0.29043286679E+03  0.49630375148E+03  0.17223271760E+03 0.  0.
        -24    2    5    5    0    0 -0.13272422591E+03  0.17525071481E+00  0.16754904716E+03  0.23456709108E+03  0.96608934145E+02 0.  0.
          5    1    3    3  501    0  0.15352312526E+03 -0.21019508344E+02 -0.10100071935E+03  0.18502541725E+03  0.47000000000E+01 0. -1.
        -13    1    4    4    0    0  0.19245735828E+03  0.26836494624E+02 -0.52579979235E+01  0.19439053151E+03  0.00000000000E+00 0.  1.
         14    1    4    4    0    0  0.17674291199E+02 -0.13383981560E+02  0.22480642608E+02  0.31573577939E+02  0.00000000000E+00 0. -1.
         -5    1    5    5    0  502 -0.23093054883E+03  0.73917445656E+01  0.12288381963E+03  0.26173666040E+03  0.47000000000E+01 0.  1.
         13    1    6    6    0    0  0.11799817331E+02  0.31400175796E+00 -0.17908893995E+01  0.11939077476E+02  0.00000000000E+00 0. -1.
        -14    1    6    6    0    0 -0.14452404324E+03 -0.13875104315E+00  0.16933993656E+03  0.22262801361E+03  0.00000000000E+00 0.  1.
</event>
<event>
12    1  0.8358445E-002  0.2698284E+03  0.7818608E-02  0.1101595E+00
         21   -1    0    0  501  502  0.00000000000E+00  0.00000000000E+00  0.21611838590E+03  0.21611838590E+03  0.00000000000E+00 0. -1.
         21   -1    0    0  502  503 -0.00000000000E+00 -0.00000000000E+00 -0.37591332996E+03  0.37591332996E+03  0.00000000000E+00 0. -1.
         -6    2    1    2    0  503 -0.18694903603E+02 -0.20683483940E+03 -0.17775305141E+03  0.32311534899E+03  0.17227080790E+03 0.  0.
        -24    2    3    3    0    0 -0.62946120283E+02 -0.16803560237E+03 -0.84885484791E+02  0.21306978614E+03  0.77427453250E+02 0.  0.
          6    2    1    2  501    0  0.18694903603E+02  0.20683483940E+03  0.17958107347E+02  0.26891636687E+03  0.16989222625E+03 0.  0.
         24    2    5    5    0    0 -0.20446133840E+02  0.12558630972E+03 -0.46693011740E+02  0.15785241418E+03  0.80914657141E+02 0.  0.
          5    1    5    5  501    0  0.39141037443E+02  0.81248529684E+02  0.64651119087E+02  0.11106395269E+03  0.47000000000E+01 0. -1.
        -13    1    6    6    0    0 -0.31129620127E+02  0.64061321456E+02 -0.61014802705E+02  0.93785458922E+02  0.00000000000E+00 0.  1.
         14    1    6    6    0    0  0.10683486287E+02  0.61524988263E+02  0.14321790965E+02  0.64066955262E+02  0.00000000000E+00 0. -1.
         -5    1    3    3    0  503  0.44251216680E+02 -0.38799237037E+02 -0.92867566620E+02  0.11004556285E+03  0.47000000000E+01 0.  1.
         13    1    4    4    0    0 -0.51375263973E+01 -0.61719109819E+02 -0.66140114588E+02  0.90609919170E+02  0.00000000000E+00 0. -1.
        -14    1    4    4    0    0 -0.57808593886E+02 -0.10631649255E+03 -0.18745370204E+02  0.12245986697E+03  0.00000000000E+00 0.  1.
</event>
<event>
12    1  0.8358445E-002  0.2273839E+03  0.7818608E-02  0.1128563E+00
         21   -1    0    0  503  502  0.00000000000E+00  0.00000000000E+00  0.12534946713E+02  0.12534946713E+02  0.00000000000E+00 0.  1.
         21   -1    0    0  501  503 -0.00000000000E+00 -0.00000000000E+00 -0.41208468647E+04  0.41208468647E+04  0.00000000000E+00 0. -1.
          6    2    1    2  501    0  0.11698767268E+03  0.92049137589E+02 -0.21080830209E+04  0.21202700245E+04  0.17138201257E+03 0.  0.
         24    2    3    3    0    0  0.75109440689E+02 -0.16863735026E+02 -0.91615344009E+03  0.92263317808E+03  0.77388900182E+02 0.  0.
         -6    2    1    2    0  502 -0.11698767268E+03 -0.92049137589E+02 -0.20002288970E+04  0.20131117869E+04  0.17188445778E+03 0.  0.
        -24    2    5    5    0    0 -0.97988534051E+02 -0.11252171091E+03 -0.13324851092E+04  0.13447676018E+04  0.10305556035E+03 0.  0.
          5    1    3    3  501    0  0.41878231986E+02  0.10891287262E+03 -0.11919295809E+04  0.11976368464E+04  0.47000000000E+01 0. -1.
        -11    1    4    4    0    0 -0.84263232343E+00 -0.40301244784E+01 -0.99116743054E+00  0.42348961521E+01  0.00000000000E+00 0.  1.
         12    1    4    4    0    0  0.75952073013E+02 -0.12833610548E+02 -0.91516227266E+03  0.91839828193E+03  0.00000000000E+00 0. -1.
         -5    1    5    5    0  502 -0.18999138624E+02  0.20472573318E+02 -0.66774378787E+03  0.66834418511E+03  0.47000000000E+01 0.  1.
         13    1    6    6    0    0 -0.13352659230E+01  0.41982937766E+01 -0.40188870207E+03  0.40191284809E+03  0.00000000000E+00 0. -1.
        -14    1    6    6    0    0 -0.96653268129E+02 -0.11672000468E+03 -0.93059640710E+03  0.94285475374E+03  0.00000000000E+00 0.  1.
</event>
<event>
12    1  0.8358445E-002  0.2383874E+03  0.7818608E-02  0.1121103E+00
         21   -1    0    0  501  502  0.00000000000E+00  0.00000000000E+00  0.32015025241E+03  0.32015025241E+03  0.00000000000E+00 0.  1.
         21   -1    0    0  502  503 -0.00000000000E+00 -0.00000000000E+00 -0.17846706973E+03  0.17846706973E+03  0.00000000000E+00 0.  1.
         -6    2    1    2    0  503  0.15354711462E+03 -0.58759244066E+02  0.44764317625E+02  0.24255394601E+03  0.17262446936E+03 0.  0.
        -24    2    3    3    0    0  0.89849579231E+02 -0.10243256026E+03  0.10651230861E+02  0.15799315574E+03  0.79265454352E+02 0.  0.
          6    2    1    2  501    0 -0.15354711462E+03  0.58759244066E+02  0.96918865059E+02  0.25606337613E+03  0.17072147205E+03 0.  0.
         24    2    5    5    0    0 -0.10897548725E+03 -0.10010547869E+02  0.10293900407E+02  0.13672399139E+03  0.81311853663E+02 0.  0.
          5    1    5    5  501    0 -0.44571627367E+02  0.68769791935E+02  0.86624964652E+02  0.11933938474E+03  0.47000000000E+01 0. -1.
        -11    1    6    6    0    0 -0.95048915661E+02 -0.14152105458E+01  0.39743025956E+02  0.10303303985E+03  0.00000000000E+00 0.  1.
         12    1    6    6    0    0 -0.13926571590E+02 -0.85953373232E+01 -0.29449125549E+02  0.33690951538E+02  0.00000000000E+00 0. -1.
         -5    1    3    3    0  503  0.63697535387E+02  0.43673316192E+02  0.34113086764E+02  0.84560790265E+02  0.47000000000E+01 0.  1.
         13    1    4    4    0    0  0.55477884797E+01 -0.58444069966E+02 -0.12732976729E+02  0.60071756822E+02  0.00000000000E+00 0. -1.
        -14    1    4    4    0    0  0.84301790751E+02 -0.43988490292E+02  0.23384207590E+02  0.97921398921E+02  0.00000000000E+00 0.  1.
</event>
<event>
12    1  0.8358445E-002  0.2705001E+03  0.7818608E-02  0.1101001E+00
         21   -1    0    0  503  502  0.00000000000E+00  0.00000000000E+00  0.49702728190E+03  0.49702728190E+03  0.00000000000E+00 0. -1.
         21   -1    0    0  501  503 -0.00000000000E+00 -0.00000000000E+00 -0.21361416337E+03  0.21361416337E+03  0.00000000000E+00 0. -1.
          6    2    1    2  501    0 -0.16995700158E+03  0.12108287423E+03 -0.56424908996E+02  0.27632241474E+03  0.17211583807E+03 0.  0.
         24    2    3    3    0    0 -0.10318916395E+02  0.22454089117E+02 -0.29463890067E+02  0.86688709834E+02  0.77692634407E+02 0.  0.
         -6    2    1    2    0  502  0.16995700158E+03 -0.12108287423E+03  0.33983802753E+03  0.43431903052E+03  0.17203688704E+03 0.  0.
        -24    2    5    5    0    0  0.17306801434E+03 -0.66121414078E+02  0.20483023494E+03  0.28844362286E+03  0.83184850983E+02 0.  0.
          5    1    3    3  501    0 -0.15963808518E+03  0.98628785118E+02 -0.26961018929E+02  0.18963370491E+03  0.47000000000E+01 0. -1.
        -11    1    4    4    0    0  0.11957364640E+01  0.49080635071E+02 -0.61641167989E+01  0.49480651375E+02  0.00000000000E+00 0.  1.
         12    1    4    4    0    0 -0.11514652859E+02 -0.26626545954E+02 -0.23299773268E+02  0.37208058459E+02  0.00000000000E+00 0. -1.
         -5    1    5    5    0  502 -0.31110127630E+01 -0.54961460157E+02  0.13500779259E+03  0.14587540767E+03  0.47000000000E+01 0.  1.
         11    1    6    6    0    0  0.39393169918E+02 -0.53350085297E+02  0.89757806614E+02  0.11159980863E+03  0.00000000000E+00 0. -1.
        -12    1    6    6    0    0  0.13367484442E+03 -0.12771328781E+02  0.11507242833E+03  0.17684381423E+03  0.00000000000E+00 0.  1.
</event>
<event>
12    1  0.8358445E-002  0.1885978E+03  0.7818608E-02  0.1159825E+00
         21   -1    0    0  503  502  0.00000000000E+00  0.00000000000E+00  0.12082820970E+04  0.12082820970E+04  0.00000000000E+00 0. -1.
         21   -1    0    0  501  503 -0.00000000000E+00 -0.00000000000E+00 -0.82734551268E+02  0.82734551268E+02  0.00000000000E+00 0. -1.
          6    2    1    2  501    0  0.32599454961E+01  0.77508417810E+02  0.44586703923E+02  0.19379657843E+03  0.17190391958E+03 0.  0.
         24    2    3    3    0    0 -0.91906305164E+01 -0.17252746291E+02  0.32345186655E+02  0.97325651148E+02  0.89688050084E+02 0.  0.
         -6    2    1    2    0  502 -0.32599454961E+01 -0.77508417810E+02  0.10809608418E+04  0.10972200699E+04  0.17145657779E+03 0.  0.
        -24    2    5    5    0    0 -0.39015963770E+02 -0.21199207785E+02  0.89359049466E+03  0.89827546206E+03  0.80144754982E+02 0.  0.
          5    1    3    3  501    0  0.12450576013E+02  0.94761164100E+02  0.12241517268E+02  0.96470927277E+02  0.47000000000E+01 0. -1.
        -11    1    4    4    0    0 -0.13044114805E+02 -0.32638422184E+02 -0.21493437635E+02  0.41199313041E+02  0.00000000000E+00 0.  1.
         12    1    4    4    0    0  0.38534842890E+01  0.15385675893E+02  0.53838624290E+02  0.56126338107E+02  0.00000000000E+00 0. -1.
         -5    1    5    5    0  502  0.35756018274E+02 -0.56309210024E+02  0.18737034719E+03  0.19894460782E+03  0.47000000000E+01 0.  1.
         11    1    6    6    0    0 -0.62294293060E+02 -0.15471991443E+02  0.74540069645E+03  0.74815918075E+03  0.00000000000E+00 0. -1.
        -12    1    6    6    0    0  0.23278329291E+02 -0.57272163419E+01  0.14818979821E+03  0.15011628131E+03  0.00000000000E+00 0.  1.
</event>
<event>
12    1  0.8358445E-002  0.2037740E+03  0.7818608E-02  0.1147801E+00
         21   -1    0    0  503  502  0.00000000000E+00  0.00000000000E+00  0.10137747408E+04  0.10137747408E+04  0.00000000000E+00 0.  1.
         21   -1    0    0  501  503 -0.00000000000E+00 -0.00000000000E+00 -0.39838070859E+02  0.39838070859E+02  0.00000000000E+00 0.  1.
          6    2    1    2  501    0 -0.62510440627E+02  0.91770773581E+02  0.47912867308E+03  0.52066125354E+03  0.17086376296E+03 0.  0.
         24    2    3    3    0    0 -0.10431861436E+03  0.62452938888E+02  0.40685428908E+03  0.43204333546E+03  0.79676146331E+02 0.  0.
         -6    2    1    2    0  502  0.62510440627E+02 -0.91770773581E+02  0.49480799689E+03  0.53295155815E+03  0.16392980046E+03 0.  0.
        -24    2    5    5    0    0  0.48790745551E+02 -0.11114183735E+03  0.48587541287E+03  0.50715719439E+03  0.80002863245E+02 0.  0.
          5    1    3    3  501    0  0.41808173729E+02  0.29317834693E+02  0.72274384000E+02  0.88617918077E+02  0.47000000000E+01 0. -1.
        -11    1    4    4    0    0 -0.78742330350E+02  0.39300768725E+02  0.15840218169E+03  0.18120749481E+03  0.00000000000E+00 0.  1.
         12    1    4    4    0    0 -0.25576284006E+02  0.23152170163E+02  0.24845210739E+03  0.25083584065E+03  0.00000000000E+00 0. -1.
         -5    1    5    5    0  502  0.13719695076E+02  0.19371063770E+02  0.89325840161E+01  0.25794363760E+02  0.47000000000E+01 0.  1.
         13    1    6    6    0    0 -0.18297795436E+02 -0.21977022415E+02  0.54064934422E+02  0.61162210278E+02  0.00000000000E+00 0. -1.
        -14    1    6    6    0    0  0.67088540987E+02 -0.89164814937E+02  0.43181047845E+03  0.44599498411E+03  0.00000000000E+00 0.  1.
</event>
<event>
12    1  0.8358445E-002  0.1846762E+03  0.7818608E-02  0.1163535E+00
         21   -1    0    0  501  502  0.00000000000E+00  0.00000000000E+00  0.32507087549E+03  0.32507087549E+03  0.00000000000E+00 0.  1.
         21   -1    0    0  502  503 -0.00000000000E+00 -0.00000000000E+00 -0.33481987860E+03  0.33481987860E+03  0.00000000000E+00 0.  1.
         -6    2    1    2    0  503 -0.65380297849E+02 -0.70496185984E+01 -0.27854682951E+03  0.33420598806E+03  0.17257179886E+03 0.  0.
        -24    2    3    3    0    0 -0.48553674704E+02  0.27839285231E+01 -0.29432712394E+03  0.30869243112E+03  0.79355853975E+02 0.  0.
          6    2    1    2  501    0  0.65380297849E+02  0.70496185984E+01  0.26879782640E+03  0.32568476602E+03  0.17173821612E+03 0.  0.
         24    2    5    5    0    0  0.18050077339E+02 -0.56564019736E+02  0.11113415602E+03  0.14914364415E+03  0.79798072254E+02 0.  0.
          5    1    5    5  501    0  0.47330220510E+02  0.63613638334E+02  0.15766367037E+03  0.17654112187E+03  0.47000000000E+01 0. -1.
        -11    1    6    6    0    0  0.36093983735E+02 -0.49352734087E+02  0.11413595645E+03  0.12948159938E+03  0.00000000000E+00 0.  1.
         12    1    6    6    0    0 -0.18043906396E+02 -0.72112856488E+01 -0.30018004275E+01  0.19662044770E+02  0.00000000000E+00 0. -1.
         -5    1    3    3    0  503 -0.16826623145E+02 -0.98335471214E+01  0.15780294434E+02  0.25513556943E+02  0.47000000000E+01 0.  1.
         13    1    4    4    0    0  0.18380095816E+02  0.57473845131E+01 -0.12697303203E+03  0.12842511909E+03  0.00000000000E+00 0. -1.
        -14    1    4    4    0    0 -0.66933770521E+02 -0.29634559900E+01 -0.16735409191E+03  0.18026731203E+03  0.00000000000E+00 0.  1.
</event>
<event>
12    1  0.8358445E-002  0.2359133E+03  0.7818608E-02  0.1123091E+00
         21   -1    0    0  501  502  0.00000000000E+00  0.00000000000E+00  0.12275577986E+03  0.12275577986E+03  0.00000000000E+00 0. -1.
         21   -1    0    0  502  503 -0.00000000000E+00 -0.00000000000E+00 -0.51040112138E+03  0.51040112138E+03  0.00000000000E+00 0.  1.
         -6    2    1    2    0  503 -0.30246971623E+02  0.15558430386E+03 -0.30398707453E+03  0.38284946472E+03  0.17042363761E+03 0.  0.
        -24    2    3    3    0    0 -0.20982991474E+02  0.59965824824E+01 -0.10523987461E+03  0.13388190219E+03  0.79829114950E+02 0.  0.
          6    2    1    2  501    0  0.30246971623E+02 -0.15558430386E+03 -0.83658266989E+02  0.25030743652E+03  0.17473909763E+03 0.  0.
         24    2    5    5    0    0  0.16433282611E+02 -0.18668394130E+03 -0.60555841420E+02  0.20890915733E+03  0.69678399596E+02 0.  0.
          5    1    5    5  501    0  0.13813689012E+02  0.31099637436E+02 -0.23102425568E+02  0.41398279190E+02  0.47000000000E+01 0. -1.
        -11    1    6    6    0    0 -0.17813505724E+02 -0.13687377506E+03 -0.30309486720E+02  0.14131672325E+03  0.00000000000E+00 0.  1.
         12    1    6    6    0    0  0.34246788335E+02 -0.49810166236E+02 -0.30246354701E+02  0.67592434076E+02  0.00000000000E+00 0. -1.
         -5    1    3    3    0  503 -0.92639801499E+01  0.14958772138E+03 -0.19874719992E+03  0.24896756253E+03  0.47000000000E+01 0.  1.
         13    1    4    4    0    0 -0.38828018419E+02  0.27277994697E+02 -0.36889451560E+02  0.60104372931E+02  0.00000000000E+00 0. -1.
        -14    1    4    4    0    0  0.17845026946E+02 -0.21281412214E+02 -0.68350423054E+02  0.73777529263E+02  0.00000000000E+00 0.  1.
</event>
<event>
12    1  0.8358445E-002  0.2105310E+03  0.7818608E-02  0.1141155E+00
         21   -1    0    0  503  502  0.00000000000E+00  0.00000000000E+00  0.65538206386E+03  0.65538206386E+03  0.00000000000E+00 0. -1.
         21   -1    0    0  501  503 -0.00000000000E+00 -0.00000000000E+00 -0.23686537171E+03  0.23686537171E+03  0.00000000000E+00 0.  1.
          6    2    1    2  501    0 -0.57040458100E+02 -0.10689486087E+03 -0.16785938216E+03  0.26922237773E+03  0.17211563366E+03 0.  0.
         24    2    3    3    0    0 -0.11194258063E+02 -0.49313312131E+02 -0.94942720708E+01  0.94525191414E+02  0.79295374662E+02 0.  0.
         -6    2    1    2    0  502  0.57040458100E+02  0.10689486087E+03  0.58637607431E+03  0.62302505783E+03  0.17217199838E+03 0.  0.
        -24    2    5    5    0    0  0.33817996479E+02  0.61885223957E+02  0.15979693562E+03  0.19342407819E+03  0.83092572251E+02 0.  0.
          5    1    3    3  501    0 -0.45846200037E+02 -0.57581548740E+02 -0.15836511009E+03  0.17469718632E+03  0.47000000000E+01 0. -1.
        -11    1    4    4    0    0 -0.13000237974E+02 -0.25093301835E+02 -0.44021012693E+02  0.52311848972E+02  0.00000000000E+00 0.  1.
         12    1    4    4    0    0  0.18059799109E+01 -0.24220010297E+02  0.34526740622E+02  0.42213342443E+02  0.00000000000E+00 0. -1.
         -5    1    5    5    0  502  0.23222461621E+02  0.45009636914E+02  0.42657913869E+03  0.42960097964E+03  0.47000000000E+01 0.  1.
         11    1    6    6    0    0 -0.90304250382E+01  0.16840627999E+02  0.11554367110E+03  0.11711317287E+03  0.00000000000E+00 0. -1.
        -12    1    6    6    0    0  0.42848421517E+02  0.45044595959E+02  0.44253264515E+02  0.76310905327E+02  0.00000000000E+00 0.  1.
</event>
<event>
12    1  0.8358445E-002  0.2133242E+03  0.7818608E-02  0.1139793E+00
         21   -1    0    0  501  502  0.00000000000E+00  0.00000000000E+00  0.14811078747E+03  0.14811078747E+03  0.00000000000E+00 0. -1.
         21   -1    0    0  502  503 -0.00000000000E+00 -0.00000000000E+00 -0.47395542453E+03  0.47395542453E+03  0.00000000000E+00 0. -1.
         -6    2    1    2    0  503 -0.56905189306E+02  0.10070804337E+03 -0.35175924201E+03  0.41139003900E+03  0.17923975363E+03 0.  0.
        -24    2    3    3    0    0 -0.51914286582E+02  0.14229123373E+03 -0.28403485792E+03  0.33162317225E+03  0.79726027844E+02 0.  0.
          6    2    1    2  501    0  0.56905189306E+02 -0.10070804337E+03  0.25914604947E+02  0.21067617300E+03  0.17416248894E+03 0.  0.
         24    2    5    5    0    0 -0.29090176933E+02 -0.76954274965E+02  0.35417877679E+02  0.12083271626E+03  0.81104379838E+02 0.  0.
          5    1    5    5  501    0  0.85995366239E+02 -0.23753768406E+02 -0.95032727328E+01  0.89843456749E+02  0.47000000000E+01 0. -1.
        -11    1    6    6    0    0 -0.27408169166E+02 -0.93825172116E+02  0.24855256995E+02  0.10085709920E+03  0.00000000000E+00 0.  1.
         12    1    6    6    0    0 -0.16820077675E+01  0.16870897152E+02  0.10562620684E+02  0.19975617051E+02  0.00000000000E+00 0. -1.
         -5    1    3    3    0  503 -0.49909027237E+01 -0.41583190357E+02 -0.67724384088E+02  0.79766866746E+02  0.47000000000E+01 0.  1.
         13    1    4    4    0    0 -0.53711106300E+02  0.69433934310E+02 -0.96650589612E+02  0.13056527351E+03  0.00000000000E+00 0. -1.
        -14    1    4    4    0    0  0.17968197178E+01  0.72857299418E+02 -0.18738426831E+03  0.20105789875E+03  0.00000000000E+00 0.  1.
</event>
<event>
12    1  0.8358445E-002  0.2302528E+03  0.7818608E-02  0.1126754E+00
         21   -1    0    0  501  502  0.00000000000E+00  0.00000000000E+00  0.30591718429E+03  0.30591718429E+03  0.00000000000E+00 0. -1.
         21   -1    0    0  502  503 -0.00000000000E+00 -0.00000000000E+00 -0.18310180732E+03  0.18310180732E+03  0.00000000000E+00 0.  1.
         -6    2    1    2    0  503  0.12487341671E+03 -0.84251442209E+02  0.12124223181E+03  0.25876085979E+03  0.17194716650E+03 0.  0.
        -24    2    3    3    0    0 -0.17000948020E+02 -0.35156006921E+02  0.77569250123E+02  0.10233798274E+03  0.54139607415E+02 0.  0.
          6    2    1    2  501    0 -0.12487341671E+03  0.84251442209E+02  0.15731451726E+01  0.23025813182E+03  0.17413976217E+03 0.  0.
         24    2    5    5    0    0  0.35996441642E+01  0.84897540168E+01 -0.14335885436E+00  0.81026107265E+02  0.80499541274E+02 0.  0.
          5    1    5    5  501    0 -0.12847306087E+03  0.75761688192E+02  0.17165040269E+01  0.14923202456E+03  0.47000000000E+01 0. -1.
        -13    1    6    6    0    0 -0.91714290116E+01  0.42093114481E+02  0.88263881921E+01  0.43975567368E+02  0.00000000000E+00 0.  1.
         14    1    6    6    0    0  0.12771073176E+02 -0.33603360464E+02 -0.89697470464E+01  0.37050539897E+02  0.00000000000E+00 0. -1.
         -5    1    3    3    0  503  0.14187436473E+03 -0.49095435288E+02  0.43672981684E+02  0.15642287704E+03  0.47000000000E+01 0.  1.
         11    1    4    4    0    0  0.72558215191E+01 -0.39159093181E+02  0.60412505796E+02  0.72358499025E+02  0.00000000000E+00 0. -1.
        -12    1    4    4    0    0 -0.24256769539E+02  0.40030862598E+01  0.17156744327E+02  0.29979483718E+02  0.00000000000E+00 0.  1.
</event>
<event>
12    1  0.8358445E-002  0.1795471E+03  0.7818608E-02  0.1168989E+00
         21   -1    0    0  501  502  0.00000000000E+00  0.00000000000E+00  0.27377077989E+02  0.27377077989E+02  0.00000000000E+00 0.  1.
         21   -1    0    0  502  503 -0.00000000000E+00 -0.00000000000E+00 -0.13598757291E+04  0.13598757291E+04  0.00000000000E+00 0.  1.
         -6    2    1    2    0  503 -0.56445858591E+01 -0.39343895101E+02 -0.39389571106E+03  0.43163121520E+03  0.17196473857E+03 0.  0.
        -24    2    3    3    0    0 -0.60120209486E+02  0.92781010525E+01 -0.19132400732E+03  0.21624997824E+03  0.80365754913E+02 0.  0.
          6    2    1    2  501    0  0.56445858591E+01  0.39343895101E+02 -0.93860294005E+03  0.95562159189E+03  0.17509238813E+03 0.  0.
         24    2    5    5    0    0 -0.61063933421E+02  0.44212796731E+02 -0.50035167792E+03  0.51227072462E+03  0.79911941200E+02 0.  0.
          5    1    5    5  501    0  0.66708519280E+02 -0.48689016305E+01 -0.43825126212E+03  0.44335086726E+03  0.47000000000E+01 0. -1.
        -13    1    6    6    0    0 -0.68203676868E+02  0.25655671878E+02 -0.47229244266E+03  0.47788084962E+03  0.00000000000E+00 0.  1.
         14    1    6    6    0    0  0.71397434471E+01  0.18557124853E+02 -0.28059235259E+02  0.34389875002E+02  0.00000000000E+00 0. -1.
         -5    1    3    3    0  503  0.54475623626E+02 -0.48621996153E+02 -0.20257170374E+03  0.21538123696E+03  0.47000000000E+01 0.  1.
         11    1    4    4    0    0 -0.66702163993E+02  0.20928868763E+02 -0.19040953679E+03  0.20283734353E+03  0.00000000000E+00 0. -1.
        -12    1    4    4    0    0  0.65819545078E+01 -0.11650767711E+02 -0.91447052666E+00  0.13412634705E+02  0.00000000000E+00 0.  1.
</event>
<event>
12    1  0.8358445E-002  0.2834083E+03  0.7818608E-02  0.1093846E+00
         21   -1    0    0  501  502  0.00000000000E+00  0.00000000000E+00  0.10136942785E+03  0.10136942785E+03  0.00000000000E+00 0. -1.
         21   -1    0    0  502  503 -0.00000000000E+00 -0.00000000000E+00 -0.91732889411E+03  0.91732889411E+03  0.00000000000E+00 0.  1.
         -6    2    1    2    0  503  0.56400564669E+02 -0.21773483151E+03 -0.59602637229E+03  0.65996330818E+03  0.17237938138E+03 0.  0.
        -24    2    3    3    0    0  0.18971381955E+02 -0.30798606128E+02 -0.23664874907E+03  0.25312124773E+03  0.82214768398E+02 0.  0.
          6    2    1    2  501    0 -0.56400564669E+02  0.21773483151E+03 -0.21993309396E+03  0.35873501379E+03  0.17242611099E+03 0.  0.
         24    2    5    5    0    0  0.16864372556E+02  0.10598983671E+03 -0.48144072141E+02  0.14104658298E+03  0.77833375493E+02 0.  0.
          5    1    5    5  501    0 -0.73264937225E+02  0.11174499479E+03 -0.17178902182E+03  0.21768843081E+03  0.47000000000E+01 0. -1.
        -13    1    6    6    0    0  0.45339273752E+02  0.62320494032E+02 -0.44012791837E+02  0.88750321498E+02  0.00000000000E+00 0.  1.
         14    1    6    6    0    0 -0.28474901196E+02  0.43669342680E+02 -0.41312803043E+01  0.52296261484E+02  0.00000000000E+00 0. -1.
         -5    1    3    3    0  503  0.37429182714E+02 -0.18693622538E+03 -0.35937762323E+03  0.40684206045E+03  0.47000000000E+01 0.  1.
         13    1    4    4    0    0 -0.26273888061E+02 -0.21757959679E+02 -0.16049568185E+03  0.16408104673E+03  0.00000000000E+00 0. -1.
        -14    1    4    4    0    0  0.45245270015E+02 -0.90406464495E+01 -0.76153067214E+02  0.89040200994E+02  0.00000000000E+00 0.  1.
</event>
<event>
12    1  0.8358445E-002  0.2698865E+03  0.7818608E-02  0.1102648E+00
         21   -1    0    0  503  502  0.00000000000E+00  0.00000000000E+00  0.26527926159E+02  0.26527926159E+02  0.00000000000E+00 0.  1.
         21   -1    0    0  501  503 -0.00000000000E+00 -0.00000000000E+00 -0.33894873248E+04  0.33894873248E+04  0.00000000000E+00 0. -1.
          6    2    1    2  501    0  0.28133358243E+02  0.20574713912E+03 -0.24540131010E+04  0.24678474983E+04  0.15801140343E+03 0.  0.
         24    2    3    3    0    0  0.29954103688E+02  0.83090476548E+02 -0.16729111195E+04  0.16771576934E+04  0.80156341959E+02 0.  0.
         -6    2    1    2    0  502 -0.28133358243E+02 -0.20574713912E+03 -0.90894629756E+03  0.94816775264E+03  0.17238139164E+03 0.  0.
        -24    2    5    5    0    0  0.27303241675E+01 -0.12475802033E+03 -0.31651853768E+03  0.34941526209E+03  0.79592853834E+02 0.  0.
          5    1    3    3  501    0 -0.18207454449E+01  0.12265666257E+03 -0.78110198156E+03  0.79068980491E+03  0.47000000000E+01 0. -1.
        -11    1    4    4    0    0  0.37124398395E+02  0.57083084103E+02 -0.59092759931E+03  0.59483789983E+03  0.00000000000E+00 0.  1.
         12    1    4    4    0    0 -0.71702947074E+01  0.26007392445E+02 -0.10819835202E+04  0.10823197935E+04  0.00000000000E+00 0. -1.
         -5    1    5    5    0  502 -0.30863682410E+02 -0.80989118791E+02 -0.59242775988E+03  0.59875249054E+03  0.47000000000E+01 0.  1.
         11    1    6    6    0    0  0.31048726068E+02 -0.68323915097E+02 -0.23252523021E+03  0.24433616894E+03  0.00000000000E+00 0. -1.
        -12    1    6    6    0    0 -0.28318401900E+02 -0.56434105228E+02 -0.83993307469E+02  0.10507909316E+03  0.00000000000E+00 0.  1.
</event>
<event>
12    1  0.8358445E-002  0.1940805E+03  0.7818608E-02  0.1155118E+00
         21   -1    0    0  501  502  0.00000000000E+00  0.00000000000E+00  0.34558328126E+03  0.34558328126E+03  0.00000000000E+00 0.  1.
         21   -1    0    0  502  503 -0.00000000000E+00 -0.00000000000E+00 -0.10991927181E+03  0.10991927181E+03  0.00000000000E+00 0.  1.
         -6    2    1    2    0  503 -0.80659493160E+02  0.38401938680E+02  0.90299502647E+02  0.21405898085E+03  0.17229795232E+03 0.  0.
        -24    2    3    3    0    0 -0.67430276274E+02  0.56055204259E+02 -0.21670201346E+01  0.11888126392E+03  0.80243572032E+02 0.  0.
          6    2    1    2  501    0  0.80659493160E+02 -0.38401938680E+02  0.14536450680E+03  0.24144357222E+03  0.17083177690E+03 0.  0.
         24    2    5    5    0    0  0.90895130038E+02  0.27196129163E+02  0.81220919987E+02  0.14900784051E+03  0.81270810165E+02 0.  0.
          5    1    5    5  501    0 -0.10235636878E+02 -0.65598067844E+02  0.64143586817E+02  0.92435731711E+02  0.47000000000E+01 0. -1.
        -13    1    6    6    0    0  0.44557761181E+02  0.54326563372E+01  0.86590052635E+02  0.97533302270E+02  0.00000000000E+00 0.  1.
         14    1    6    6    0    0  0.46337368857E+02  0.21763472826E+02 -0.53691326477E+01  0.51474538244E+02  0.00000000000E+00 0. -1.
         -5    1    3    3    0  503 -0.13229216885E+02 -0.17653265579E+02  0.92466522781E+02  0.95177716931E+02  0.47000000000E+01 0.  1.
         13    1    4    4    0    0  0.17807952079E+02  0.12904656042E+02 -0.73899242274E+01  0.23200523375E+02  0.00000000000E+00 0. -1.
        -14    1    4    4    0    0 -0.85238228354E+02  0.43150548217E+02  0.52229040928E+01  0.95680740546E+02  0.00000000000E+00 0.  1.
</event>
<event>
12    1  0.8358445E-002  0.2362634E+03  0.7818608E-02  0.1122316E+00
         21   -1    0    0  501  502  0.00000000000E+00  0.00000000000E+00  0.86563549802E+02  0.86563549802E+02  0.00000000000E+00 0.  1.
         21   -1    0    0  502  503 -0.00000000000E+00 -0.00000000000E+00 -0.64583214772E+03  0.64583214772E+03  0.00000000000E+00 0.  1.
         -6    2    1    2    0  503 -0.76085285774E+02  0.14440764559E+03 -0.26439225272E+03  0.35457530496E+03  0.17081523577E+03 0.  0.
        -24    2    3    3    0    0  0.42238233250E+01  0.41725727032E+02 -0.17655064848E+03  0.19731320896E+03  0.77482217122E+02 0.  0.
          6    2    1    2  501    0  0.76085285774E+02 -0.14440764559E+03 -0.29487634519E+03  0.37782039256E+03  0.17074440330E+03 0.  0.
         24    2    5    5    0    0  0.84490172942E+02 -0.12540294989E+03 -0.13945147642E+03  0.22094209443E+03  0.80648655626E+02 0.  0.
          5    1    5    5  501    0 -0.84048871682E+01 -0.19004695708E+02 -0.15542486878E+03  0.15687829812E+03  0.47000000000E+01 0. -1.
        -13    1    6    6    0    0  0.77064111429E+02 -0.13169959101E+03 -0.14434474735E+03  0.21004538945E+03  0.00000000000E+00 0.  1.
         14    1    6    6    0    0  0.74260615139E+01  0.62966411272E+01  0.48932709299E+01  0.10896704983E+02  0.00000000000E+00 0. -1.
         -5    1    3    3    0  503 -0.80309109099E+02  0.10268191856E+03 -0.87841604238E+02  0.15726209600E+03  0.47000000000E+01 0.  1.
         11    1    4    4    0    0 -0.88526397963E+01 -0.19102854160E+02 -0.77782313247E+02  0.80581489949E+02  0.00000000000E+00 0. -1.
        -12    1    4    4    0    0  0.13076463121E+02  0.60828581192E+02 -0.98768335235E+02  0.11673171901E+03  0.00000000000E+00 0.  1.
</event>
<event>
12    1  0.8358445E-002  0.2539976E+03  0.7818608E-02  0.1110816E+00
         21   -1    0    0  503  502  0.00000000000E+00  0.00000000000E+00  0.16142249984E+04  0.16142249984E+04  0.00000000000E+00 0. -1.
         21   -1    0    0  501  503 -0.00000000000E+00 -0.00000000000E+00 -0.51949228988E+02  0.51949228988E+02  0.00000000000E+00 0. -1.
          6    2    1    2  501    0  0.72733103837E+01  0.18667935590E+03  0.38091807415E+03  0.45783550762E+03  0.17208338053E+03 0.  0.
         24    2    3    3    0    0 -0.61007836257E+02  0.11987685750E+03  0.23944848320E+03  0.28707068705E+03  0.83555886728E+02 0.  0.
         -6    2    1    2    0  502 -0.72733103837E+01 -0.18667935590E+03  0.11813576953E+04  0.12083387198E+04  0.17197201687E+03 0.  0.
        -24    2    5    5    0    0 -0.38769948510E+02 -0.20580624400E+02  0.35274181885E+03  0.36263948987E+03  0.71790931452E+02 0.  0.
          5    1    3    3  501    0  0.68281146640E+02  0.66802498406E+02  0.14146959095E+03  0.17076482057E+03  0.47000000000E+01 0. -1.
        -13    1    4    4    0    0 -0.16475280293E+02 -0.32609282695E+01  0.33999827897E+01  0.17135588607E+02  0.00000000000E+00 0.  1.
         14    1    4    4    0    0 -0.44532555963E+02  0.12313778577E+03  0.23604850041E+03  0.26993509844E+03  0.00000000000E+00 0. -1.
         -5    1    5    5    0  502  0.31496638126E+02 -0.16609873150E+03  0.82861587642E+03  0.84569922991E+03  0.47000000000E+01 0.  1.
         13    1    6    6    0    0 -0.32781259196E+02 -0.39100544771E+02  0.13998477863E+03  0.14899396567E+03  0.00000000000E+00 0. -1.
        -14    1    6    6    0    0 -0.59886893137E+01  0.18519920370E+02  0.21275704022E+03  0.21364552421E+03  0.00000000000E+00 0.  1.
</event>
<event>
12    1  0.8358445E-002  0.1855640E+03  0.7818608E-02  0.1163649E+00
         21   -1    0    0  503  502  0.00000000000E+00  0.00000000000E+00  0.11296715102E+03  0.11296715102E+03  0.00000000000E+00 0. -1.
         21   -1    0    0  501  503 -0.00000000000E+00 -0.00000000000E+00 -0.41972416042E+03  0.41972416042E+03  0.00000000000E+00 0. -1.
          6    2    1    2  501    0 -0.45412583794E+02 -0.22864170826E+02 -0.29878896611E+03  0.35172269317E+03  0.17846269512E+03 0.  0.
         24    2    3    3    0    0 -0.52591398422E+02  0.41643392100E+02 -0.66735929293E+02  0.11071758337E+03  0.57486274147E+02 0.  0.
         -6    2    1    2    0  502  0.45412583794E+02  0.22864170826E+02 -0.79680432867E+01  0.18096861827E+03  0.17349662248E+03 0.  0.
        -24    2    5    5    0    0  0.85897870554E+02  0.54468976403E+02  0.88697156481E+00  0.12863867018E+03  0.78751553574E+02 0.  0.
          5    1    3    3  501    0  0.71788146282E+01 -0.64507562927E+02 -0.23205303682E+03  0.24100510980E+03  0.47000000000E+01 0. -1.
        -11    1    4    4    0    0  0.12134270373E+02  0.98862522176E+01 -0.17129648242E+02  0.23203520191E+02  0.00000000000E+00 0.  1.
         12    1    4    4    0    0 -0.64725668795E+02  0.31757139883E+02 -0.49606281051E+02  0.87514063180E+02  0.00000000000E+00 0. -1.
         -5    1    5    5    0  502 -0.40485286761E+02 -0.31604805576E+02 -0.88550148515E+01  0.52329948095E+02  0.47000000000E+01 0.  1.
         11    1    6    6    0    0  0.39811822422E+02  0.58260748581E+02 -0.25937094680E+02  0.75179976790E+02  0.00000000000E+00 0. -1.
        -12    1    6    6    0    0  0.46086048133E+02 -0.37917721780E+01  0.26824066245E+02  0.53458693387E+02  0.00000000000E+00 0.  1.
</event>
<event>
12    1  0.8358445E-002  0.2063116E+03  0.7818608E-02  0.1145077E+00
         21   -1    0    0  503  502  0.00000000000E+00  0.00000000000E+00  0.55351250930E+03  0.55351250930E+03  0.00000000000E+00 0. -1.
         21   -1    0    0  501  503 -0.00000000000E+00 -0.00000000000E+00 -0.80477929996E+02  0.80477929996E+02  0.00000000000E+00 0.  1.
          6    2    1    2  501    0 -0.11466684540E+03 -0.10123383739E+02  0.15931591730E+03  0.25851222056E+03  0.16791676016E+03 0.  0.
         24    2    3    3    0    0 -0.36855471761E+02 -0.31064530843E+02  0.15695850918E+02  0.93764064347E+02  0.78879713182E+02 0.  0.
         -6    2    1    2    0  502  0.11466684540E+03  0.10123383739E+02  0.31371866200E+03  0.37547821873E+03  0.17121193160E+03 0.  0.
        -24    2    5    5    0    0  0.36531221654E+02  0.48985040770E+02  0.24518991312E+03  0.26442110051E+03  0.77886844346E+02 0.  0.
          5    1    3    3  501    0 -0.77811373636E+02  0.20941147104E+02  0.14362006638E+03  0.16474815621E+03  0.47000000000E+01 0. -1.
        -13    1    4    4    0    0 -0.36060934349E+02 -0.13025196146E+02 -0.27342004642E+02  0.47091739601E+02  0.00000000000E+00 0.  1.
         14    1    4    4    0    0 -0.79453741109E+00 -0.18039334698E+02  0.43037855560E+02  0.46672324746E+02  0.00000000000E+00 0. -1.
         -5    1    5    5    0  502  0.78135623742E+02 -0.38861657031E+02  0.68528748880E+02  0.11105711822E+03  0.47000000000E+01 0.  1.
         11    1    6    6    0    0  0.59225522694E+02  0.41142710250E+02  0.15280229911E+03  0.16896427953E+03  0.00000000000E+00 0. -1.
        -12    1    6    6    0    0 -0.22694301039E+02  0.78423305198E+01  0.92387614013E+02  0.95456820975E+02  0.00000000000E+00 0.  1.
</event>
<event>
12    1  0.8358445E-002  0.1998496E+03  0.7818608E-02  0.1150120E+00
         21   -1    0    0  503  502  0.00000000000E+00  0.00000000000E+00  0.26848014526E+03  0.26848014526E+03  0.00000000000E+00 0.  1.
         21   -1    0    0  501  503 -0.00000000000E+00 -0.00000000000E+00 -0.15182708466E+03  0.15182708466E+03  0.00000000000E+00 0. -1.
          6    2    1    2  501    0  0.82366176180E+02  0.59976511024E+02  0.24577913670E+02  0.20135527291E+03  0.17192586552E+03 0.  0.
         24    2    3    3    0    0  0.83284904995E+02 -0.22074306893E+02  0.13919517451E+02  0.11847661345E+03  0.80120562553E+02 0.  0.
         -6    2    1    2    0  502 -0.82366176180E+02 -0.59976511024E+02  0.92075146932E+02  0.21895195701E+03  0.17053081229E+03 0.  0.
        -24    2    5    5    0    0 -0.43840949848E+02 -0.17059569193E+02 -0.20776797568E+02  0.92130395994E+02  0.76441328901E+02 0.  0.
          5    1    3    3  501    0 -0.91872881583E+00  0.82050817918E+02  0.10658396219E+02  0.82878659458E+02  0.47000000000E+01 0. -1.
        -11    1    4    4    0    0 -0.15980867130E+01  0.10824739391E+02 -0.18789374812E+02  0.21743262631E+02  0.00000000000E+00 0.  1.
         12    1    4    4    0    0  0.84882991708E+02 -0.32899046284E+02  0.32708892263E+02  0.96733350820E+02  0.00000000000E+00 0. -1.
         -5    1    5    5    0  502 -0.38525226331E+02 -0.42916941831E+02  0.11285194450E+03  0.12682156101E+03  0.47000000000E+01 0.  1.
         13    1    6    6    0    0  0.13237770494E+02 -0.28353607062E+02 -0.10754837138E+02  0.33088247505E+02  0.00000000000E+00 0. -1.
        -14    1    6    6    0    0 -0.57078720343E+02  0.11294037868E+02 -0.10021960430E+02  0.59042148489E+02  0.00000000000E+00 0.  1.
</event>
<event>
12    1  0.8358445E-002  0.1882378E+03  0.7818608E-02  0.1161293E+00
         21   -1    0    0  501  502  0.00000000000E+00  0.00000000000E+00  0.39467242399E+03  0.39467242399E+03  0.00000000000E+00 0. -1.
         21   -1    0    0  502  503 -0.00000000000E+00 -0.00000000000E+00 -0.11149823073E+03  0.11149823073E+03  0.00000000000E+00 0. -1.
         -6    2    1    2    0  503  0.60287083179E+01 -0.67413425187E+02  0.25185156672E+02  0.18991516179E+03  0.17564897193E+03 0.  0.
        -24    2    3    3    0    0 -0.31107199668E+02 -0.31512440703E+02  0.62917774442E+02  0.12577627504E+03  0.99500418252E+02 0.  0.
          6    2    1    2  501    0 -0.60287083179E+01  0.67413425187E+02  0.25798903660E+03  0.31625549294E+03  0.16993610149E+03 0.  0.
         24    2    5    5    0    0 -0.31063805654E+02  0.29201801913E+01  0.46613120807E+02  0.93796502279E+02  0.75176547768E+02 0.  0.
          5    1    5    5  501    0  0.25035097337E+02  0.64493244996E+02  0.21137591579E+03  0.22245899066E+03  0.47000000000E+01 0. -1.
        -11    1    6    6    0    0 -0.25710912821E+02 -0.74339609496E+01  0.65974908225E+02  0.71196933423E+02  0.00000000000E+00 0.  1.
         12    1    6    6    0    0 -0.53528928330E+01  0.10354141141E+02 -0.19361787418E+02  0.22599568856E+02  0.00000000000E+00 0. -1.
         -5    1    3    3    0  503  0.37135907986E+02 -0.35900984484E+02 -0.37732617771E+02  0.64138886744E+02  0.47000000000E+01 0.  1.
         11    1    4    4    0    0 -0.19630924141E+02 -0.60554588572E+01 -0.25677616515E+02  0.32884369455E+02  0.00000000000E+00 0. -1.
        -12    1    4    4    0    0 -0.11476275527E+02 -0.25456981846E+02  0.88595390957E+02  0.92891905587E+02  0.00000000000E+00 0.  1.
</event>
<event>
12    1  0.8358445E-002  0.1918432E+03  0.7818608E-02  0.1156827E+00
         21   -1    0    0  501  502  0.00000000000E+00  0.00000000000E+00  0.18445776903E+03  0.18445776903E+03  0.00000000000E+00 0. -1.
         21   -1    0    0  502  503 -0.00000000000E+00 -0.00000000000E+00 -0.43914064088E+03  0.43914064088E+03  0.00000000000E+00 0. -1.
         -6    2    1    2    0  503  0.85352939319E+02  0.11873715340E+02 -0.35768942475E+03  0.40585047684E+03  0.17130900621E+03 0.  0.
        -24    2    3    3    0    0  0.32124474444E+02  0.60423844306E+02 -0.27953554957E+03  0.29945262583E+03  0.82757046950E+02 0.  0.
          6    2    1    2  501    0 -0.85352939319E+02 -0.11873715340E+02  0.10300655289E+03  0.21774793307E+03  0.17139925044E+03 0.  0.
         24    2    5    5    0    0  0.16508049540E+02 -0.32522919746E+02  0.48950899255E+02  0.10050393798E+03  0.79841060891E+02 0.  0.
          5    1    5    5  501    0 -0.10186098886E+03  0.20649204407E+02  0.54055653636E+02  0.11724399509E+03  0.47000000000E+01 0. -1.
        -13    1    6    6    0    0  0.42073938543E+02 -0.18405499389E+01  0.42888921611E+02  0.60108764133E+02  0.00000000000E+00 0.  1.
         14    1    6    6    0    0 -0.25565889003E+02 -0.30682369808E+02  0.60619776433E+01  0.40395173852E+02  0.00000000000E+00 0. -1.
         -5    1    3    3    0  503  0.53228464875E+02 -0.48550128966E+02 -0.78153875176E+02  0.10639785101E+03  0.47000000000E+01 0.  1.
         11    1    4    4    0    0  0.22659499364E+02  0.12499052446E+02 -0.13924247543E+02  0.29386457648E+02  0.00000000000E+00 0. -1.
        -12    1    4    4    0    0  0.94649750799E+01  0.47924791860E+02 -0.26561130203E+03  0.27006616818E+03  0.00000000000E+00 0.  1.
</event>
<event>
12    1  0.8358445E-002  0.3154972E+03  0.7818608E-02  0.1077965E+00
         21   -1    0    0  501  502  0.00000000000E+00  0.00000000000E+00  0.24262815697E+04  0.24262815697E+04  0.00000000000E+00 0.  1.
         21   -1    0    0  502  503 -0.00000000000E+00 -0.00000000000E+00 -0.40901320373E+02  0.40901320373E+02  0.00000000000E+00 0. -1.
         -6    2    1    2    0  503  0.25594494604E+03 -0.55322095028E+02  0.12641476645E+04  0.13029228032E+04  0.17598341870E+03 0.  0.
        -24    2    3    3    0    0  0.10852729253E+03  0.39202889731E+02  0.54200957037E+03  0.55983972951E+03  0.79568263634E+02 0.  0.
          6    2    1    2  501    0 -0.25594494604E+03  0.55322095028E+02  0.11212325847E+04  0.11642600869E+04  0.17254185335E+03 0.  0.
         24    2    5    5    0    0 -0.20023489064E+03  0.15375999816E+02  0.10135795829E+04  0.10365472856E+04  0.82196542741E+02 0.  0.
          5    1    5    5  501    0 -0.55710055402E+02  0.39946095211E+02  0.10765300183E+03  0.12771280123E+03  0.47000000000E+01 0. -1.
        -13    1    6    6    0    0 -0.13980485466E+02  0.26969536156E+02  0.14346388369E+03  0.14664479458E+03  0.00000000000E+00 0.  1.
         14    1    6    6    0    0 -0.18625440517E+03 -0.11593536340E+02  0.87011569923E+03  0.88990249105E+03  0.00000000000E+00 0. -1.
         -5    1    3    3    0  503  0.14741765351E+03 -0.94524984759E+02  0.72213809418E+03  0.74308307367E+03  0.47000000000E+01 0.  1.
         13    1    4    4    0    0  0.83334284826E+01  0.14083191899E+02  0.13166803840E+02  0.21003500844E+02  0.00000000000E+00 0. -1.
        -14    1    4    4    0    0  0.10019386405E+03  0.25119697833E+02  0.52884276653E+03  0.53883622867E+03  0.00000000000E+00 0.  1.
</event>
<event>
12    1  0.8358445E-002  0.2237017E+03  0.7818608E-02  0.1131487E+00
         21   -1    0    0  501  502  0.00000000000E+00  0.00000000000E+00  0.43774261672E+03  0.43774261672E+03  0.00000000000E+00 0.  1.
         21   -1    0    0  502  503 -0.00000000000E+00 -0.00000000000E+00 -0.14186063605E+03  0.14186063605E+03  0.00000000000E+00 0.  1.
         -6    2    1    2    0  503  0.84443495260E+02 -0.11508562602E+03  0.18598103774E+02  0.22447342994E+03  0.17224118578E+03 0.  0.
        -24    2    3    3    0    0  0.40656063290E+02 -0.84882554349E+02 -0.53119294443E+02  0.13505844270E+03  0.81000987567E+02 0.  0.
          6    2    1    2  501    0 -0.84443495260E+02  0.11508562602E+03  0.27728387690E+03  0.35512982282E+03  0.16986888314E+03 0.  0.
         24    2    5    5    0    0 -0.68397247559E+02  0.11524542161E+02  0.84910368247E+02  0.13601333100E+03  0.80491347540E+02 0.  0.
          5    1    5    5  501    0 -0.16046247701E+02  0.10356108386E+03  0.19237350865E+03  0.21911649182E+03  0.47000000000E+01 0. -1.
        -11    1    6    6    0    0 -0.46631936681E+02  0.18552037868E+02  0.97679894576E+02  0.10981838385E+03  0.00000000000E+00 0.  1.
         12    1    6    6    0    0 -0.21765310877E+02 -0.70274957067E+01 -0.12769526329E+02  0.26194947149E+02  0.00000000000E+00 0. -1.
         -5    1    3    3    0  503  0.43787431970E+02 -0.30203071676E+02  0.71717398217E+02  0.89414987246E+02  0.47000000000E+01 0.  1.
         13    1    4    4    0    0  0.12116570251E+02 -0.11636063176E+01 -0.44563282733E+02  0.46195794421E+02  0.00000000000E+00 0. -1.
        -14    1    4    4    0    0  0.28539493039E+02 -0.83718948031E+02 -0.85560117103E+01  0.88862648277E+02  0.00000000000E+00 0.  1.
</event>
<event>
12    1  0.8358445E-002  0.2461103E+03  0.7818608E-02  0.1116080E+00
         21   -1    0    0  503  502  0.00000000000E+00  0.00000000000E+00  0.63439791811E+02  0.63439791811E+02  0.00000000000E+00 0.  1.
         21   -1    0    0  501  503 -0.00000000000E+00 -0.00000000000E+00 -0.11188093165E+04  0.11188093165E+04  0.00000000000E+00 0. -1.
          6    2    1    2  501    0  0.98287437403E+01 -0.17575370882E+03 -0.75715669454E+03  0.79559532565E+03  0.16940983364E+03 0.  0.
         24    2    3    3    0    0 -0.47626071123E+02 -0.83199994674E+02 -0.28061776755E+03  0.30674086398E+03  0.78441981144E+02 0.  0.
         -6    2    1    2    0  502 -0.98287437403E+01  0.17575370882E+03 -0.29821283018E+03  0.38665378269E+03  0.17200082914E+03 0.  0.
        -24    2    5    5    0    0  0.19552368385E+02  0.40108687077E+02 -0.56651973962E+02  0.10802040543E+03  0.80423628035E+02 0.  0.
          5    1    3    3  501    0  0.57454814863E+02 -0.92553714141E+02 -0.47653892700E+03  0.48885446167E+03  0.47000000000E+01 0. -1.
        -11    1    4    4    0    0 -0.38397600509E+02 -0.95162749895E+02 -0.26827570671E+03  0.28723192633E+03  0.00000000000E+00 0.  1.
         12    1    4    4    0    0 -0.92284706145E+01  0.11962755221E+02 -0.12342060832E+02  0.19508937643E+02  0.00000000000E+00 0. -1.
         -5    1    5    5    0  502 -0.29381112126E+02  0.13564502174E+03 -0.24156085621E+03  0.27863337727E+03  0.47000000000E+01 0.  1.
         13    1    6    6    0    0  0.12975925729E+02 -0.12085519369E+02 -0.52310988281E+02  0.55234716636E+02  0.00000000000E+00 0. -1.
        -14    1    6    6    0    0  0.65764426567E+01  0.52194206445E+02 -0.43409856816E+01  0.52785688791E+02  0.00000000000E+00 0.  1.
</event>
<event>
12    1  0.8358445E-002  0.3436887E+03  0.7818608E-02  0.1065411E+00
         21   -1    0    0  501  502  0.00000000000E+00  0.00000000000E+00  0.71904630317E+02  0.71904630317E+02  0.00000000000E+00 0.  1.
         21   -1    0    0  502  503 -0.00000000000E+00 -0.00000000000E+00 -0.18500344767E+04  0.18500344767E+04  0.00000000000E+00 0.  1.
         -6    2    1    2    0  503  0.27685239792E+03 -0.10062619695E+03 -0.12149312329E+04  0.12621553495E+04  0.17379684670E+03 0.  0.
        -24    2    3    3    0    0  0.12165365329E+03 -0.59534468487E+02 -0.83284803625E+03  0.84768600248E+03  0.81189549892E+02 0.  0.
          6    2    1    2  501    0 -0.27685239792E+03  0.10062619695E+03 -0.56319861354E+03  0.65978375755E+03  0.17705662000E+03 0.  0.
         24    2    5    5    0    0 -0.89091544620E+02  0.96660207064E+02 -0.27152374674E+03  0.31284545607E+03  0.82865163911E+02 0.  0.
          5    1    5    5  501    0 -0.18776085329E+03  0.39659898882E+01 -0.29167486681E+03  0.34693830148E+03  0.47000000000E+01 0. -1.
        -13    1    6    6    0    0 -0.34688759292E+02 -0.63808143403E+01 -0.94963647407E+02  0.10130211815E+03  0.00000000000E+00 0.  1.
         14    1    6    6    0    0 -0.54402785329E+02  0.10304102140E+03 -0.17656009933E+03  0.21154333792E+03  0.00000000000E+00 0. -1.
         -5    1    3    3    0  503  0.15519874463E+03 -0.41091728465E+02 -0.38208319661E+03  0.41446934702E+03  0.47000000000E+01 0.  1.
         13    1    4    4    0    0  0.21988258085E+02  0.18794369086E+02 -0.10643170987E+03  0.11029243251E+03  0.00000000000E+00 0. -1.
        -14    1    4    4    0    0  0.99665395201E+02 -0.78328837574E+02 -0.72641632638E+03  0.73739356996E+03  0.00000000000E+00 0.  1.
</event>
<event>
12    1  0.8358445E-002  0.1771099E+03  0.7818608E-02  0.1170921E+00
         21   -1    0    0  503  502  0.00000000000E+00  0.00000000000E+00  0.90183240774E+02  0.90183240774E+02  0.00000000000E+00 0. -1.
         21   -1    0    0  501  503 -0.00000000000E+00 -0.00000000000E+00 -0.49671488506E+03  0.49671488506E+03  0.00000000000E+00 0. -1.
          6    2    1    2  501    0  0.37250378628E+02  0.12483951500E+01 -0.36469340413E+03  0.40491367406E+03  0.17194375600E+03 0.  0.
         24    2    3    3    0    0  0.43197534190E+02  0.23129560443E+02 -0.36992183730E+03  0.38117382218E+03  0.77783761013E+02 0.  0.
         -6    2    1    2    0  502 -0.37250378628E+02 -0.12483951500E+01 -0.41838240151E+02  0.18198445177E+03  0.17314373551E+03 0.  0.
        -24    2    5    5    0    0 -0.20705947173E+02  0.60868806676E+02  0.54787316700E+01  0.10202664541E+03  0.79029564081E+02 0.  0.
          5    1    3    3  501    0 -0.59471555621E+01 -0.21881165293E+02  0.52284331711E+01  0.23739851880E+02  0.47000000000E+01 0. -1.
        -13    1    4    4    0    0 -0.32998898799E+01 -0.24058556029E+02 -0.13129607284E+03  0.13352288992E+03  0.00000000000E+00 0.  1.
         14    1    4    4    0    0  0.46497424070E+02  0.47188116471E+02 -0.23862576447E+03  0.24765093226E+03  0.00000000000E+00 0. -1.
         -5    1    5    5    0  502 -0.16544431455E+02 -0.62117201826E+02 -0.47316971821E+02  0.79957806355E+02  0.47000000000E+01 0.  1.
         11    1    6    6    0    0 -0.48153361621E+02  0.52918916598E+02  0.12424573502E+02  0.72619060831E+02  0.00000000000E+00 0. -1.
        -12    1    6    6    0    0  0.27447414448E+02  0.79498900785E+01 -0.69458418315E+01  0.29407584581E+02  0.00000000000E+00 0.  1.
</event>
<event>
12    1  0.8358445E-002  0.2697523E+03  0.7818608E-02  0.1101512E+00
         21   -1    0    0  501  502  0.00000000000E+00  0.00000000000E+00  0.61485584298E+02  0.61485584298E+02  0.00000000000E+00 0.  1.
         21   -1    0    0  502  503 -0.00000000000E+00 -0.00000000000E+00 -0.11978579845E+04  0.11978579845E+04  0.00000000000E+00 0. -1.
         -6    2    1    2    0  503  0.18547063584E+03 -0.96314178247E+02 -0.64421519190E+03  0.69841212463E+03  0.17055938748E+03 0.  0.
        -24    2    3    3    0    0  0.29419441057E+02  0.45161372266E+00 -0.24535046232E+03  0.25928713514E+03  0.78531914663E+02 0.  0.
          6    2    1    2  501    0 -0.18547063584E+03  0.96314178247E+02 -0.49215720835E+03  0.56093144422E+03  0.16955703964E+03 0.  0.
         24    2    5    5    0    0 -0.57275283101E+02  0.83021994333E+02 -0.32601452383E+03  0.35060737941E+03  0.80417380903E+02 0.  0.
          5    1    5    5  501    0 -0.12819535274E+03  0.13292183914E+02 -0.16614268451E+03  0.21032406480E+03  0.47000000000E+01 0. -1.
        -13    1    6    6    0    0  0.58018649222E+01  0.20258401251E+02 -0.12045983679E+02  0.24272828031E+02  0.00000000000E+00 0.  1.
         14    1    6    6    0    0 -0.63077148023E+02  0.62763593082E+02 -0.31396854015E+03  0.32633455138E+03  0.00000000000E+00 0. -1.
         -5    1    3    3    0  503  0.15605119479E+03 -0.96765791969E+02 -0.39886472959E+03  0.43912498949E+03  0.47000000000E+01 0.  1.
         13    1    4    4    0    0  0.51862329904E+02 -0.45822473875E+00 -0.21702847718E+03  0.22313957771E+03  0.00000000000E+00 0. -1.
        -14    1    4    4    0    0 -0.22442888847E+02  0.90983846141E+00 -0.28321985137E+02  0.36147557426E+02  0.00000000000E+00 0.  1.
</event>
<event>
12    1  0.8358445E-002  0.1911098E+03  0.7818608E-02  0.1157832E+00
         21   -1    0    0  503  502  0.00000000000E+00  0.00000000000E+00  0.13764978277E+03  0.13764978277E+03  0.00000000000E+00 0. -1.
         21   -1    0    0  501  503 -0.00000000000E+00 -0.00000000000E+00 -0.28855577646E+03  0.28855577646E+03  0.00000000000E+00 0. -1.
          6    2    1    2  501    0 -0.60394662631E+02  0.58569355865E+02 -0.13849712493E+03  0.23469333840E+03  0.16976932807E+03 0.  0.
         24    2    3    3    0    0 -0.38544786551E+02 -0.24813321307E+02 -0.22773993583E+02  0.90318752454E+02  0.74413848016E+02 0.  0.
         -6    2    1    2    0  502  0.60394662631E+02 -0.58569355865E+02 -0.12408868763E+02  0.19151222084E+03  0.17159564675E+03 0.  0.
        -24    2    5    5    0    0  0.83751185552E+02 -0.32389891580E+01  0.29661780301E+02  0.11803429112E+03  0.77637107991E+02 0.  0.
          5    1    3    3  501    0 -0.21849876080E+02  0.83382677172E+02 -0.11572313135E+03  0.14437458594E+03  0.47000000000E+01 0. -1.
        -13    1    4    4    0    0 -0.15908429116E+02 -0.29911129840E+02  0.21646232269E+02  0.40203397577E+02  0.00000000000E+00 0.  1.
         14    1    4    4    0    0 -0.22636357434E+02  0.50978085324E+01 -0.44420225852E+02  0.50115354877E+02  0.00000000000E+00 0. -1.
         -5    1    5    5    0  502 -0.23356522921E+02 -0.55330366707E+02 -0.42070649063E+02  0.73477929717E+02  0.47000000000E+01 0.  1.
         11    1    6    6    0    0  0.23777436778E+01  0.26304101040E+02  0.14552816175E+02  0.30155328802E+02  0.00000000000E+00 0. -1.
        -12    1    6    6    0    0  0.81373441875E+02 -0.29543090198E+02  0.15108964126E+02  0.87878962317E+02  0.00000000000E+00 0.  1.
</event>
<event>
12    1  0.8358445E-002  0.2276677E+03  0.7818608E-02  0.1128386E+00
         21   -1    0    0  503  502  0.00000000000E+00  0.00000000000E+00  0.15790059996E+03  0.15790059996E+03  0.00000000000E+00 0. -1.
         21   -1    0    0  501  503 -0.00000000000E+00 -0.00000000000E+00 -0.33491712217E+03  0.33491712217E+03  0.00000000000E+00 0.  1.
          6    2    1    2  501    0 -0.14417055844E+03  0.35844276956E+02 -0.12506058320E+03  0.25929681439E+03  0.17182760655E+03 0.  0.
         24    2    3    3    0    0 -0.10239789537E+03  0.69965533131E+02 -0.30696896011E+02  0.15050430103E+03  0.79553380835E+02 0.  0.
         -6    2    1    2    0  502  0.14417055844E+03 -0.35844276956E+02 -0.51955939015E+02  0.23352090773E+03  0.17251849941E+03 0.  0.
        -24    2    5    5    0    0  0.61189302891E+01 -0.17005003625E+02  0.83357510084E+01  0.81631644975E+02  0.79168360223E+02 0.  0.
          5    1    3    3  501    0 -0.41772663072E+02 -0.34121256175E+02 -0.94363687190E+02  0.10879251336E+03  0.47000000000E+01 0. -1.
        -11    1    4    4    0    0 -0.11252754501E+03  0.56876897506E+02 -0.13776698281E+02  0.12683543381E+03  0.00000000000E+00 0.  1.
         12    1    4    4    0    0  0.10129649636E+02  0.13088635625E+02 -0.16920197730E+02  0.23668867220E+02  0.00000000000E+00 0. -1.
         -5    1    5    5    0  502  0.13805162815E+03 -0.18839273331E+02 -0.60291690024E+02  0.15188926276E+03  0.47000000000E+01 0.  1.
         13    1    6    6    0    0  0.33406702405E+02 -0.34510752770E+02 -0.48190954945E+00  0.48033655484E+02  0.00000000000E+00 0. -1.
        -14    1    6    6    0    0 -0.27287772116E+02  0.17505749145E+02  0.88176605579E+01  0.33597989492E+02  0.00000000000E+00 0.  1.
</event>
<event>
12    1  0.8358445E-002  0.1813384E+03  0.7818608E-02  0.1166790E+00
         21   -1    0    0  501  502  0.00000000000E+00  0.00000000000E+00  0.14479191008E+03  0.14479191008E+03  0.00000000000E+00 0.  1.
         21   -1    0    0  502  503 -0.00000000000E+00 -0.00000000000E+00 -0.23943892358E+03  0.23943892358E+03  0.00000000000E+00 0.  1.
         -6    2    1    2    0  503  0.39088876687E+02 -0.39490044980E+02 -0.93526606861E+02  0.20403633852E+03  0.17261575048E+03 0.  0.
        -24    2    3    3    0    0  0.24537588877E+02  0.10268645575E+02  0.14351984460E+02  0.84255089040E+02  0.78647328126E+02 0.  0.
          6    2    1    2  501    0 -0.39088876687E+02  0.39490044980E+02 -0.11204066312E+01  0.18019449514E+03  0.17141002547E+03 0.  0.
         24    2    5    5    0    0 -0.23932518025E+02  0.88445496863E+02  0.22648839266E+02  0.12350747257E+03  0.79660244324E+02 0.  0.
          5    1    5    5  501    0 -0.15156358662E+02 -0.48955451883E+02 -0.23769245897E+02  0.56687022567E+02  0.47000000000E+01 0. -1.
        -11    1    6    6    0    0 -0.28848131207E+02 -0.29385548363E+01 -0.89540612229E+00  0.29011231115E+02  0.00000000000E+00 0.  1.
         12    1    6    6    0    0  0.49156131819E+01  0.91384051700E+02  0.23544245388E+02  0.94496241454E+02  0.00000000000E+00 0. -1.
         -5    1    3    3    0  503  0.14551287810E+02 -0.49758690555E+02 -0.10787859132E+03  0.11978124948E+03  0.47000000000E+01 0.  1.
         13    1    4    4    0    0  0.17022127311E+02 -0.16228374350E+02  0.40141377864E+02  0.46523576486E+02  0.00000000000E+00 0. -1.
        -14    1    4    4    0    0  0.75154615655E+01  0.26497019924E+02 -0.25789393404E+02  0.37731512554E+02  0.00000000000E+00 0.  1.
</event>
<event>
12    1  0.8358445E-002  0.1745253E+03  0.7818608E-02  0.1173494E+00
         21   -1    0    0  501  502  0.00000000000E+00  0.00000000000E+00  0.11635972471E+03  0.11635972471E+03  0.00000000000E+00 0.  1.
         21   -1    0    0  502  503 -0.00000000000E+00 -0.00000000000E+00 -0.36341273428E+03  0.36341273428E+03  0.00000000000E+00 0.  1.
         -6    2    1    2    0  503  0.11006300341E+02  0.21867449548E+02 -0.25115613134E+03  0.30519892580E+03  0.17166146336E+03 0.  0.
        -24    2    3    3    0    0 -0.41957187271E+02  0.59360953016E+02 -0.16782189481E+03  0.19947485664E+03  0.79636058075E+02 0.  0.
          6    2    1    2  501    0 -0.11006300341E+02 -0.21867449548E+02  0.41031217671E+01  0.17457353320E+03  0.17279976530E+03 0.  0.
         24    2    5    5    0    0 -0.68671948877E+02 -0.79191918593E+01  0.27133267922E+02  0.11075849935E+03  0.82174696755E+02 0.  0.
          5    1    5    5  501    0  0.57665648536E+02 -0.13948257688E+02 -0.23030146155E+02  0.63815033852E+02  0.47000000000E+01 0. -1.
        -11    1    6    6    0    0 -0.18527222088E+01 -0.51480470641E+01  0.41912622402E+02  0.42268225475E+02  0.00000000000E+00 0.  1.
         12    1    6    6    0    0 -0.66819226669E+02 -0.27711447952E+01 -0.14779354480E+02  0.68490273871E+02  0.00000000000E+00 0. -1.
         -5    1    3    3    0  503  0.52963487612E+02 -0.37493503469E+02 -0.83334236528E+02  0.10572406916E+03  0.47000000000E+01 0.  1.
         11    1    4    4    0    0 -0.12118746043E+02 -0.16678753166E+02 -0.64790873745E+02  0.67991926973E+02  0.00000000000E+00 0. -1.
        -12    1    4    4    0    0 -0.29838441228E+02  0.76039706182E+02 -0.10303102106E+03  0.13148292966E+03  0.00000000000E+00 0.  1.
</event>
<event>
12    1  0.8358445E-002  0.2076652E+03  0.7818608E-02  0.1143446E+00
         21   -1    0    0  503  502  0.00000000000E+00  0.00000000000E+00  0.26463465502E+03  0.26463465502E+03  0.00000000000E+00 0.  1.
         21   -1    0    0  501  503 -0.00000000000E+00 -0.00000000000E+00 -0.28915563591E+03  0.28915563591E+03  0.00000000000E+00 0. -1.
          6    2    1    2  501    0 -0.69034227402E+01 -0.11402756195E+03 -0.19523640794E+03  0.28502994702E+03  0.17342108747E+03 0.  0.
         24    2    3    3    0    0  0.12539298529E+02 -0.14474683163E+03 -0.13266946943E+03  0.21251508830E+03  0.80328048418E+02 0.  0.
         -6    2    1    2    0  502  0.69034227402E+01  0.11402756195E+03  0.17071542706E+03  0.26876034392E+03  0.17331596376E+03 0.  0.
        -24    2    5    5    0    0 -0.28676821282E+02  0.73495557741E+02  0.38665935634E+02  0.12604399827E+03  0.90377418828E+02 0.  0.
          5    1    3    3  501    0 -0.19442721269E+02  0.30719269673E+02 -0.62566938511E+02  0.72514858713E+02  0.47000000000E+01 0. -1.
        -13    1    4    4    0    0 -0.30755421249E+02 -0.35332187643E+02 -0.25382453656E+02  0.53277841299E+02  0.00000000000E+00 0.  1.
         14    1    4    4    0    0  0.43294719778E+02 -0.10941464399E+03 -0.10728701578E+03  0.15923724700E+03  0.00000000000E+00 0. -1.
         -5    1    5    5    0  502  0.35580244022E+02  0.40532004214E+02  0.13204949143E+03  0.14271634565E+03  0.47000000000E+01 0.  1.
         13    1    6    6    0    0 -0.62361801247E+01  0.77372607529E+02  0.57411660821E+02  0.96547962881E+02  0.00000000000E+00 0. -1.
        -14    1    6    6    0    0 -0.22440641157E+02 -0.38770497875E+01 -0.18745725187E+02  0.29496035385E+02  0.00000000000E+00 0.  1.
</event>
<event>
12    1  0.8358445E-002  0.2022877E+03  0.7818608E-02  0.1147929E+00
         21   -1    0    0  503  502  0.00000000000E+00  0.00000000000E+00  0.31860000813E+02  0.31860000813E+02  0.00000000000E+00 0. -1.
         21   -1    0    0  501  503 -0.00000000000E+00 -0.00000000000E+00 -0.15483846342E+04  0.15483846342E+04  0.00000000000E+00 0.  1.
          6    2    1    2  501    0 -0.96762003819E+02 -0.44539020206E+02 -0.10872909712E+04  0.11059484546E+04  0.17197010938E+03 0.  0.
         24    2    3    3    0    0 -0.75467366865E+02 -0.35343353767E+02 -0.10710438486E+04  0.10772416464E+04  0.79813301106E+02 0.  0.
         -6    2    1    2    0  502  0.96762003819E+02  0.44539020206E+02 -0.42923366219E+03  0.47429618040E+03  0.17137304420E+03 0.  0.
        -24    2    5    5    0    0  0.11855599879E+03 -0.54453437644E+01 -0.34855868105E+03  0.37680793782E+03  0.80036811859E+02 0.  0.
          5    1    3    3  501    0 -0.21294636954E+02 -0.91956664389E+01 -0.16247122593E+02  0.28706808196E+02  0.47000000000E+01 0. -1.
        -11    1    4    4    0    0 -0.58178795663E+02 -0.60977468314E+02 -0.81017816402E+03  0.81454998703E+03  0.00000000000E+00 0.  1.
         12    1    4    4    0    0 -0.17288571202E+02  0.25634114547E+02 -0.26086568459E+03  0.26269165940E+03  0.00000000000E+00 0. -1.
         -5    1    5    5    0  502 -0.21793994969E+02  0.49984363970E+02 -0.80674981139E+02  0.97488242573E+02  0.47000000000E+01 0.  1.
         13    1    6    6    0    0  0.63238889534E+02  0.19439617852E+02 -0.92888198037E+02  0.11404066479E+03  0.00000000000E+00 0. -1.
        -14    1    6    6    0    0  0.55317109254E+02 -0.24884961617E+02 -0.25567048302E+03  0.26276727303E+03  0.00000000000E+00 0.  1.
</event>
<event>
12    1  0.8358445E-002  0.1762944E+03  0.7818608E-02  0.1172473E+00
         21   -1    0    0  503  502  0.00000000000E+00  0.00000000000E+00  0.72629243050E+02  0.72629243050E+02  0.00000000000E+00 0. -1.
         21   -1    0    0  501  503 -0.00000000000E+00 -0.00000000000E+00 -0.44711791325E+03  0.44711791325E+03  0.00000000000E+00 0. -1.
          6    2    1    2  501    0  0.19341867963E+02 -0.59741489938E+01 -0.11886796675E+03  0.20922876335E+03  0.17098913294E+03 0.  0.
         24    2    3    3    0    0  0.22824519248E+02 -0.59308449021E+02 -0.11590487004E+03  0.15549286881E+03  0.81887987822E+02 0.  0.
         -6    2    1    2    0  502 -0.19341867963E+02  0.59741489938E+01 -0.25562070345E+03  0.31051839295E+03  0.17512832442E+03 0.  0.
        -24    2    5    5    0    0 -0.71119464293E+01 -0.39987968755E+02 -0.61454142541E+02  0.11055631998E+03  0.82440710973E+02 0.  0.
          5    1    3    3  501    0 -0.34826512852E+01  0.53334300027E+02 -0.29630967087E+01  0.53735894535E+02  0.47000000000E+01 0. -1.
        -11    1    4    4    0    0  0.53539486021E+02 -0.30981749270E+02 -0.70398923414E+02  0.93714213272E+02  0.00000000000E+00 0.  1.
         12    1    4    4    0    0 -0.30714966773E+02 -0.28326699750E+02 -0.45505946624E+02  0.61778655543E+02  0.00000000000E+00 0. -1.
         -5    1    5    5    0  502 -0.12229921533E+02  0.45962117749E+02 -0.19416656091E+03  0.19996207297E+03  0.47000000000E+01 0.  1.
         13    1    6    6    0    0  0.15450244400E+01 -0.42295969978E+02 -0.79693555447E+02  0.90235242320E+02  0.00000000000E+00 0. -1.
        -14    1    6    6    0    0 -0.86569708692E+01  0.23080012230E+01  0.18239412905E+02  0.20321077663E+02  0.00000000000E+00 0.  1.
</event>
<event>
12    1  0.8358445E-002  0.2482771E+03  0.7818608E-02  0.1115522E+00
         21   -1    0    0  503  502  0.00000000000E+00  0.00000000000E+00  0.20644363613E+03  0.20644363613E+03  0.00000000000E+00 0. -1.
         21   -1    0    0  501  503 -0.00000000000E+00 -0.00000000000E+00 -0.36912881908E+03  0.36912881908E+03  0.00000000000E+00 0. -1.
          6    2    1    2  501    0 -0.44769759664E+02 -0.16264130130E+03 -0.21341859036E+03  0.32216492523E+03  0.17258684791E+03 0.  0.
         24    2    3    3    0    0 -0.81591755333E+02 -0.14534953142E+03 -0.21184855061E+03  0.28118420177E+03  0.80006537910E+02 0.  0.
         -6    2    1    2    0  502  0.44769759664E+02  0.16264130130E+03  0.50733407407E+02  0.25340752998E+03  0.18216743220E+03 0.  0.
        -24    2    5    5    0    0  0.30482570846E+02  0.51370628922E+02  0.90698030174E+02  0.13422469829E+03  0.78879707870E+02 0.  0.
          5    1    3    3  501    0  0.36821995669E+02 -0.17291769880E+02 -0.15700397495E+01  0.40980723462E+02  0.47000000000E+01 0. -1.
        -11    1    4    4    0    0  0.26496228742E+01 -0.20890760403E+02  0.46332398547E+00  0.21063215345E+02  0.00000000000E+00 0.  1.
         12    1    4    4    0    0 -0.84241378208E+02 -0.12445877102E+03 -0.21231187460E+03  0.26012098643E+03  0.00000000000E+00 0. -1.
         -5    1    5    5    0  502  0.14287188818E+02  0.11127067238E+03 -0.39964622766E+02  0.11918283169E+03  0.47000000000E+01 0.  1.
         13    1    6    6    0    0  0.49875572745E+02  0.13808231914E+02  0.28673404374E+02  0.59164213370E+02  0.00000000000E+00 0. -1.
        -14    1    6    6    0    0 -0.19393001899E+02  0.37562397007E+02  0.62024625799E+02  0.75060484925E+02  0.00000000000E+00 0.  1.
</event>
<event>
12    1  0.8358445E-002  0.1855908E+03  0.7818608E-02  0.1162708E+00
         21   -1    0    0  503  502  0.00000000000E+00  0.00000000000E+00  0.21213822349E+03  0.21213822349E+03  0.00000000000E+00 0. -1.
         21   -1    0    0  501  503 -0.00000000000E+00 -0.00000000000E+00 -0.64893707144E+03  0.64893707144E+03  0.00000000000E+00 0. -1.
          6    2    1    2  501    0  0.20311879761E+02  0.64262141179E+02 -0.59137350916E+03  0.61954417165E+03  0.17195975703E+03 0.  0.
         24    2    3    3    0    0  0.59534659409E+02  0.92571377776E+02 -0.43009980952E+03  0.45110683755E+03  0.79985605501E+02 0.  0.
         -6    2    1    2    0  502 -0.20311879761E+02 -0.64262141179E+02  0.15457466121E+03  0.24153112328E+03  0.17292126063E+03 0.  0.
        -24    2    5    5    0    0  0.48064404649E+02 -0.23056655111E+02  0.11879006523E+03  0.15391927670E+03  0.82086952698E+02 0.  0.
          5    1    3    3  501    0 -0.39222779648E+02 -0.28309236597E+02 -0.16127369965E+03  0.16843733410E+03  0.47000000000E+01 0. -1.
        -11    1    4    4    0    0  0.30337339569E+02  0.43164204853E+02 -0.76797684385E+02  0.93173961382E+02  0.00000000000E+00 0.  1.
         12    1    4    4    0    0  0.29197319840E+02  0.49407172922E+02 -0.35330212513E+03  0.35793287617E+03  0.00000000000E+00 0. -1.
         -5    1    5    5    0  502 -0.68376284410E+02 -0.41205486068E+02  0.35784595978E+02  0.87611846580E+02  0.47000000000E+01 0.  1.
         11    1    6    6    0    0  0.62801241767E+02 -0.25543503338E+02  0.51905426346E+02  0.85385243540E+02  0.00000000000E+00 0. -1.
        -12    1    6    6    0    0 -0.14736837118E+02  0.24868482265E+01  0.66884638889E+02  0.68534033163E+02  0.00000000000E+00 0.  1.
</event>
<event>
12    1  0.8358445E-002  0.1730912E+03  0.7818608E-02  0.1175077E+00
         21   -1    0    0  503  502  0.00000000000E+00  0.00000000000E+00  0.50493395680E+03  0.50493395680E+03  0.00000000000E+00 0.  1.
         21   -1    0    0  501  503 -0.00000000000E+00 -0.00000000000E+00 -0.86033940937E+02  0.86033940937E+02  0.00000000000E+00 0.  1.
          6    2    1    2  501    0  0.26637841424E+01 -0.29486748847E+01  0.42475035598E+02  0.17665362474E+03  0.17142515584E+03 0.  0.
         24    2    3    3    0    0 -0.21522246224E+02  0.59443143819E+02  0.31816636308E+02  0.10873165052E+03  0.82544406527E+02 0.  0.
         -6    2    1    2    0  502 -0.26637841424E+01  0.29486748847E+01  0.37642498026E+03  0.41431427300E+03  0.17304554492E+03 0.  0.
        -24    2    5    5    0    0 -0.46513866391E+02 -0.32010278643E+02  0.13879182916E+03  0.17010828894E+03  0.80532356358E+02 0.  0.
          5    1    3    3  501    0  0.24186030367E+02 -0.62391818704E+02  0.10658399290E+02  0.67921974217E+02  0.47000000000E+01 0. -1.
        -13    1    4    4    0    0  0.30454096248E+01 -0.19245640836E+02 -0.20883249831E+01  0.19596691358E+02  0.00000000000E+00 0.  1.
         14    1    4    4    0    0 -0.24567655849E+02  0.78688784655E+02  0.33904961291E+02  0.89134959160E+02  0.00000000000E+00 0. -1.
         -5    1    5    5    0  502  0.43850082249E+02  0.34958953528E+02  0.23763315111E+03  0.24420598406E+03  0.47000000000E+01 0.  1.
         13    1    6    6    0    0 -0.68441437778E+02 -0.21881272430E+02  0.11839961412E+03  0.13849725309E+03  0.00000000000E+00 0. -1.
        -14    1    6    6    0    0  0.21927571387E+02 -0.10129006213E+02  0.20392215034E+02  0.31611035854E+02  0.00000000000E+00 0.  1.
</event>
<event>
12    1  0.8358445E-002  0.2307232E+03  0.7818608E-02  0.1126136E+00
         21   -1    0    0  501  502  0.00000000000E+00  0.00000000000E+00  0.10146358344E+03  0.10146358344E+03  0.00000000000E+00 0. -1.
         21   -1    0    0  502  503 -0.00000000000E+00 -0.00000000000E+00 -0.56878637271E+03  0.56878637271E+03  0.00000000000E+00 0.  1.
         -6    2    1    2    0  503 -0.37916169271E+02 -0.14920917194E+03 -0.32706160771E+03  0.40023813294E+03  0.17181459466E+03 0.  0.
        -24    2    3    3    0    0 -0.45998206578E+02 -0.17006817015E+03 -0.23048592285E+03  0.30099414048E+03  0.80216547334E+02 0.  0.
          6    2    1    2  501    0  0.37916169271E+02  0.14920917194E+03 -0.14026118156E+03  0.27001182320E+03  0.17184927329E+03 0.  0.
         24    2    5    5    0    0 -0.29813777004E+01  0.10815696242E+03 -0.21120368620E+02  0.13744291069E+03  0.82083290602E+02 0.  0.
          5    1    5    5  501    0  0.40897546971E+02  0.41052209523E+02 -0.11914081294E+03  0.13256891251E+03  0.47000000000E+01 0. -1.
        -13    1    6    6    0    0 -0.72385004053E+01  0.72551286990E+02 -0.52456741541E+02  0.89820904389E+02  0.00000000000E+00 0.  1.
         14    1    6    6    0    0  0.42571227049E+01  0.35605675431E+02  0.31336372922E+02  0.47622006305E+02  0.00000000000E+00 0. -1.
         -5    1    3    3    0  503  0.80820373072E+01  0.20858998204E+02 -0.96575684861E+02  0.99243992461E+02  0.47000000000E+01 0.  1.
         13    1    4    4    0    0 -0.65615174644E+02 -0.91533349113E+02 -0.13571927879E+03  0.17636163919E+03  0.00000000000E+00 0. -1.
        -14    1    4    4    0    0  0.19616968066E+02 -0.78534821035E+02 -0.94766644057E+02  0.12463250129E+03  0.00000000000E+00 0.  1.
</event>
<event>
12    1  0.8358445E-002  0.2093961E+03  0.7818608E-02  0.1145340E+00
         21   -1    0    0  501  502  0.00000000000E+00  0.00000000000E+00  0.42095644696E+02  0.42095644696E+02  0.00000000000E+00 0.  1.
         21   -1    0    0  502  503 -0.00000000000E+00 -0.00000000000E+00 -0.14726275599E+04  0.14726275599E+04  0.00000000000E+00 0.  1.
         -6    2    1    2    0  503  0.10428351679E+03 -0.53294418024E+02 -0.11416524872E+04  0.11579346652E+04  0.15403551707E+03 0.  0.
        -24    2    3    3    0    0  0.79075474279E+02 -0.49490184146E+01 -0.99718192893E+03  0.10034466227E+04  0.79094259172E+02 0.  0.
          6    2    1    2  501    0 -0.10428351679E+03  0.53294418024E+02 -0.28887942798E+03  0.35678853935E+03  0.17358395961E+03 0.  0.
         24    2    5    5    0    0 -0.11334773544E+03  0.92448561284E+02 -0.25431014497E+03  0.30356887831E+03  0.78012617116E+02 0.  0.
          5    1    5    5  501    0  0.90642186427E+01 -0.39154143260E+02 -0.34569283010E+02  0.53219661046E+02  0.47000000000E+01 0. -1.
        -11    1    6    6    0    0 -0.33392918151E+02 -0.72411386016E+01 -0.83697413402E+02  0.90403418525E+02  0.00000000000E+00 0.  1.
         12    1    6    6    0    0 -0.79954817286E+02  0.99689699885E+02 -0.17061273157E+03  0.21316545978E+03  0.00000000000E+00 0. -1.
         -5    1    3    3    0  503  0.25208042516E+02 -0.48345399609E+02 -0.14447055828E+03  0.15448804251E+03  0.47000000000E+01 0.  1.
         11    1    4    4    0    0  0.62889971101E+02  0.29013328300E+02 -0.48991156045E+03  0.49478304210E+03  0.00000000000E+00 0. -1.
        -12    1    4    4    0    0  0.16185503178E+02 -0.33962346714E+02 -0.50727036847E+03  0.50866358061E+03  0.00000000000E+00 0.  1.
</event>
<event>
12    1  0.8358445E-002  0.2639399E+03  0.7818608E-02  0.1105026E+00
         21   -1    0    0  501  502  0.00000000000E+00  0.00000000000E+00  0.51632451193E+02  0.51632451193E+02  0.00000000000E+00 0. -1.
         21   -1    0    0  502  503 -0.00000000000E+00 -0.00000000000E+00 -0.18017161088E+04  0.18017161088E+04  0.00000000000E+00 0. -1.
         -6    2    1    2    0  503 -0.19540033055E+03  0.30413063405E+02 -0.13415412913E+04  0.13669627560E+04  0.17247578494E+03 0.  0.
        -24    2    3    3    0    0 -0.14238328765E+03  0.55246651134E+02 -0.12185516488E+04  0.12306687500E+04  0.79701055598E+02 0.  0.
          6    2    1    2  501    0  0.19540033055E+03 -0.30413063405E+02 -0.40854236627E+03  0.48638580397E+03  0.17480858577E+03 0.  0.
         24    2    5    5    0    0  0.13141189113E+03  0.33174996771E+02 -0.33600882740E+03  0.37053604766E+03  0.77623224489E+02 0.  0.
          5    1    5    5  501    0  0.63988439426E+02 -0.63588060176E+02 -0.72533538870E+02  0.11584975631E+03  0.47000000000E+01 0. -1.
        -11    1    6    6    0    0  0.54474618620E+02  0.50422981083E+02 -0.12634722612E+03  0.14653867286E+03  0.00000000000E+00 0.  1.
         12    1    6    6    0    0  0.76937272508E+02 -0.17247984312E+02 -0.20966160128E+03  0.22399737480E+03  0.00000000000E+00 0. -1.
         -5    1    3    3    0  503 -0.53017042903E+02 -0.24833587729E+02 -0.12298964250E+03  0.13629400603E+03  0.47000000000E+01 0.  1.
         13    1    4    4    0    0 -0.95114995229E+02 -0.10824886224E+01 -0.80844840234E+03  0.81402509380E+03  0.00000000000E+00 0. -1.
        -14    1    4    4    0    0 -0.47268292421E+02  0.56329139756E+02 -0.41010324647E+03  0.41664365616E+03  0.00000000000E+00 0.  1.
</event>
<event>
12    1  0.8358445E-002  0.1800952E+03  0.7818608E-02  0.1167937E+00
         21   -1    0    0  503  502  0.00000000000E+00  0.00000000000E+00  0.10381364540E+03  0.10381364540E+03  0.00000000000E+00 0.  1.
         21   -1    0    0  501  503 -0.00000000000E+00 -0.00000000000E+00 -0.16682214829E+04  0.16682214829E+04  0.00000000000E+00 0.  1.
          6    2    1    2  501    0  0.24429773659E+02 -0.43469619918E+02 -0.15818095339E+04  0.15920287974E+04  0.17305452486E+03 0.  0.
         24    2    3    3    0    0 -0.34036371245E+02 -0.20790938518E+02 -0.55314798449E+03  0.56144678422E+03  0.87516061810E+02 0.  0.
         -6    2    1    2    0  502 -0.24429773659E+02  0.43469619918E+02  0.17401696371E+02  0.18000633090E+03  0.17208439334E+03 0.  0.
        -24    2    5    5    0    0 -0.20717898780E+02  0.89884352129E+02 -0.15165578719E+02  0.12299034378E+03  0.79926227213E+02 0.  0.
          5    1    3    3  501    0  0.58466144904E+02 -0.22678681400E+02 -0.10286615494E+04  0.10305820132E+04  0.47000000000E+01 0. -1.
        -11    1    4    4    0    0 -0.80045830658E+01 -0.29601673939E+02 -0.50559051693E+03  0.50651959810E+03  0.00000000000E+00 0.  1.
         12    1    4    4    0    0 -0.26031788179E+02  0.88107354210E+01 -0.47557467563E+02  0.54927186124E+02  0.00000000000E+00 0. -1.
         -5    1    5    5    0  502 -0.37118748783E+01 -0.46414732211E+02  0.32567275090E+02  0.57015987128E+02  0.47000000000E+01 0.  1.
         11    1    6    6    0    0 -0.34601823292E+02  0.16145990021E+02 -0.27357201948E+02  0.46972286162E+02  0.00000000000E+00 0. -1.
        -12    1    6    6    0    0  0.13883924512E+02  0.73738362109E+02  0.12191623229E+02  0.76018057613E+02  0.00000000000E+00 0.  1.
</event>
<event>
12    1  0.8358445E-002  0.1764394E+03  0.7818608E-02  0.1171588E+00
         21   -1    0    0  501  502  0.00000000000E+00  0.00000000000E+00  0.10003499345E+03  0.10003499345E+03  0.00000000000E+00 0. -1.
         21   -1    0    0  502  503 -0.00000000000E+00 -0.00000000000E+00 -0.31820012732E+03  0.31820012732E+03  0.00000000000E+00 0. -1.
         -6    2    1    2    0  503  0.73696187227E+01 -0.36011278783E+02 -0.14475433306E+03  0.22822070688E+03  0.17256810432E+03 0.  0.
        -24    2    3    3    0    0 -0.58482666485E+02 -0.72588034573E+01 -0.59067795039E+02  0.11629438691E+03  0.81009058191E+02 0.  0.
          6    2    1    2  501    0 -0.73696187227E+01  0.36011278783E+02 -0.73410800820E+02  0.19001441389E+03  0.17136279739E+03 0.  0.
         24    2    5    5    0    0  0.40669359673E+02 -0.83596105395E+01 -0.85597343584E+02  0.12332767541E+03  0.78478853132E+02 0.  0.
          5    1    5    5  501    0 -0.48038978395E+02  0.44370889322E+02  0.12186542764E+02  0.66686738479E+02  0.47000000000E+01 0. -1.
        -13    1    6    6    0    0  0.10354274274E+02  0.73760475169E+01 -0.88163782405E+02  0.89075639772E+02  0.00000000000E+00 0.  1.
         14    1    6    6    0    0  0.30315085399E+02 -0.15735658056E+02  0.25664388210E+01  0.34252035639E+02  0.00000000000E+00 0. -1.
         -5    1    3    3    0  503  0.65852285208E+02 -0.28752475325E+02 -0.85686538019E+02  0.11192631997E+03  0.47000000000E+01 0.  1.
         11    1    4    4    0    0  0.16567875807E+02  0.14344987239E+02 -0.15746943756E+02  0.26985911237E+02  0.00000000000E+00 0. -1.
        -12    1    4    4    0    0 -0.75050542293E+02 -0.21603790697E+02 -0.43320851284E+02  0.89308475672E+02  0.00000000000E+00 0.  1.
</event>
<event>
12    1  0.8358445E-002  0.1724567E+03  0.7818608E-02  0.1175816E+00
         21   -1    0    0  503  502  0.00000000000E+00  0.00000000000E+00  0.48891638777E+03  0.48891638777E+03  0.00000000000E+00 0. -1.
         21   -1    0    0  501  503 -0.00000000000E+00 -0.00000000000E+00 -0.74596822798E+02  0.74596822798E+02  0.00000000000E+00 0. -1.
          6    2    1    2  501    0  0.52991197966E+01 -0.13387212527E+02  0.84080654481E+02  0.19186157801E+03  0.17185462032E+03 0.  0.
         24    2    3    3    0    0  0.10801104163E+02  0.46627086208E+02  0.90914880536E+02  0.13102750424E+03  0.81313850888E+02 0.  0.
         -6    2    1    2    0  502 -0.52991197966E+01  0.13387212527E+02  0.33023891049E+03  0.37165163256E+03  0.16988201746E+03 0.  0.
        -24    2    5    5    0    0  0.34647719625E+02  0.55165583909E+02  0.14984817739E+03  0.18216788950E+03  0.80541651187E+02 0.  0.
          5    1    3    3  501    0 -0.55019843664E+01 -0.60014298735E+02 -0.68342260548E+01  0.60834073761E+02  0.47000000000E+01 0. -1.
        -13    1    4    4    0    0 -0.33746399680E+02  0.30915372147E+02  0.55802344833E+02  0.72169809583E+02  0.00000000000E+00 0.  1.
         14    1    4    4    0    0  0.44547503843E+02  0.15711714060E+02  0.35112535703E+02  0.58857694662E+02  0.00000000000E+00 0. -1.
         -5    1    5    5    0  502 -0.39946839421E+02 -0.41778371382E+02  0.18039073310E+03  0.18948374306E+03  0.47000000000E+01 0.  1.
         11    1    6    6    0    0  0.14685628227E+02  0.68583299308E+00  0.11184742341E+03  0.11280950388E+03  0.00000000000E+00 0. -1.
        -12    1    6    6    0    0  0.19962091398E+02  0.54479750916E+02  0.38000753984E+02  0.69358385623E+02  0.00000000000E+00 0.  1.
</event>
<event>
12    1  0.8358445E-002  0.2150525E+03  0.7818608E-02  0.1137796E+00
         21   -1    0    0  503  502  0.00000000000E+00  0.00000000000E+00  0.86831406470E+03  0.86831406470E+03  0.00000000000E+00 0. -1.
         21   -1    0    0  501  503 -0.00000000000E+00 -0.00000000000E+00 -0.58668061000E+02  0.58668061000E+02  0.00000000000E+00 0. -1.
          6    2    1    2  501    0  0.20049389158E+02 -0.12552770708E+03  0.26054866829E+03  0.33727417071E+03  0.17236320497E+03 0.  0.
         24    2    3    3    0    0 -0.23547747817E+02 -0.70361495444E+02  0.24207502245E+03  0.26442235639E+03  0.76247161233E+02 0.  0.
         -6    2    1    2    0  502 -0.20049389158E+02  0.12552770708E+03  0.54909733541E+03  0.58970795499E+03  0.17346009677E+03 0.  0.
        -24    2    5    5    0    0  0.28928749004E+02  0.88646418045E+01  0.19208383113E+03  0.21090739922E+03  0.81671772777E+02 0.  0.
          5    1    3    3  501    0  0.43597136975E+02 -0.55166211638E+02  0.18473645838E+02  0.72851814318E+02  0.47000000000E+01 0. -1.
        -11    1    4    4    0    0 -0.80843576319E+01  0.13919463946E+01  0.13117832149E+03  0.13143457073E+03  0.00000000000E+00 0.  1.
         12    1    4    4    0    0 -0.15463390185E+02 -0.71753441838E+02  0.11089670096E+03  0.13298778566E+03  0.00000000000E+00 0. -1.
         -5    1    5    5    0  502 -0.48978138162E+02  0.11666306528E+03  0.35701350428E+03  0.37880055577E+03  0.47000000000E+01 0.  1.
         13    1    6    6    0    0  0.10352585226E+02  0.41245147728E+02  0.14331584915E+03  0.14949170830E+03  0.00000000000E+00 0. -1.
        -14    1    6    6    0    0  0.18576163777E+02 -0.32380505924E+02  0.48767981986E+02  0.61415690923E+02  0.00000000000E+00 0.  1.
</event>
<event>
12    1  0.8358445E-002  0.2037105E+03  0.7818608E-02  0.1146806E+00
         21   -1    0    0  501  502  0.00000000000E+00  0.00000000000E+00  0.89042525719E+02  0.89042525719E+02  0.00000000000E+00 0. -1.
         21   -1    0    0  502  503 -0.00000000000E+00 -0.00000000000E+00 -0.62213357710E+03  0.62213357710E+03  0.00000000000E+00 0.  1.
         -6    2    1    2    0  503  0.10369821674E+03 -0.27476009642E+02 -0.44604861045E+03  0.49036448141E+03  0.17317537492E+03 0.  0.
        -24    2    3    3    0    0  0.33857348600E+02 -0.12069189227E+02 -0.38873124874E+03  0.39859037323E+03  0.80438277573E+02 0.  0.
          6    2    1    2  501    0 -0.10369821674E+03  0.27476009642E+02 -0.87042440933E+02  0.22081162142E+03  0.17225891666E+03 0.  0.
         24    2    5    5    0    0 -0.14728349277E+02  0.52390587448E+02 -0.84748605301E+02  0.12827122383E+03  0.79432253120E+02 0.  0.
          5    1    5    5  501    0 -0.88969867467E+02 -0.24914577806E+02 -0.22938356321E+01  0.92540397591E+02  0.47000000000E+01 0. -1.
        -13    1    6    6    0    0 -0.17138970717E+02  0.66520634283E+02 -0.36194072882E+02  0.77645025690E+02  0.00000000000E+00 0.  1.
         14    1    6    6    0    0  0.24106214396E+01 -0.14130046834E+02 -0.48554532419E+02  0.50626198136E+02  0.00000000000E+00 0. -1.
         -5    1    3    3    0  503  0.69840868144E+02 -0.15406820414E+02 -0.57317361706E+02  0.91774108175E+02  0.47000000000E+01 0.  1.
         11    1    4    4    0    0 -0.21938758687E+02  0.10492400607E+02 -0.16997995347E+03  0.17171075734E+03  0.00000000000E+00 0. -1.
        -12    1    4    4    0    0  0.55796107287E+02 -0.22561589834E+02 -0.21875129527E+03  0.22687961589E+03  0.00000000000E+00 0.  1.
</event>
<event>
12    1  0.8358445E-002  0.3987044E+03  0.7818608E-02  0.1044253E+00
         21   -1    0    0  501  502  0.00000000000E+00  0.00000000000E+00  0.73597186340E+03  0.73597186340E+03  0.00000000000E+00 0.  1.
         21   -1    0    0  502  503 -0.00000000000E+00 -0.00000000000E+00 -0.30176437212E+03  0.30176437212E+03  0.00000000000E+00 0. -1.
         -6    2    1    2    0  503 -0.30849732502E+03  0.18571595470E+03 -0.59711041913E+02  0.40315086748E+03  0.17118468988E+03 0.  0.
        -24    2    3    3    0    0 -0.30177318369E+03  0.12371421095E+03 -0.41760766513E+02  0.33808372761E+03  0.78640860055E+02 0.  0.
          6    2    1    2  501    0  0.30849732502E+03 -0.18571595470E+03  0.49391853320E+03  0.63458536804E+03  0.17053461972E+03 0.  0.
         24    2    5    5    0    0  0.15542171576E+03 -0.26266226497E+02  0.23963751756E+03  0.29763242936E+03  0.79455011170E+02 0.  0.
          5    1    5    5  501    0  0.15307560927E+03 -0.15944972820E+03  0.25428101563E+03  0.33695293868E+03  0.47000000000E+01 0. -1.
        -13    1    6    6    0    0  0.31933589558E+02 -0.13371815193E+02  0.12118197580E+03  0.12603027748E+03  0.00000000000E+00 0.  1.
         14    1    6    6    0    0  0.12348812620E+03 -0.12894411305E+02  0.11845554176E+03  0.17160215188E+03  0.00000000000E+00 0. -1.
         -5    1    3    3    0  503 -0.67241413325E+01  0.62001743743E+02 -0.17950275400E+02  0.65067139869E+02  0.47000000000E+01 0.  1.
         13    1    4    4    0    0 -0.15872122638E+03  0.10054793658E+03 -0.23464883823E+01  0.18790375531E+03  0.00000000000E+00 0. -1.
        -14    1    4    4    0    0 -0.14305195732E+03  0.23166274376E+02 -0.39414278131E+02  0.15017997230E+03  0.00000000000E+00 0.  1.
</event>
<event>
12    1  0.8358445E-002  0.1963745E+03  0.7818608E-02  0.1153169E+00
         21   -1    0    0  503  502  0.00000000000E+00  0.00000000000E+00  0.68756460473E+02  0.68756460473E+02  0.00000000000E+00 0. -1.
         21   -1    0    0  501  503 -0.00000000000E+00 -0.00000000000E+00 -0.58941510607E+03  0.58941510607E+03  0.00000000000E+00 0. -1.
          6    2    1    2  501    0 -0.92423184431E+02  0.17411627266E+02 -0.18155863713E+03  0.26631475198E+03  0.17063059111E+03 0.  0.
         24    2    3    3    0    0  0.18819935942E+02  0.92995800146E+01 -0.83874828629E+02  0.11797374759E+03  0.80262980662E+02 0.  0.
         -6    2    1    2    0  502  0.92423184431E+02 -0.17411627266E+02 -0.33910000846E+03  0.39185681456E+03  0.17238833369E+03 0.  0.
        -24    2    5    5    0    0  0.46705814347E+02  0.50106093463E+02 -0.23695778261E+03  0.26107514596E+03  0.85552249544E+02 0.  0.
          5    1    3    3  501    0 -0.11124312037E+03  0.81120472515E+01 -0.97683808499E+02  0.14834100439E+03  0.47000000000E+01 0. -1.
        -11    1    4    4    0    0  0.16222147104E+02 -0.29157221515E+02 -0.10309879006E+02  0.34922703622E+02  0.00000000000E+00 0.  1.
         12    1    4    4    0    0  0.25977888385E+01  0.38456801529E+02 -0.73564949623E+02  0.83051043965E+02  0.00000000000E+00 0. -1.
         -5    1    5    5    0  502  0.45717370084E+02 -0.67517720729E+02 -0.10214222585E+03  0.13078166860E+03  0.47000000000E+01 0.  1.
         11    1    6    6    0    0  0.44431166376E+02  0.22964565095E+01 -0.45155867117E+02  0.63391281681E+02  0.00000000000E+00 0. -1.
        -12    1    6    6    0    0  0.22746479705E+01  0.47809636953E+02 -0.19180191549E+03  0.19768386428E+03  0.00000000000E+00 0.  1.
</event>
<event>
12    1  0.8358445E-002  0.1938086E+03  0.7818608E-02  0.1156632E+00
         21   -1    0    0  501  502  0.00000000000E+00  0.00000000000E+00  0.10161534338E+04  0.10161534338E+04  0.00000000000E+00 0. -1.
         21   -1    0    0  502  503 -0.00000000000E+00 -0.00000000000E+00 -0.53069120892E+02  0.53069120892E+02  0.00000000000E+00 0.  1.
         -6    2    1    2    0  503  0.56166643551E+02 -0.47674233379E+02  0.16934752842E+03  0.25216695222E+03  0.17170341300E+03 0.  0.
        -24    2    3    3    0    0  0.72304217240E+02  0.20961189253E+02  0.13906248517E+03  0.17528706949E+03  0.75630090990E+02 0.  0.
          6    2    1    2  501    0 -0.56166643551E+02  0.47674233379E+02  0.79373678446E+03  0.81705560244E+03  0.17926028589E+03 0.  0.
         24    2    5    5    0    0 -0.52249325838E+02 -0.33924614288E+02  0.30791759587E+03  0.32439335371E+03  0.80851286828E+02 0.  0.
          5    1    5    5  501    0 -0.39173177125E+01  0.81598847667E+02  0.48581918859E+03  0.49266224873E+03  0.47000000000E+01 0. -1.
        -13    1    6    6    0    0 -0.25093388574E+02 -0.95415505744E+01  0.18311367578E+02  0.32496546279E+02  0.00000000000E+00 0.  1.
         14    1    6    6    0    0 -0.27155937264E+02 -0.24383063714E+02  0.28960622829E+03  0.29189680743E+03  0.00000000000E+00 0. -1.
         -5    1    3    3    0  503 -0.16137573689E+02 -0.68635422632E+02  0.30285043249E+02  0.76879882733E+02  0.47000000000E+01 0.  1.
         11    1    4    4    0    0 -0.16160798408E+02  0.33278375361E+01  0.20860479085E+02  0.26597095622E+02  0.00000000000E+00 0. -1.
        -12    1    4    4    0    0  0.88465015648E+02  0.17633351717E+02  0.11820200609E+03  0.14868997387E+03  0.00000000000E+00 0.  1.
</event>
<event>
12    1  0.8358445E-002  0.1989432E+03  0.7818608E-02  0.1150773E+00
         21   -1    0    0  503  502  0.00000000000E+00  0.00000000000E+00  0.26590216344E+03  0.26590216344E+03  0.00000000000E+00 0. -1.
         21   -1    0    0  501  503 -0.00000000000E+00 -0.00000000000E+00 -0.14836068207E+03  0.14836068207E+03  0.00000000000E+00 0. -1.
          6    2    1    2  501    0  0.73023984906E+02 -0.69282555845E+02  0.57707302978E+02  0.20714376614E+03  0.17159787912E+03 0.  0.
         24    2    3    3    0    0  0.10141883486E+03 -0.17880767699E+02  0.45931201892E+02  0.14706733245E+03  0.94411985728E+02 0.  0.
         -6    2    1    2    0  502 -0.73023984906E+02  0.69282555845E+02  0.59834178391E+02  0.20711907937E+03  0.17083796188E+03 0.  0.
        -24    2    5    5    0    0 -0.11221569006E+03  0.37837696378E+02  0.24013310684E+02  0.14523213807E+03  0.80570977870E+02 0.  0.
          5    1    3    3  501    0 -0.28394849950E+02 -0.51401788146E+02  0.11776101086E+02  0.60076433691E+02  0.47000000000E+01 0. -1.
        -11    1    4    4    0    0  0.22315711269E+02 -0.10507039984E+02  0.61364461960E+02  0.66136117593E+02  0.00000000000E+00 0.  1.
         12    1    4    4    0    0  0.79103123587E+02 -0.73737277145E+01 -0.15433260068E+02  0.80931214855E+02  0.00000000000E+00 0. -1.
         -5    1    5    5    0  502  0.39191705158E+02  0.31444859466E+02  0.35820867707E+02  0.61886941299E+02  0.47000000000E+01 0.  1.
         11    1    6    6    0    0 -0.11911061022E+02  0.32622164329E+02  0.28153357285E+02  0.44706716571E+02  0.00000000000E+00 0. -1.
        -12    1    6    6    0    0 -0.10030462904E+03  0.52155320499E+01 -0.41400466016E+01  0.10052542150E+03  0.00000000000E+00 0.  1.
</event>
<event>
12    1  0.8358445E-002  0.1892458E+03  0.7818608E-02  0.1159726E+00
         21   -1    0    0  501  502  0.00000000000E+00  0.00000000000E+00  0.44948711351E+03  0.44948711351E+03  0.00000000000E+00 0.  1.
         21   -1    0    0  502  503 -0.00000000000E+00 -0.00000000000E+00 -0.13606101664E+03  0.13606101664E+03  0.00000000000E+00 0.  1.
         -6    2    1    2    0  503  0.14881693301E+02 -0.70976466078E+02 -0.32921657707E+02  0.19208806640E+03  0.17479950279E+03 0.  0.
        -24    2    3    3    0    0 -0.58132298877E+02 -0.22984919697E+02 -0.11443424129E+02  0.10199014137E+03  0.79770710626E+02 0.  0.
          6    2    1    2  501    0 -0.14881693301E+02  0.70976466078E+02  0.34634775457E+03  0.39346006375E+03  0.17203177362E+03 0.  0.
         24    2    5    5    0    0  0.42054448048E+01  0.10734500277E+03  0.19359193497E+03  0.23520893508E+03  0.79402584785E+02 0.  0.
          5    1    5    5  501    0 -0.19087138105E+02 -0.36368536689E+02  0.15275581960E+03  0.15825112867E+03  0.47000000000E+01 0. -1.
        -13    1    6    6    0    0  0.16424585175E+02  0.10468850708E+03  0.19568006978E+03  0.22253121179E+03  0.00000000000E+00 0.  1.
         14    1    6    6    0    0 -0.12219140370E+02  0.26564956897E+01 -0.20881348112E+01  0.12677723287E+02  0.00000000000E+00 0. -1.
         -5    1    3    3    0  503  0.73013992178E+02 -0.47991546382E+02 -0.21478233578E+02  0.90097925034E+02  0.47000000000E+01 0.  1.
         13    1    4    4    0    0  0.33243615817E+01  0.21977515550E+01  0.25622896425E+02  0.25930952798E+02  0.00000000000E+00 0. -1.
        -14    1    4    4    0    0 -0.61456660459E+02 -0.25182671252E+02 -0.37066320554E+02  0.76059188567E+02  0.00000000000E+00 0.  1.
</event>
<event>
12    1  0.8358445E-002  0.1851511E+03  0.7818608E-02  0.1163116E+00
         21   -1    0    0  501  502  0.00000000000E+00  0.00000000000E+00  0.34171660799E+03  0.34171660799E+03  0.00000000000E+00 0.  1.
         21   -1    0    0  502  503 -0.00000000000E+00 -0.00000000000E+00 -0.14342153049E+03  0.14342153049E+03  0.00000000000E+00 0.  1.
         -6    2    1    2    0  503 -0.56823951171E+02 -0.34667627468E+02 -0.34401646579E+02  0.18831991509E+03  0.17277184757E+03 0.  0.
        -24    2    3    3    0    0 -0.10823275952E+02 -0.62535252841E+02 -0.70301967537E+02  0.12348481881E+03  0.79235930534E+02 0.  0.
          6    2    1    2  501    0  0.56823951171E+02  0.34667627468E+02  0.23269672408E+03  0.29681822338E+03  0.17182108867E+03 0.  0.
         24    2    5    5    0    0  0.80719115090E+02  0.52863557297E+02  0.23570968953E+03  0.26626926789E+03  0.77653937771E+02 0.  0.
          5    1    5    5  501    0 -0.23895163918E+02 -0.18195929829E+02 -0.30129654508E+01  0.30548955495E+02  0.47000000000E+01 0. -1.
        -13    1    6    6    0    0  0.27630062866E+02  0.10793581504E+00  0.11553938422E+02  0.29948714783E+02  0.00000000000E+00 0.  1.
         14    1    6    6    0    0  0.53089052224E+02  0.52755621482E+02  0.22415575111E+03  0.23632055310E+03  0.00000000000E+00 0. -1.
         -5    1    3    3    0  503 -0.46000675220E+02  0.27867625374E+02  0.35900320958E+02  0.64835096279E+02  0.47000000000E+01 0.  1.
         13    1    4    4    0    0  0.32695483962E+02 -0.30753928460E+02 -0.46321514126E+02  0.64501794224E+02  0.00000000000E+00 0. -1.
        -14    1    4    4    0    0 -0.43518759914E+02 -0.31781324382E+02 -0.23980453411E+02  0.58983024589E+02  0.00000000000E+00 0.  1.
</event>
<event>
12    1  0.8358445E-002  0.2234304E+03  0.7818608E-02  0.1131646E+00
         21   -1    0    0  503  502  0.00000000000E+00  0.00000000000E+00  0.28396927116E+03  0.28396927116E+03  0.00000000000E+00 0.  1.
         21   -1    0    0  501  503 -0.00000000000E+00 -0.00000000000E+00 -0.35513037238E+03  0.35513037238E+03  0.00000000000E+00 0. -1.
          6    2    1    2  501    0 -0.11864291225E+03 -0.77234498463E+02 -0.26339138822E+03  0.34435632098E+03  0.17077746934E+03 0.  0.
         24    2    3    3    0    0 -0.13983014111E+03 -0.96464149549E+02 -0.19409165387E+03  0.26923494368E+03  0.77188627928E+02 0.  0.
         -6    2    1    2    0  502  0.11864291225E+03  0.77234498463E+02  0.19223028699E+03  0.29474332256E+03  0.17285784499E+03 0.  0.
        -24    2    5    5    0    0 -0.28343054976E+01  0.30277649344E+01  0.80069046119E+02  0.11345463652E+03  0.80272671267E+02 0.  0.
          5    1    3    3  501    0  0.21187228864E+02  0.19229651086E+02 -0.69299734344E+02  0.75121377304E+02  0.47000000000E+01 0. -1.
        -13    1    4    4    0    0 -0.10345879713E+03 -0.46166535906E+02 -0.77857633672E+02  0.13746593346E+03  0.00000000000E+00 0.  1.
         14    1    4    4    0    0 -0.36371343984E+02 -0.50297613643E+02 -0.11623402020E+03  0.13176901022E+03  0.00000000000E+00 0. -1.
         -5    1    5    5    0  502  0.12147721775E+03  0.74206733529E+02  0.11216124087E+03  0.18128868604E+03  0.47000000000E+01 0.  1.
         13    1    6    6    0    0 -0.71174205735E+01  0.36983914904E+02  0.66920242473E+02  0.76790536461E+02  0.00000000000E+00 0. -1.
        -14    1    6    6    0    0  0.42831150759E+01 -0.33956149970E+02  0.13148803646E+02  0.36664100055E+02  0.00000000000E+00 0.  1.
</event>
<event>
12    1  0.8358445E-002  0.3205713E+03  0.7818608E-02  0.1075393E+00
         21   -1    0    0  503  502  0.00000000000E+00  0.00000000000E+00  0.62289337463E+03  0.62289337463E+03  0.00000000000E+00 0. -1.
         21   -1    0    0  501  503 -0.00000000000E+00 -0.00000000000E+00 -0.18173480258E+03  0.18173480258E+03  0.00000000000E+00 0.  1.
          6    2    1    2  501    0 -0.70687711358E+02 -0.26105973258E+03  0.34285166471E+03  0.46937534591E+03  0.17209594663E+03 0.  0.
         24    2    3    3    0    0 -0.30190517564E+02 -0.20807770301E+03  0.16492180892E+03  0.27930104007E+03  0.81253123530E+02 0.  0.
         -6    2    1    2    0  502  0.70687711358E+02  0.26105973258E+03  0.98306907343E+02  0.33525283131E+03  0.17199208225E+03 0.  0.
        -24    2    5    5    0    0  0.11179990147E+03  0.16385469366E+03  0.73971963506E+02  0.22684014174E+03  0.81467907268E+02 0.  0.
          5    1    3    3  501    0 -0.40497193794E+02 -0.52982029568E+02  0.17792985578E+03  0.19007430584E+03  0.47000000000E+01 0. -1.
        -13    1    4    4    0    0 -0.47155955098E+02 -0.64862885144E+02  0.46535528342E+02  0.92716952973E+02  0.00000000000E+00 0.  1.
         14    1    4    4    0    0  0.16965437534E+02 -0.14321481787E+03  0.11838628058E+03  0.18658408710E+03  0.00000000000E+00 0. -1.
         -5    1    5    5    0  502 -0.41112190117E+02  0.97205038919E+02  0.24334943837E+02  0.10841268957E+03  0.47000000000E+01 0.  1.
         13    1    6    6    0    0  0.40572198769E+02  0.39047275638E+02  0.60276957591E+02  0.82486996940E+02  0.00000000000E+00 0. -1.
        -14    1    6    6    0    0  0.71227702706E+02  0.12480741803E+03  0.13695005915E+02  0.14435314480E+03  0.00000000000E+00 0.  1.
</event>
<event>
12    1  0.8358445E-002  0.2213786E+03  0.7818608E-02  0.1132919E+00
         21   -1    0    0  503  502  0.00000000000E+00  0.00000000000E+00  0.70141010569E+03  0.70141010569E+03  0.00000000000E+00 0.  1.
         21   -1    0    0  501  503 -0.00000000000E+00 -0.00000000000E+00 -0.70945405595E+02  0.70945405595E+02  0.00000000000E+00 0.  1.
          6    2    1    2  501    0 -0.25335045941E+02  0.13728249946E+03  0.26575226343E+03  0.34587966053E+03  0.17181421606E+03 0.  0.
         24    2    3    3    0    0 -0.32581056137E+02  0.37634201879E+02  0.21215539781E+03  0.23240278236E+03  0.80766837625E+02 0.  0.
         -6    2    1    2    0  502  0.25335045941E+02 -0.13728249946E+03  0.36471243666E+03  0.42647585075E+03  0.17140052685E+03 0.  0.
        -24    2    5    5    0    0 -0.32617121414E+02 -0.19058864756E+02  0.40253281174E+02  0.76288593581E+02  0.52654590779E+02 0.  0.
          5    1    3    3  501    0  0.72460101963E+01  0.99648297583E+02  0.53596865623E+02  0.11347687817E+03  0.47000000000E+01 0. -1.
        -13    1    4    4    0    0 -0.50384489829E+01  0.59012703789E+02  0.11871153477E+03  0.13266617378E+03  0.00000000000E+00 0.  1.
         14    1    4    4    0    0 -0.27542607154E+02 -0.21378501910E+02  0.93443863039E+02  0.99736608587E+02  0.00000000000E+00 0. -1.
         -5    1    5    5    0  502  0.57952167355E+02 -0.11822363471E+03  0.32445915549E+03  0.35018725717E+03  0.47000000000E+01 0.  1.
         11    1    6    6    0    0  0.13230099856E+02 -0.12866925621E+02  0.97284951256E+01  0.20862332912E+02  0.00000000000E+00 0. -1.
        -12    1    6    6    0    0 -0.45847221270E+02 -0.61919391347E+01  0.30524786048E+02  0.55426260669E+02  0.00000000000E+00 0.  1.
</event>
<event>
12    1  0.8358445E-002  0.2059068E+03  0.7818608E-02  0.1145064E+00
         21   -1    0    0  503  502  0.00000000000E+00  0.00000000000E+00  0.17966012282E+04  0.17966012282E+04  0.00000000000E+00 0.  1.
         21   -1    0    0  501  503 -0.00000000000E+00 -0.00000000000E+00 -0.26212660543E+02  0.26212660543E+02  0.00000000000E+00 0.  1.
          6    2    1    2  501    0 -0.10586879514E+03  0.14286738925E+02  0.59285122610E+03  0.62759079348E+03  0.17602646128E+03 0.  0.
         24    2    3    3    0    0 -0.13305921631E+03  0.28524793547E+02  0.36508512269E+03  0.39771793935E+03  0.79837294386E+02 0.  0.
         -6    2    1    2    0  502  0.10586879514E+03 -0.14286738925E+02  0.11775373415E+04  0.11952230952E+04  0.17479057186E+03 0.  0.
        -24    2    5    5    0    0  0.13199540603E+03 -0.15023692517E+02  0.69037152467E+03  0.70733400332E+03  0.77846333445E+02 0.  0.
          5    1    3    3  501    0  0.27190421172E+02 -0.14238054622E+02  0.22776610341E+03  0.22987285413E+03  0.47000000000E+01 0. -1.
        -11    1    4    4    0    0 -0.89305920088E+01  0.19386907465E+02  0.12977107889E+03  0.13151479222E+03  0.00000000000E+00 0.  1.
         12    1    4    4    0    0 -0.12412862430E+03  0.91378860823E+01  0.23531404380E+03  0.26620314713E+03  0.00000000000E+00 0. -1.
         -5    1    5    5    0  502 -0.26126610896E+02  0.73695359169E+00  0.48716581686E+03  0.48788909192E+03  0.47000000000E+01 0.  1.
         13    1    6    6    0    0  0.17513639946E+02 -0.28072056324E+02  0.87426576613E+02  0.93478201891E+02  0.00000000000E+00 0. -1.
        -14    1    6    6    0    0  0.11448176609E+03  0.13048363807E+02  0.60294494806E+03  0.61385580143E+03  0.00000000000E+00 0.  1.
</event>
<event>
12    1  0.8358445E-002  0.2229829E+03  0.7818608E-02  0.1131910E+00
         21   -1    0    0  503  502  0.00000000000E+00  0.00000000000E+00  0.11365056472E+04  0.11365056472E+04  0.00000000000E+00 0. -1.
         21   -1    0    0  501  503 -0.00000000000E+00 -0.00000000000E+00 -0.46084672591E+02  0.46084672591E+02  0.00000000000E+00 0. -1.
          6    2    1    2  501    0  0.58235059594E+00  0.13990402463E+03  0.40669663712E+03  0.46381408752E+03  0.17363144271E+03 0.  0.
         24    2    3    3    0    0 -0.48098961058E+01  0.54513916763E+02  0.88413807611E+02  0.13419825597E+03  0.84836715571E+02 0.  0.
         -6    2    1    2    0  502 -0.58235059594E+00 -0.13990402463E+03  0.68372433745E+03  0.71877623223E+03  0.17200821828E+03 0.  0.
        -24    2    5    5    0    0  0.34690070941E+02 -0.13604455431E+03  0.37748109388E+03  0.41044839783E+03  0.79147894896E+02 0.  0.
          5    1    3    3  501    0  0.53922467018E+01  0.85390107870E+02  0.31828282951E+03  0.32961583155E+03  0.47000000000E+01 0. -1.
        -11    1    4    4    0    0 -0.32008460064E+02  0.17250096710E+02  0.79207340613E+02  0.87154518868E+02  0.00000000000E+00 0.  1.
         12    1    4    4    0    0  0.27198563958E+02  0.37263820053E+02  0.92064669983E+01  0.47043737106E+02  0.00000000000E+00 0. -1.
         -5    1    5    5    0  502 -0.35272421537E+02 -0.38594703226E+01  0.30624324357E+03  0.30832783440E+03  0.47000000000E+01 0.  1.
         13    1    6    6    0    0  0.49082670639E+02 -0.42941627483E+02  0.18478937237E+03  0.19595970012E+03  0.00000000000E+00 0. -1.
        -14    1    6    6    0    0 -0.14392599699E+02 -0.93102926828E+02  0.19269172150E+03  0.21448869771E+03  0.00000000000E+00 0.  1.
</event>
<event>
12    1  0.8358445E-002  0.1813343E+03  0.7818608E-02  0.1166628E+00
         21   -1    0    0  503  502  0.00000000000E+00  0.00000000000E+00  0.33079102162E+02  0.33079102162E+02  0.00000000000E+00 0.  1.
         21   -1    0    0  501  503 -0.00000000000E+00 -0.00000000000E+00 -0.18194573171E+04  0.18194573171E+04  0.00000000000E+00 0.  1.
          6    2    1    2  501    0 -0.14710625036E+02  0.55645746054E+02 -0.15186307754E+04  0.15294187028E+04  0.17195721847E+03 0.  0.
         24    2    3    3    0    0 -0.68256596043E+02  0.66947241660E+01 -0.10099728422E+04  0.10155915368E+04  0.81714413338E+02 0.  0.
         -6    2    1    2    0  502  0.14710625036E+02 -0.55645746054E+02 -0.26774743959E+03  0.32311771650E+03  0.17147453387E+03 0.  0.
        -24    2    5    5    0    0  0.28399648647E+02  0.17391539745E+02 -0.67522912440E+02  0.10949705796E+03  0.79506328670E+02 0.  0.
          5    1    3    3  501    0  0.53545971007E+02  0.48951021888E+02 -0.50865793317E+03  0.51382716602E+03  0.47000000000E+01 0. -1.
        -11    1    4    4    0    0 -0.40367088304E+02  0.41419964812E+02 -0.42368691935E+03  0.42761632444E+03  0.00000000000E+00 0.  1.
         12    1    4    4    0    0 -0.27889507739E+02 -0.34725240646E+02 -0.58628592285E+03  0.58797521233E+03  0.00000000000E+00 0. -1.
         -5    1    5    5    0  502 -0.13689023611E+02 -0.73037285800E+02 -0.20022452715E+03  0.21362065854E+03  0.47000000000E+01 0.  1.
         11    1    6    6    0    0 -0.27240907898E+02  0.65156220870E+01 -0.32299080488E+02  0.42752204559E+02  0.00000000000E+00 0. -1.
        -12    1    6    6    0    0  0.55640556545E+02  0.10875917658E+02 -0.35223831953E+02  0.66744853397E+02  0.00000000000E+00 0.  1.
</event>
<event>
12    1  0.8358445E-002  0.1740604E+03  0.7818608E-02  0.1174064E+00
         21   -1    0    0  503  502  0.00000000000E+00  0.00000000000E+00  0.17089572535E+03  0.17089572535E+03  0.00000000000E+00 0.  1.
         21   -1    0    0  501  503 -0.00000000000E+00 -0.00000000000E+00 -0.23606972225E+03  0.23606972225E+03  0.00000000000E+00 0.  1.
          6    2    1    2  501    0  0.88969533457E+01 -0.14309519963E+02 -0.13555851206E+03  0.22061984825E+03  0.17324286163E+03 0.  0.
         24    2    3    3    0    0  0.64390182118E+02 -0.30325424667E+02 -0.12115403752E+03  0.16090731581E+03  0.78403676817E+02 0.  0.
         -6    2    1    2    0  502 -0.88969533457E+01  0.14309519963E+02  0.70384515162E+02  0.18634559935E+03  0.17171716362E+03 0.  0.
        -24    2    5    5    0    0  0.39048470602E+02 -0.30424016871E+02  0.48414110322E+01  0.93513269347E+02  0.79188941300E+02 0.  0.
          5    1    3    3  501    0 -0.55493228772E+02  0.16015904704E+02 -0.14404474539E+02  0.59712532435E+02  0.47000000000E+01 0. -1.
        -13    1    4    4    0    0  0.40066235582E+02  0.12592452717E+02 -0.97576308695E+02  0.10623092355E+03  0.00000000000E+00 0.  1.
         14    1    4    4    0    0  0.24323946535E+02 -0.42917877383E+02 -0.23577728829E+02  0.54676392263E+02  0.00000000000E+00 0. -1.
         -5    1    5    5    0  502 -0.47945423948E+02  0.44733536833E+02  0.65543104129E+02  0.92832330005E+02  0.47000000000E+01 0.  1.
         11    1    6    6    0    0  0.77468249385E+01 -0.51620780341E+02  0.15106807664E+02  0.54340904459E+02  0.00000000000E+00 0. -1.
        -12    1    6    6    0    0  0.31301645664E+02  0.21196763471E+02 -0.10265396632E+02  0.39172364888E+02  0.00000000000E+00 0.  1.
</event>
<event>
12    1  0.8358445E-002  0.2384434E+03  0.7818608E-02  0.1121094E+00
         21   -1    0    0  501  502  0.00000000000E+00  0.00000000000E+00  0.83354351042E+03  0.83354351042E+03  0.00000000000E+00 0. -1.
         21   -1    0    0  502  503 -0.00000000000E+00 -0.00000000000E+00 -0.11559829108E+03  0.11559829108E+03  0.00000000000E+00 0. -1.
         -6    2    1    2    0  503 -0.13458853862E+03  0.97024386712E+02  0.54392733882E+02  0.24456860262E+03  0.17125251981E+03 0.  0.
        -24    2    3    3    0    0 -0.11483024886E+03  0.73968956615E+00  0.31021410372E+02  0.14342790022E+03  0.80141758563E+02 0.  0.
          6    2    1    2  501    0  0.13458853862E+03 -0.97024386712E+02  0.66355248546E+03  0.70457319889E+03  0.16909667438E+03 0.  0.
         24    2    5    5    0    0  0.10143885906E+03 -0.13394175912E+03  0.48841858471E+03  0.52248594828E+03  0.78794766975E+02 0.  0.
          5    1    5    5  501    0  0.33149679559E+02  0.36917372406E+02  0.17513390075E+03  0.18208725061E+03  0.47000000000E+01 0. -1.
        -13    1    6    6    0    0 -0.21234672936E+01 -0.14661531063E+02  0.81544986123E+01  0.16910513123E+02  0.00000000000E+00 0.  1.
         14    1    6    6    0    0  0.10356232636E+03 -0.11928022806E+03  0.48026408610E+03  0.50557543516E+03  0.00000000000E+00 0. -1.
         -5    1    3    3    0  503 -0.19758289757E+02  0.96284697146E+02  0.23371323511E+02  0.10114070240E+03  0.47000000000E+01 0.  1.
         13    1    4    4    0    0 -0.11095503352E+03  0.19149984247E+02  0.68582651224E+01  0.11280415400E+03  0.00000000000E+00 0. -1.
        -14    1    4    4    0    0 -0.38752153472E+01 -0.18410294681E+02  0.24163145249E+02  0.30623746220E+02  0.00000000000E+00 0.  1.
</event>
<event>
12    1  0.8358445E-002  0.1877511E+03  0.7818608E-02  0.1161660E+00
         21   -1    0    0  501  502  0.00000000000E+00  0.00000000000E+00  0.19499938481E+03  0.19499938481E+03  0.00000000000E+00 0.  1.
         21   -1    0    0  502  503 -0.00000000000E+00 -0.00000000000E+00 -0.18580975041E+03  0.18580975041E+03  0.00000000000E+00 0.  1.
         -6    2    1    2    0  503  0.44758170964E+02 -0.45712199201E+02 -0.39165264409E+02  0.18693114409E+03  0.17122043006E+03 0.  0.
        -24    2    3    3    0    0  0.30306840904E+02  0.18057356661E+02 -0.72048173167E+02  0.11359102625E+03  0.80420204261E+02 0.  0.
          6    2    1    2  501    0 -0.44758170964E+02  0.45712199201E+02  0.48354898814E+02  0.19387799113E+03  0.17651509902E+03 0.  0.
         24    2    5    5    0    0 -0.75529883317E+02  0.68623573907E+02 -0.32614690857E+01  0.12939412643E+03  0.79487386442E+02 0.  0.
          5    1    5    5  501    0  0.30771712353E+02 -0.22911374706E+02  0.51616367900E+02  0.64483864705E+02  0.47000000000E+01 0. -1.
        -13    1    6    6    0    0 -0.10275903454E+02  0.53905694813E+02 -0.23220235983E+02  0.59586890203E+02  0.00000000000E+00 0.  1.
         14    1    6    6    0    0 -0.65253979864E+02  0.14717879095E+02  0.19958766897E+02  0.69807236223E+02  0.00000000000E+00 0. -1.
         -5    1    3    3    0  503  0.14451330060E+02 -0.63769555861E+02  0.32882908758E+02  0.73340117832E+02  0.47000000000E+01 0.  1.
         11    1    4    4    0    0 -0.12060464593E+01 -0.32843997508E+01 -0.75310628867E+02  0.75391860635E+02  0.00000000000E+00 0. -1.
        -12    1    4    4    0    0  0.31512887364E+02  0.21341756411E+02  0.32624556994E+01  0.38199165618E+02  0.00000000000E+00 0.  1.
</event>
<event>
12    1  0.8358445E-002  0.4057168E+03  0.7818608E-02  0.1041820E+00
         21   -1    0    0  503  502  0.00000000000E+00  0.00000000000E+00  0.89958603908E+03  0.89958603908E+03  0.00000000000E+00 0. -1.
         21   -1    0    0  501  503 -0.00000000000E+00 -0.00000000000E+00 -0.18315298763E+03  0.18315298763E+03  0.00000000000E+00 0.  1.
          6    2    1    2  501    0  0.36741371723E+03 -0.15856516179E+02  0.34097572772E+03  0.52995126203E+03  0.17128813303E+03 0.  0.
         24    2    3    3    0    0  0.10430812783E+03 -0.42707162138E+02  0.87533505379E+02  0.16361731816E+03  0.80027651535E+02 0.  0.
         -6    2    1    2    0  502 -0.36741371723E+03  0.15856516179E+02  0.37545732373E+03  0.55278776469E+03  0.17135297527E+03 0.  0.
        -24    2    5    5    0    0 -0.93113533862E+02  0.32711420820E+02  0.82560681216E+02  0.15112221774E+03  0.79255860178E+02 0.  0.
          5    1    3    3  501    0  0.26310558940E+03  0.26850645960E+02  0.25344222234E+03  0.36633394386E+03  0.47000000000E+01 0. -1.
        -13    1    4    4    0    0  0.53172225084E+02 -0.58348874934E+02  0.28411351689E+02  0.83899234986E+02  0.00000000000E+00 0.  1.
         14    1    4    4    0    0  0.51135902743E+02  0.15641712795E+02  0.59122153691E+02  0.79718083177E+02  0.00000000000E+00 0. -1.
         -5    1    5    5    0  502 -0.27430018336E+03 -0.16854904642E+02  0.29289664251E+03  0.40166554694E+03  0.47000000000E+01 0.  1.
         13    1    6    6    0    0 -0.92787036933E+01 -0.20188385981E+02  0.16332131289E+00  0.22219179657E+02  0.00000000000E+00 0. -1.
        -14    1    6    6    0    0 -0.83834830168E+02  0.52899806802E+02  0.82397359903E+02  0.12890303809E+03  0.00000000000E+00 0.  1.
</event>
<event>
12    1  0.8358445E-002  0.3103257E+03  0.7818608E-02  0.1080576E+00
         21   -1    0    0  503  502  0.00000000000E+00  0.00000000000E+00  0.52816215741E+03  0.52816215741E+03  0.00000000000E+00 0. -1.
         21   -1    0    0  501  503 -0.00000000000E+00 -0.00000000000E+00 -0.20364178496E+03  0.20364178496E+03  0.00000000000E+00 0.  1.
          6    2    1    2  501    0 -0.24783819598E+03  0.73624515237E+02  0.28497849992E+03  0.41896916957E+03  0.16576513206E+03 0.  0.
         24    2    3    3    0    0 -0.25425438890E+03  0.66303022276E+02  0.21688460504E+03  0.35002252128E+03  0.80221246947E+02 0.  0.
         -6    2    1    2    0  502  0.24783819598E+03 -0.73624515237E+02  0.39541872534E+02  0.31283477279E+03  0.17163244086E+03 0.  0.
        -24    2    5    5    0    0  0.44094545138E+02 -0.44448668276E+01 -0.12396904360E+02  0.91436883109E+02  0.79012243374E+02 0.  0.
          5    1    3    3  501    0  0.64161929232E+01  0.73214929606E+01  0.68093894882E+02  0.68946648294E+02  0.47000000000E+01 0. -1.
        -11    1    4    4    0    0 -0.36837033493E+02  0.25881320472E+01  0.79903764761E+00  0.36936485015E+02  0.00000000000E+00 0.  1.
         12    1    4    4    0    0 -0.21741735541E+03  0.63714890229E+02  0.21608556739E+03  0.31308603626E+03  0.00000000000E+00 0. -1.
         -5    1    5    5    0  502  0.20374365084E+03 -0.69179648409E+02  0.51938776894E+02  0.22139788969E+03  0.47000000000E+01 0.  1.
         13    1    6    6    0    0  0.30120278728E+02 -0.37494254341E+01 -0.45957705829E+02  0.55076311666E+02  0.00000000000E+00 0. -1.
        -14    1    6    6    0    0  0.13974266410E+02 -0.69544139350E+00  0.33560801469E+02  0.36360571443E+02  0.00000000000E+00 0.  1.
</event>
<event>
12    1  0.8358445E-002  0.2004575E+03  0.7818608E-02  0.1149442E+00
         21   -1    0    0  501  502  0.00000000000E+00  0.00000000000E+00  0.21353061646E+03  0.21353061646E+03  0.00000000000E+00 0. -1.
         21   -1    0    0  502  503 -0.00000000000E+00 -0.00000000000E+00 -0.19129063384E+03  0.19129063384E+03  0.00000000000E+00 0. -1.
         -6    2    1    2    0  503 -0.30383284623E+02  0.98114365025E+02 -0.16246135020E+02  0.20111474979E+03  0.17214422172E+03 0.  0.
        -24    2    3    3    0    0 -0.10291525537E+02  0.13577333990E+03  0.73521551145E+01  0.15211631646E+03  0.67416646485E+02 0.  0.
          6    2    1    2  501    0  0.30383284623E+02 -0.98114365025E+02  0.38486117637E+02  0.20370650051E+03  0.17165542372E+03 0.  0.
         24    2    5    5    0    0  0.15791091813E+02 -0.30285679087E+02  0.83348752324E+02  0.12095138757E+03  0.80719531110E+02 0.  0.
          5    1    5    5  501    0  0.14592192810E+02 -0.67828685939E+02 -0.44862634687E+02  0.82755112943E+02  0.47000000000E+01 0. -1.
        -13    1    6    6    0    0 -0.27719596965E+02 -0.86852024029E+01  0.60826774859E+02  0.67407012517E+02  0.00000000000E+00 0.  1.
         14    1    6    6    0    0  0.43510688777E+02 -0.21600476684E+02  0.22521977465E+02  0.53544375053E+02  0.00000000000E+00 0. -1.
         -5    1    3    3    0  503 -0.20091759086E+02 -0.37658974872E+02 -0.23598290135E+02  0.48998433331E+02  0.47000000000E+01 0.  1.
         13    1    4    4    0    0  0.30674869341E+01  0.11381750971E+03 -0.18855866709E+02  0.11540961269E+03  0.00000000000E+00 0. -1.
        -14    1    4    4    0    0 -0.13359012471E+02  0.21955830188E+02  0.26208021824E+02  0.36706703766E+02  0.00000000000E+00 0.  1.
</event>
<event>
12    1  0.8358445E-002  0.1911127E+03  0.7818608E-02  0.1157723E+00
         21   -1    0    0  501  502  0.00000000000E+00  0.00000000000E+00  0.10433521723E+04  0.10433521723E+04  0.00000000000E+00 0.  1.
         21   -1    0    0  502  503 -0.00000000000E+00 -0.00000000000E+00 -0.45363643631E+02  0.45363643631E+02  0.00000000000E+00 0. -1.
         -6    2    1    2    0  503 -0.66695486135E+02 -0.48016828871E+02  0.23505436285E+03  0.30220923018E+03  0.17124824549E+03 0.  0.
        -24    2    3    3    0    0 -0.10121479335E+03 -0.12515367134E+02  0.11832434845E+03  0.17532375970E+03  0.79603394859E+02 0.  0.
          6    2    1    2  501    0  0.66695486135E+02  0.48016828871E+02  0.76293416584E+03  0.78650658577E+03  0.17254032670E+03 0.  0.
         24    2    5    5    0    0  0.31861500662E+02  0.96130247229E+02  0.46282699743E+03  0.48054137517E+03  0.80343039792E+02 0.  0.
          5    1    5    5  501    0  0.34833985473E+02 -0.48113418358E+02  0.30010716841E+03  0.30596521060E+03  0.47000000000E+01 0. -1.
        -13    1    6    6    0    0  0.52251968814E+02  0.37659353579E+02  0.28669023607E+03  0.29383632623E+03  0.00000000000E+00 0.  1.
         14    1    6    6    0    0 -0.20390468151E+02  0.58470893650E+02  0.17613676136E+03  0.18670504894E+03  0.00000000000E+00 0. -1.
         -5    1    3    3    0  503  0.34519307212E+02 -0.35501461737E+02  0.11673001440E+03  0.12688547048E+03  0.47000000000E+01 0.  1.
         11    1    4    4    0    0 -0.54684782056E+02 -0.10693594334E+02  0.89307393660E+01  0.56431697244E+02  0.00000000000E+00 0. -1.
        -12    1    4    4    0    0 -0.46530011291E+02 -0.18217728003E+01  0.10939360909E+03  0.11889206246E+03  0.00000000000E+00 0.  1.
</event>
<event>
12    1  0.8358445E-002  0.2242148E+03  0.7818608E-02  0.1130840E+00
         21   -1    0    0  503  502  0.00000000000E+00  0.00000000000E+00  0.90186518680E+03  0.90186518680E+03  0.00000000000E+00 0. -1.
         21   -1    0    0  501  503 -0.00000000000E+00 -0.00000000000E+00 -0.13770772902E+03  0.13770772902E+03  0.00000000000E+00 0. -1.
          6    2    1    2  501    0 -0.11048886663E+03  0.88632929539E+02 -0.19024134610E+02  0.22502038651E+03  0.17380641760E+03 0.  0.
         24    2    3    3    0    0 -0.12040510299E+02  0.65077614222E+02 -0.54603275888E+02  0.11761974854E+03  0.80453823692E+02 0.  0.
         -6    2    1    2    0  502  0.11048886663E+03 -0.88632929539E+02  0.78318159239E+03  0.81455252932E+03  0.17337482663E+03 0.  0.
        -24    2    5    5    0    0  0.80957797244E+02 -0.70576394892E+02  0.27741125313E+03  0.30757733408E+03  0.78176854819E+02 0.  0.
          5    1    3    3  501    0 -0.98448356326E+02  0.23555315317E+02  0.35579141278E+02  0.10740063797E+03  0.47000000000E+01 0. -1.
        -13    1    4    4    0    0  0.10304423192E+02  0.41871299574E+02  0.11027796986E+02  0.44508416863E+02  0.00000000000E+00 0.  1.
         14    1    4    4    0    0 -0.22344933491E+02  0.23206314648E+02 -0.65631072874E+02  0.73111331672E+02  0.00000000000E+00 0. -1.
         -5    1    5    5    0  502  0.29531069381E+02 -0.18056534647E+02  0.50577033927E+03  0.50697519524E+03  0.47000000000E+01 0.  1.
         11    1    6    6    0    0  0.34930480388E+02 -0.57611942866E+02  0.80650656140E+02  0.10508949879E+03  0.00000000000E+00 0. -1.
        -12    1    6    6    0    0  0.46027316855E+02 -0.12964452026E+02  0.19676059699E+03  0.20248783529E+03  0.00000000000E+00 0.  1.
</event>
<event>
12    1  0.8358445E-002  0.1800932E+03  0.7818608E-02  0.1167890E+00
         21   -1    0    0  503  502  0.00000000000E+00  0.00000000000E+00  0.70303343970E+02  0.70303343970E+02  0.00000000000E+00 0. -1.
         21   -1    0    0  501  503 -0.00000000000E+00 -0.00000000000E+00 -0.70540077264E+03  0.70540077264E+03  0.00000000000E+00 0. -1.
          6    2    1    2  501    0 -0.34656807096E+02  0.39627086367E+02 -0.54697974710E+03  0.57586492789E+03  0.17222709188E+03 0.  0.
         24    2    3    3    0    0 -0.46606519470E+02  0.85471370071E+02 -0.31798489959E+03  0.34197344843E+03  0.79711481642E+02 0.  0.
         -6    2    1    2    0  502  0.34656807096E+02 -0.39627086367E+02 -0.88117681569E+02  0.19983918873E+03  0.17146304352E+03 0.  0.
        -24    2    5    5    0    0 -0.15453347028E+02 -0.36585819739E+02  0.95535948828E+01  0.89920832239E+02  0.80107157951E+02 0.  0.
          5    1    3    3  501    0  0.11949712373E+02 -0.45844283704E+02 -0.22899484752E+03  0.23389147946E+03  0.47000000000E+01 0. -1.
        -13    1    4    4    0    0  0.19531568635E+02  0.42747049958E+02 -0.11273885099E+03  0.12214270742E+03  0.00000000000E+00 0.  1.
         14    1    4    4    0    0 -0.66138088105E+02  0.42724320113E+02 -0.20524604860E+03  0.21983074101E+03  0.00000000000E+00 0. -1.
         -5    1    5    5    0  502  0.50110154125E+02 -0.30412666284E+01 -0.97671276452E+02  0.10991835649E+03  0.47000000000E+01 0.  1.
         11    1    6    6    0    0  0.30720644699E+02 -0.43220190358E+01  0.12657743101E+02  0.33506063924E+02  0.00000000000E+00 0. -1.
        -12    1    6    6    0    0 -0.46173991727E+02 -0.32263800703E+02 -0.31041482186E+01  0.56414768314E+02  0.00000000000E+00 0.  1.
</event>
<event>
12    1  0.8358445E-002  0.1742962E+03  0.7818608E-02  0.1173801E+00
         21   -1    0    0  501  502  0.00000000000E+00  0.00000000000E+00  0.48489464074E+03  0.48489464074E+03  0.00000000000E+00 0. -1.
         21   -1    0    0  502  503 -0.00000000000E+00 -0.00000000000E+00 -0.23048512677E+03  0.23048512677E+03  0.00000000000E+00 0. -1.
         -6    2    1    2    0  503  0.17661741843E+02 -0.17807101943E+02 -0.17862712298E+03  0.24858228355E+03  0.17104523561E+03 0.  0.
        -24    2    3    3    0    0  0.12351623427E+02 -0.57243182807E+02 -0.42572222357E+02  0.10674989016E+03  0.78446162129E+02 0.  0.
          6    2    1    2  501    0 -0.17661741843E+02  0.17807101943E+02  0.43303663695E+03  0.46679748396E+03  0.17248226600E+03 0.  0.
         24    2    5    5    0    0 -0.96293577658E+01 -0.54648416567E+02  0.21278441755E+03  0.23474694742E+03  0.82156843947E+02 0.  0.
          5    1    5    5  501    0 -0.80323840769E+01  0.72455518510E+02  0.22025221940E+03  0.23205053654E+03  0.47000000000E+01 0. -1.
        -11    1    6    6    0    0 -0.34792653416E+02 -0.63547303301E+02  0.15614300772E+03  0.17213200559E+03  0.00000000000E+00 0.  1.
         12    1    6    6    0    0  0.25163295650E+02  0.88988867338E+01  0.56641409837E+02  0.62614941838E+02  0.00000000000E+00 0. -1.
         -5    1    3    3    0  503  0.53101184156E+01  0.39436080863E+02 -0.13605490063E+03  0.14183239339E+03  0.47000000000E+01 0.  1.
         13    1    4    4    0    0  0.25187851287E+02 -0.51954717381E+02 -0.60793435285E+02  0.83842484960E+02  0.00000000000E+00 0. -1.
        -14    1    4    4    0    0 -0.12836227860E+02 -0.52884654261E+01  0.18221212928E+02  0.22907405196E+02  0.00000000000E+00 0.  1.
</event>
<event>
12    1  0.8358445E-002  0.1819765E+03  0.7818608E-02  0.1165959E+00
         21   -1    0    0  501  502  0.00000000000E+00  0.00000000000E+00  0.37576147077E+03  0.37576147077E+03  0.00000000000E+00 0. -1.
         21   -1    0    0  502  503 -0.00000000000E+00 -0.00000000000E+00 -0.15307920447E+04  0.15307920447E+04  0.00000000000E+00 0. -1.
         -6    2    1    2    0  503 -0.16420701009E+02  0.56592396950E+02 -0.15029595919E+04  0.15139085852E+04  0.17192827223E+03 0.  0.
        -24    2    3    3    0    0 -0.47356662806E+02 -0.22950376003E+02 -0.73928665531E+03  0.74546696057E+03  0.80042846708E+02 0.  0.
          6    2    1    2  501    0  0.16420701009E+02 -0.56592396950E+02  0.34792901794E+03  0.39264493025E+03  0.17217171926E+03 0.  0.
         24    2    5    5    0    0  0.23916033075E+02 -0.67995528390E+02  0.11817583179E+03  0.16243887482E+03  0.85002895921E+02 0.  0.
          5    1    5    5  501    0 -0.74953320651E+01  0.11403131440E+02  0.22975318615E+03  0.23020605543E+03  0.47000000000E+01 0. -1.
        -13    1    6    6    0    0  0.44711113285E+02 -0.51827976578E+02  0.11762639568E+03  0.13609258528E+03  0.00000000000E+00 0.  1.
         14    1    6    6    0    0 -0.20795080210E+02 -0.16167551811E+02  0.54943610767E+00  0.26346289541E+02  0.00000000000E+00 0. -1.
         -5    1    3    3    0  503  0.30935961797E+02  0.79542772953E+02 -0.76367293655E+03  0.76844162464E+03  0.47000000000E+01 0.  1.
         13    1    4    4    0    0 -0.27377815221E+02  0.26690054094E+02 -0.41902375700E+03  0.42076455731E+03  0.00000000000E+00 0. -1.
        -14    1    4    4    0    0 -0.19978847585E+02 -0.49640430097E+02 -0.32026289830E+03  0.32470240326E+03  0.00000000000E+00 0.  1.
</event>
<event>
12    1  0.8358445E-002  0.1796655E+03  0.7818608E-02  0.1168419E+00
         21   -1    0    0  501  502  0.00000000000E+00  0.00000000000E+00  0.54140311314E+02  0.54140311314E+02  0.00000000000E+00 0. -1.
         21   -1    0    0  502  503 -0.00000000000E+00 -0.00000000000E+00 -0.10383758982E+04  0.10383758982E+04  0.00000000000E+00 0. -1.
         -6    2    1    2    0  503 -0.47057955749E+02  0.23098294236E+02 -0.85111136082E+03  0.86986793698E+03  0.17184788875E+03 0.  0.
        -24    2    3    3    0    0 -0.70278325351E+02 -0.39924643979E+02 -0.59234871155E+03  0.60248941322E+03  0.74722665664E+02 0.  0.
          6    2    1    2  501    0  0.47057955749E+02 -0.23098294236E+02 -0.13312422603E+03  0.22264827250E+03  0.17059370239E+03 0.  0.
         24    2    5    5    0    0  0.18894825643E+02 -0.79098241334E+02 -0.10232120716E+03  0.15264775862E+03  0.78855326763E+02 0.  0.
          5    1    5    5  501    0  0.28163130106E+02  0.55999947098E+02 -0.30803018873E+02  0.70000513884E+02  0.47000000000E+01 0. -1.
        -13    1    6    6    0    0  0.32065762813E+02 -0.19071526598E+02 -0.78171623667E+02  0.86618352664E+02  0.00000000000E+00 0.  1.
         14    1    6    6    0    0 -0.13170937169E+02 -0.60026714736E+02 -0.24149583491E+02  0.66029405955E+02  0.00000000000E+00 0. -1.
         -5    1    3    3    0  503  0.23220369602E+02  0.63022938214E+02 -0.25876264927E+03  0.26737852375E+03  0.47000000000E+01 0.  1.
         11    1    4    4    0    0 -0.71050563100E+02 -0.97457771189E+01 -0.29413862165E+03  0.30275516748E+03  0.00000000000E+00 0. -1.
        -12    1    4    4    0    0  0.77223774950E+00 -0.30178866860E+02 -0.29821008990E+03  0.29973424575E+03  0.00000000000E+00 0.  1.
</event>
<event>
12    1  0.8358445E-002  0.1807623E+03  0.7818608E-02  0.1167399E+00
         21   -1    0    0  501  502  0.00000000000E+00  0.00000000000E+00  0.18473988357E+03  0.18473988357E+03  0.00000000000E+00 0. -1.
         21   -1    0    0  502  503 -0.00000000000E+00 -0.00000000000E+00 -0.35123650523E+03  0.35123650523E+03  0.00000000000E+00 0. -1.
         -6    2    1    2    0  503  0.10951460561E+02 -0.53635583377E+02 -0.27294968428E+03  0.32737830363E+03  0.17227394827E+03 0.  0.
        -24    2    3    3    0    0  0.18719299405E+02 -0.30059491322E+02 -0.28603649488E+03  0.29892613239E+03  0.79284115878E+02 0.  0.
          6    2    1    2  501    0 -0.10951460561E+02  0.53635583377E+02  0.10645306262E+03  0.20859808516E+03  0.17083382657E+03 0.  0.
         24    2    5    5    0    0 -0.40582102774E+02 -0.22920339098E+02  0.78583138297E+02  0.12177869271E+03  0.80513920312E+02 0.  0.
          5    1    5    5  501    0  0.29630642212E+02  0.76555922475E+02  0.27869924326E+02  0.86819392453E+02  0.47000000000E+01 0. -1.
        -11    1    6    6    0    0 -0.45582735687E+02 -0.80622882800E+01  0.50176999402E+01  0.46561396002E+02  0.00000000000E+00 0.  1.
         12    1    6    6    0    0  0.50006329130E+01 -0.14858050818E+02  0.73565438357E+02  0.75217296709E+02  0.00000000000E+00 0. -1.
         -5    1    3    3    0  503 -0.77678388434E+01 -0.23576092055E+02  0.13086810606E+02  0.28452171248E+02  0.47000000000E+01 0.  1.
         11    1    4    4    0    0  0.35266413880E+02  0.13753478304E+02 -0.16143905977E+03  0.16581751456E+03  0.00000000000E+00 0. -1.
        -12    1    4    4    0    0 -0.16547114475E+02 -0.43812969626E+02 -0.12459743511E+03  0.13310861783E+03  0.00000000000E+00 0.  1.
</event>
<event>
12    1  0.8358445E-002  0.2399261E+03  0.7818608E-02  0.1119925E+00
         21   -1    0    0  501  502  0.00000000000E+00  0.00000000000E+00  0.90335536694E+02  0.90335536694E+02  0.00000000000E+00 0.  1.
         21   -1    0    0  502  503 -0.00000000000E+00 -0.00000000000E+00 -0.11958541325E+04  0.11958541325E+04  0.00000000000E+00 0.  1.
         -6    2    1    2    0  503 -0.16609761810E+03  0.17204751216E+02 -0.99312386106E+03  0.10216944530E+04  0.17227921995E+03 0.  0.
        -24    2    3    3    0    0 -0.15684204341E+03 -0.22660868056E+02 -0.61395874488E+03  0.64029805997E+03  0.89013053390E+02 0.  0.
          6    2    1    2  501    0  0.16609761810E+03 -0.17204751216E+02 -0.11239473476E+03  0.26449521623E+03  0.17158298519E+03 0.  0.
         24    2    5    5    0    0  0.18959571638E+03 -0.15907213345E+02 -0.12062557191E+03  0.23912434893E+03  0.80189466556E+02 0.  0.
          5    1    5    5  501    0 -0.23498098280E+02 -0.12975378708E+01  0.82308371551E+01  0.25370867301E+02  0.47000000000E+01 0. -1.
        -11    1    6    6    0    0  0.32851816357E+02 -0.19139597154E+02  0.48356761495E+01  0.38326880659E+02  0.00000000000E+00 0.  1.
         12    1    6    6    0    0  0.15674390002E+03  0.32323838092E+01 -0.12546124806E+03  0.20079746827E+03  0.00000000000E+00 0. -1.
         -5    1    3    3    0  503 -0.92555746923E+01  0.39865619272E+02 -0.37916511618E+03  0.38139639300E+03  0.47000000000E+01 0.  1.
         13    1    4    4    0    0 -0.10900294144E+03 -0.41498721437E+02 -0.29497175245E+03  0.31719413593E+03  0.00000000000E+00 0. -1.
        -14    1    4    4    0    0 -0.47839101972E+02  0.18837853381E+02 -0.31898699242E+03  0.32310392404E+03  0.00000000000E+00 0.  1.
</event>
<event>
12    1  0.8358445E-002  0.1778017E+03  0.7818608E-02  0.1170055E+00
         21   -1    0    0  503  502  0.00000000000E+00  0.00000000000E+00  0.31725502519E+03  0.31725502519E+03  0.00000000000E+00 0. -1.
         21   -1    0    0  501  503 -0.00000000000E+00 -0.00000000000E+00 -0.38929089619E+03  0.38929089619E+03  0.00000000000E+00 0. -1.
          6    2    1    2  501    0  0.41513527617E+02 -0.14232028727E+02 -0.34088086209E+03  0.38446483784E+03  0.17230068420E+03 0.  0.
         24    2    3    3    0    0  0.67633945315E+01 -0.89687783833E+01 -0.33997330732E+03  0.34899390313E+03  0.78030200805E+02 0.  0.
         -6    2    1    2    0  502 -0.41513527617E+02  0.14232028727E+02  0.26884499109E+03  0.32208108354E+03  0.17185072453E+03 0.  0.
        -24    2    5    5    0    0 -0.47275069869E+02 -0.53303634452E+02  0.19295119301E+03  0.22021735222E+03  0.78672165731E+02 0.  0.
          5    1    3    3  501    0  0.34750133086E+02 -0.52632503439E+01 -0.90755477027E+00  0.35470934712E+02  0.47000000000E+01 0. -1.
        -11    1    4    4    0    0 -0.78292639356E+01  0.28898982952E+02 -0.72185910668E+02  0.78148923783E+02  0.00000000000E+00 0.  1.
         12    1    4    4    0    0  0.14592658467E+02 -0.37867761336E+02 -0.26778739665E+03  0.27084497934E+03  0.00000000000E+00 0. -1.
         -5    1    5    5    0  502  0.57615422513E+01  0.67535663179E+02  0.75893798084E+02  0.10186373132E+03  0.47000000000E+01 0.  1.
         11    1    6    6    0    0 -0.41786745229E+02 -0.96536519362E+01  0.15889812907E+03  0.16458414411E+03  0.00000000000E+00 0. -1.
        -12    1    6    6    0    0 -0.54883246397E+01 -0.43649982516E+02  0.34053063940E+02  0.55633208111E+02  0.00000000000E+00 0.  1.
</event>
<event>
12    1  0.8358445E-002  0.1884015E+03  0.7818608E-02  0.1160294E+00
         21   -1    0    0  503  502  0.00000000000E+00  0.00000000000E+00  0.29881960442E+03  0.29881960442E+03  0.00000000000E+00 0. -1.
         21   -1    0    0  501  503 -0.00000000000E+00 -0.00000000000E+00 -0.11784556348E+03  0.11784556348E+03  0.00000000000E+00 0. -1.
          6    2    1    2  501    0  0.42887285456E+02  0.65343236415E+02  0.96550561702E+02  0.21021315935E+03  0.16958332347E+03 0.  0.
         24    2    3    3    0    0  0.30006197224E+02 -0.22549298584E+02  0.17374989061E+02  0.91125454499E+02  0.81198001664E+02 0.  0.
         -6    2    1    2    0  502 -0.42887285456E+02 -0.65343236415E+02  0.84423479233E+02  0.20645200856E+03  0.17142359870E+03 0.  0.
        -24    2    5    5    0    0 -0.38501938261E+02 -0.63864434476E+02 -0.11733815701E+02  0.11006874500E+03  0.80102315533E+02 0.  0.
          5    1    3    3  501    0  0.12881088232E+02  0.87892534998E+02  0.79175572641E+02  0.11908770485E+03  0.47000000000E+01 0. -1.
        -11    1    4    4    0    0 -0.20339156264E+02  0.16075487268E+02  0.33661429333E+01  0.26142560829E+02  0.00000000000E+00 0.  1.
         12    1    4    4    0    0  0.50345353488E+02 -0.38624785852E+02  0.14008846128E+02  0.64982893670E+02  0.00000000000E+00 0. -1.
         -5    1    5    5    0  502 -0.43853471949E+01 -0.14788019383E+01  0.96157294934E+02  0.96383263558E+02  0.47000000000E+01 0.  1.
         11    1    6    6    0    0 -0.53546548062E+02 -0.38214767482E+02  0.17808368625E+02  0.68152323924E+02  0.00000000000E+00 0. -1.
        -12    1    6    6    0    0  0.15044609802E+02 -0.25649666994E+02 -0.29542184326E+02  0.41916421075E+02  0.00000000000E+00 0.  1.
</event>
<event>
12    1  0.8358445E-002  0.1795373E+03  0.7818608E-02  0.1168508E+00
         21   -1    0    0  503  502  0.00000000000E+00  0.00000000000E+00  0.55572060388E+03  0.55572060388E+03  0.00000000000E+00 0. -1.
         21   -1    0    0  501  503 -0.00000000000E+00 -0.00000000000E+00 -0.61096390630E+02  0.61096390630E+02  0.00000000000E+00 0. -1.
          6    2    1    2  501    0  0.26889483824E+02  0.42048197728E+02  0.17489221569E+03  0.25064100237E+03  0.17246022640E+03 0.  0.
         24    2    3    3    0    0  0.31440820677E+02 -0.88335333027E+01  0.18292520141E+03  0.19871524692E+03  0.70424168655E+02 0.  0.
         -6    2    1    2    0  502 -0.26889483824E+02 -0.42048197728E+02  0.31973199756E+03  0.36617599214E+03  0.17136280717E+03 0.  0.
        -24    2    5    5    0    0 -0.35328977677E+02  0.32931972283E+02  0.11791062220E+03  0.15065984772E+03  0.80391687542E+02 0.  0.
          5    1    3    3  501    0 -0.45513368529E+01  0.50881731031E+02 -0.80329857233E+01  0.51925755454E+02  0.47000000000E+01 0. -1.
        -11    1    4    4    0    0 -0.41405964305E+01 -0.31483894959E+02  0.49754640938E+02  0.59024609066E+02  0.00000000000E+00 0.  1.
         12    1    4    4    0    0  0.35581417107E+02  0.22650361656E+02  0.13317056048E+03  0.13969063785E+03  0.00000000000E+00 0. -1.
         -5    1    5    5    0  502  0.84394938534E+01 -0.74980170011E+02  0.20182137536E+03  0.21551614442E+03  0.47000000000E+01 0.  1.
         11    1    6    6    0    0  0.31095550450E+01 -0.17587219486E+02  0.66844190048E+02  0.69189055240E+02  0.00000000000E+00 0. -1.
        -12    1    6    6    0    0 -0.38438532722E+02  0.50519191769E+02  0.51066432151E+02  0.81470792481E+02  0.00000000000E+00 0.  1.
</event>
<event>
12    1  0.8358445E-002  0.2623768E+03  0.7818608E-02  0.1106543E+00
         21   -1    0    0  501  502  0.00000000000E+00  0.00000000000E+00  0.21227604014E+03  0.21227604014E+03  0.00000000000E+00 0.  1.
         21   -1    0    0  502  503 -0.00000000000E+00 -0.00000000000E+00 -0.32954927237E+03  0.32954927237E+03  0.00000000000E+00 0. -1.
         -6    2    1    2    0  503  0.75494041057E+02 -0.17496052854E+03 -0.11083599742E+03  0.28482659274E+03  0.18036361282E+03 0.  0.
        -24    2    3    3    0    0  0.95130752948E+01 -0.17251766317E+03 -0.52766479514E+02  0.19677198273E+03  0.77987621596E+02 0.  0.
          6    2    1    2  501    0 -0.75494041057E+02  0.17496052854E+03 -0.64372348136E+01  0.25699871977E+03  0.17232633922E+03 0.  0.
         24    2    5    5    0    0 -0.31420420013E+02  0.91169116851E+02 -0.69852592768E+02  0.14295012325E+03  0.79096791077E+02 0.  0.
          5    1    5    5  501    0 -0.44073621044E+02  0.83791411687E+02  0.63415357955E+02  0.11404859652E+03  0.47000000000E+01 0. -1.
        -11    1    6    6    0    0 -0.47151894029E+02  0.92364560548E+02 -0.43975036378E+02  0.11264242975E+03  0.00000000000E+00 0.  1.
         12    1    6    6    0    0  0.15731474016E+02 -0.11954436973E+01 -0.25877556390E+02  0.30307693496E+02  0.00000000000E+00 0. -1.
         -5    1    3    3    0  503  0.65980965762E+02 -0.24428653701E+01 -0.58069517905E+02  0.88054610009E+02  0.47000000000E+01 0.  1.
         13    1    4    4    0    0  0.17463238717E+02 -0.17714003085E+03 -0.42525871377E+02  0.18300821012E+03  0.00000000000E+00 0. -1.
        -14    1    4    4    0    0 -0.79501634219E+01  0.46223676834E+01 -0.10240608137E+02  0.13763772610E+02  0.00000000000E+00 0.  1.
</event>
<event>
12    1  0.8358445E-002  0.1769387E+03  0.7818608E-02  0.1170909E+00
         21   -1    0    0  501  502  0.00000000000E+00  0.00000000000E+00  0.43240563265E+03  0.43240563265E+03  0.00000000000E+00 0.  1.
         21   -1    0    0  502  503 -0.00000000000E+00 -0.00000000000E+00 -0.75162038676E+02  0.75162038676E+02  0.00000000000E+00 0.  1.
         -6    2    1    2    0  503 -0.15911601951E+02  0.36995021115E+02  0.22861055670E+03  0.28881265750E+03  0.17183757981E+03 0.  0.
        -24    2    3    3    0    0 -0.76091294548E+02  0.26635787448E+02  0.16950602362E+03  0.20369893973E+03  0.79130371687E+02 0.  0.
          6    2    1    2  501    0  0.15911601951E+02 -0.36995021115E+02  0.12863303728E+03  0.21875501382E+03  0.17229476815E+03 0.  0.
         24    2    5    5    0    0 -0.43925813359E+02 -0.52956261753E+01  0.24561557282E+02  0.94503933916E+02  0.79813549562E+02 0.  0.
          5    1    5    5  501    0  0.59837415310E+02 -0.31699394940E+02  0.10407147999E+03  0.12425107991E+03  0.47000000000E+01 0. -1.
        -11    1    6    6    0    0 -0.60700147522E+01 -0.38206276139E+02  0.76428710751E-01  0.38685532914E+02  0.00000000000E+00 0.  1.
         12    1    6    6    0    0 -0.37855798606E+02  0.32910649964E+02  0.24485128572E+02  0.55818401001E+02  0.00000000000E+00 0. -1.
         -5    1    3    3    0  503  0.60179692597E+02  0.10359233667E+02  0.59104533083E+02  0.85113717779E+02  0.47000000000E+01 0.  1.
         13    1    4    4    0    0 -0.31493823216E+01  0.24444926378E+02  0.70970832317E+01  0.25648423441E+02  0.00000000000E+00 0. -1.
        -14    1    4    4    0    0 -0.72941912226E+02  0.21908610701E+01  0.16240894039E+03  0.17805051628E+03  0.00000000000E+00 0.  1.
</event>
<event>
12    1  0.8358445E-002  0.1748407E+03  0.7818608E-02  0.1173289E+00
         21   -1    0    0  501  502  0.00000000000E+00  0.00000000000E+00  0.11827501335E+03  0.11827501335E+03  0.00000000000E+00 0. -1.
         21   -1    0    0  502  503 -0.00000000000E+00 -0.00000000000E+00 -0.29096088458E+03  0.29096088458E+03  0.00000000000E+00 0. -1.
         -6    2    1    2    0  503 -0.18933595982E+02 -0.24643954012E+01 -0.15678696761E+03  0.23367379631E+03  0.17221131080E+03 0.  0.
        -24    2    3    3    0    0  0.18587026750E+00  0.55004097807E+02 -0.14114948971E+03  0.17094579286E+03  0.79207324972E+02 0.  0.
          6    2    1    2  501    0  0.18933595982E+02  0.24643954012E+01 -0.15898903624E+02  0.17556210163E+03  0.17379505773E+03 0.  0.
         24    2    5    5    0    0 -0.37510810402E+02 -0.79360115029E+01 -0.57835605037E+02  0.10432365413E+03  0.77900105431E+02 0.  0.
          5    1    5    5  501    0  0.56444406384E+02  0.10400406904E+02  0.41936701413E+02  0.71238447494E+02  0.47000000000E+01 0. -1.
        -11    1    6    6    0    0 -0.53341901962E+02 -0.28773410218E+02 -0.38793207649E+02  0.71959576153E+02  0.00000000000E+00 0.  1.
         12    1    6    6    0    0  0.15831091560E+02  0.20837398715E+02 -0.19042397388E+02  0.32364077980E+02  0.00000000000E+00 0. -1.
         -5    1    3    3    0  503 -0.19119466250E+02 -0.57468493208E+02 -0.15637477898E+02  0.62728003445E+02  0.47000000000E+01 0.  1.
         13    1    4    4    0    0  0.32177519615E+01 -0.62318490105E+01 -0.92267115543E+02  0.92533293902E+02  0.00000000000E+00 0. -1.
        -14    1    4    4    0    0 -0.30318816940E+01  0.61235946817E+02 -0.48882374167E+02  0.78412498961E+02  0.00000000000E+00 0.  1.
</event>
<event>
12    1  0.8358445E-002  0.2722642E+03  0.7818608E-02  0.1100053E+00
         21   -1    0    0  503  502  0.00000000000E+00  0.00000000000E+00  0.49678438648E+03  0.49678438648E+03  0.00000000000E+00 0.  1.
         21   -1    0    0  501  503 -0.00000000000E+00 -0.00000000000E+00 -0.16938205925E+03  0.16938205925E+03  0.00000000000E+00 0. -1.
          6    2    1    2  501    0 -0.11128193048E+02 -0.20987716574E+03  0.48201696985E+02  0.27649812764E+03  0.17307671598E+03 0.  0.
         24    2    3    3    0    0 -0.35705699906E+01 -0.35695255571E+02 -0.10640745592E+02  0.92430263671E+02  0.84517619082E+02 0.  0.
         -6    2    1    2    0  502  0.11128193048E+02  0.20987716574E+03  0.27920063024E+03  0.38966831809E+03  0.17238371390E+03 0.  0.
        -24    2    5    5    0    0 -0.59451123764E+02  0.11620158477E+03  0.19452058479E+03  0.24492939959E+03  0.71518588185E+02 0.  0.
          5    1    3    3  501    0 -0.75576230570E+01 -0.17418191017E+03  0.58842442577E+02  0.18406786397E+03  0.47000000000E+01 0. -1.
        -11    1    4    4    0    0 -0.15639005360E+02 -0.33894493400E+02  0.31322483742E+02  0.48728976588E+02  0.00000000000E+00 0.  1.
         12    1    4    4    0    0  0.12068435370E+02 -0.18007621709E+01 -0.41963229334E+02  0.43701287084E+02  0.00000000000E+00 0. -1.
         -5    1    5    5    0  502  0.70579316812E+02  0.93675580975E+02  0.84680045448E+02  0.14473891850E+03  0.47000000000E+01 0.  1.
         11    1    6    6    0    0 -0.29734295881E+02  0.15110687638E+02  0.14564489263E+02  0.36394856504E+02  0.00000000000E+00 0. -1.
        -12    1    6    6    0    0 -0.29716827883E+02  0.10109089713E+03  0.17995609553E+03  0.20853454309E+03  0.00000000000E+00 0.  1.
</event>
<event>
12    1  0.8358445E-002  0.2302163E+03  0.7818608E-02  0.1126662E+00
         21   -1    0    0  501  502  0.00000000000E+00  0.00000000000E+00  0.57366657267E+03  0.57366657267E+03  0.00000000000E+00 0. -1.
         21   -1    0    0  502  503 -0.00000000000E+00 -0.00000000000E+00 -0.10139672766E+03  0.10139672766E+03  0.00000000000E+00 0.  1.
         -6    2    1    2    0  503  0.11278047213E+03  0.10342067038E+03  0.13286631248E+03  0.26494832499E+03  0.17067187223E+03 0.  0.
        -24    2    3    3    0    0  0.37913600641E+01  0.24213831358E+02  0.84517721057E+02  0.12172812324E+03  0.84105925922E+02 0.  0.
          6    2    1    2  501    0 -0.11278047213E+03 -0.10342067038E+03  0.33940353254E+03  0.41011497534E+03  0.17200077077E+03 0.  0.
         24    2    5    5    0    0 -0.28608887654E+02 -0.56441195242E+02  0.71329779888E+02  0.12519822684E+03  0.81133109959E+02 0.  0.
          5    1    5    5  501    0 -0.84171584481E+02 -0.46979475135E+02  0.26807375265E+03  0.28491674850E+03  0.47000000000E+01 0. -1.
        -11    1    6    6    0    0 -0.94057716571E+01  0.17719192512E+02  0.35164437331E+02  0.40484268260E+02  0.00000000000E+00 0.  1.
         12    1    6    6    0    0 -0.19203115996E+02 -0.74160387754E+02  0.36165342557E+02  0.84713958579E+02  0.00000000000E+00 0. -1.
         -5    1    3    3    0  503  0.10898911207E+03  0.79206839019E+02  0.48348591420E+02  0.14322020175E+03  0.47000000000E+01 0.  1.
         11    1    4    4    0    0  0.15949151108E+02  0.52440110862E+02  0.40987952895E+02  0.68442332886E+02  0.00000000000E+00 0. -1.
        -12    1    4    4    0    0 -0.12157791044E+02 -0.28226279504E+02  0.43529768162E+02  0.53285790357E+02  0.00000000000E+00 0.  1.
</event>
<event>
12    1  0.8358445E-002  0.1778159E+03  0.7818608E-02  0.1170207E+00
         21   -1    0    0  501  502  0.00000000000E+00  0.00000000000E+00  0.48251807935E+03  0.48251807935E+03  0.00000000000E+00 0.  1.
         21   -1    0    0  502  503 -0.00000000000E+00 -0.00000000000E+00 -0.83432523494E+02  0.83432523494E+02  0.00000000000E+00 0.  1.
         -6    2    1    2    0  503  0.12439621992E+02  0.42519202154E+02  0.66485906961E+02  0.18880208403E+03  0.17106497117E+03 0.  0.
        -24    2    3    3    0    0  0.21331423724E+02  0.48501391175E+02  0.10272138042E+03  0.15072387161E+03  0.96739799952E+02 0.  0.
          6    2    1    2  501    0 -0.12439621992E+02 -0.42519202154E+02  0.33259964890E+03  0.37714851882E+03  0.17220874558E+03 0.  0.
         24    2    5    5    0    0 -0.83559650519E+01  0.30355675130E+02  0.12774462094E+03  0.15962818305E+03  0.90394576610E+02 0.  0.
          5    1    5    5  501    0 -0.40836569399E+01 -0.72874877285E+02  0.20485502796E+03  0.21752033577E+03  0.47000000000E+01 0. -1.
        -11    1    6    6    0    0  0.40863630850E+02  0.16556768131E+02  0.50977944001E+02  0.67399656318E+02  0.00000000000E+00 0.  1.
         12    1    6    6    0    0 -0.49219595902E+02  0.13798907000E+02  0.76766676936E+02  0.92228526731E+02  0.00000000000E+00 0. -1.
         -5    1    3    3    0  503 -0.88918017320E+01 -0.59821890210E+01 -0.36235473461E+02  0.38078212412E+02  0.47000000000E+01 0.  1.
         11    1    4    4    0    0  0.19598523025E+02  0.74539912840E+02  0.49925338408E+02  0.91830496711E+02  0.00000000000E+00 0. -1.
        -12    1    4    4    0    0  0.17329006985E+01 -0.26038521665E+02  0.52796042014E+02  0.58893374904E+02  0.00000000000E+00 0.  1.
</event>
<event>
12    1  0.8358445E-002  0.1737155E+03  0.7818608E-02  0.1174933E+00
         21   -1    0    0  503  502  0.00000000000E+00  0.00000000000E+00  0.18683824319E+02  0.18683824319E+02  0.00000000000E+00 0.  1.
         21   -1    0    0  501  503 -0.00000000000E+00 -0.00000000000E+00 -0.18956455571E+04  0.18956455571E+04  0.00000000000E+00 0.  1.
          6    2    1    2  501    0  0.11473969127E+02 -0.12396812173E+02 -0.13355640498E+04  0.13468141675E+04  0.17289227180E+03 0.  0.
         24    2    3    3    0    0  0.79998463830E+01  0.38249542272E+02 -0.11757924134E+04  0.11791055257E+04  0.79214999469E+02 0.  0.
         -6    2    1    2    0  502 -0.11473969127E+02  0.12396812173E+02 -0.54139768292E+03  0.56751521390E+03  0.16934206214E+03 0.  0.
        -24    2    5    5    0    0  0.19070821175E+02 -0.26555377724E+02 -0.48084996949E+03  0.48916744485E+03  0.83661291158E+02 0.  0.
          5    1    3    3  501    0  0.34741227435E+01 -0.50646354445E+02 -0.15977163639E+03  0.16770864183E+03  0.47000000000E+01 0. -1.
        -11    1    4    4    0    0 -0.28149366029E+02  0.12925096915E+02 -0.82015420180E+03  0.82073891078E+03  0.00000000000E+00 0.  1.
         12    1    4    4    0    0  0.36149212412E+02  0.25324445356E+02 -0.35563821164E+03  0.35836661490E+03  0.00000000000E+00 0. -1.
         -5    1    5    5    0  502 -0.30544790301E+02  0.38952189897E+02 -0.60547713436E+02  0.78347769047E+02  0.47000000000E+01 0.  1.
         13    1    6    6    0    0 -0.20368057022E+02  0.89827122161E+01 -0.29625456831E+03  0.29708974420E+03  0.00000000000E+00 0. -1.
        -14    1    6    6    0    0  0.39438878197E+02 -0.35538089940E+02 -0.18459540117E+03  0.19207770064E+03  0.00000000000E+00 0.  1.
</event>
<event>
12    1  0.8358445E-002  0.1878766E+03  0.7818608E-02  0.1160392E+00
         21   -1    0    0  503  502  0.00000000000E+00  0.00000000000E+00  0.15427040392E+04  0.15427040392E+04  0.00000000000E+00 0.  1.
         21   -1    0    0  501  503 -0.00000000000E+00 -0.00000000000E+00 -0.22993559641E+02  0.22993559641E+02  0.00000000000E+00 0.  1.
          6    2    1    2  501    0 -0.31894248017E+02  0.69044859416E+02  0.70476229780E+03  0.72937474717E+03  0.17179403292E+03 0.  0.
         24    2    3    3    0    0 -0.50802679174E+02  0.88542198684E+02  0.34255743642E+03  0.36612259423E+03  0.79243445183E+02 0.  0.
         -6    2    1    2    0  502  0.31894248017E+02 -0.69044859416E+02  0.81494818176E+03  0.83632285167E+03  0.17178747800E+03 0.  0.
        -24    2    5    5    0    0 -0.43446132470E+02 -0.65667484925E+02  0.47375513117E+03  0.48686274327E+03  0.79947617041E+02 0.  0.
          5    1    3    3  501    0  0.18908431157E+02 -0.19497339268E+02  0.36220486138E+03  0.36325215294E+03  0.47000000000E+01 0. -1.
        -13    1    4    4    0    0 -0.35591061682E+02  0.74016786210E+02  0.33307458019E+03  0.34305084795E+03  0.00000000000E+00 0.  1.
         14    1    4    4    0    0 -0.15211617491E+02  0.14525412474E+02  0.94828562288E+01  0.23071746282E+02  0.00000000000E+00 0. -1.
         -5    1    5    5    0  502  0.75340380487E+02 -0.33773744905E+01  0.34119305059E+03  0.34946010839E+03  0.47000000000E+01 0.  1.
         11    1    6    6    0    0 -0.26841770512E+02 -0.22729378202E+02  0.53077479625E+02  0.63673574746E+02  0.00000000000E+00 0. -1.
        -12    1    6    6    0    0 -0.16604361958E+02 -0.42938106723E+02  0.42067765155E+03  0.42318916853E+03  0.00000000000E+00 0.  1.
</event>
<event>
12    1  0.8358445E-002  0.2387961E+03  0.7818608E-02  0.1120751E+00
         21   -1    0    0  503  502  0.00000000000E+00  0.00000000000E+00  0.29086416236E+03  0.29086416236E+03  0.00000000000E+00 0.  1.
         21   -1    0    0  501  503 -0.00000000000E+00 -0.00000000000E+00 -0.20907400419E+03  0.20907400419E+03  0.00000000000E+00 0. -1.
          6    2    1    2  501    0  0.19757325952E+02 -0.16341714029E+03 -0.23189965640E+02  0.23991950078E+03  0.17299733720E+03 0.  0.
         24    2    3    3    0    0  0.35380628444E+02 -0.16760832348E+03  0.22490611167E+02  0.19123214416E+03  0.81972961398E+02 0.  0.
         -6    2    1    2    0  502 -0.19757325952E+02  0.16341714029E+03  0.10498012381E+03  0.26001866577E+03  0.17173632838E+03 0.  0.
        -24    2    5    5    0    0 -0.69640642532E+02  0.73297696019E+02  0.87597042544E+02  0.15545231831E+03  0.79182132266E+02 0.  0.
          5    1    3    3  501    0 -0.15623302492E+02  0.41911831899E+01 -0.45680576807E+02  0.48687356621E+02  0.47000000000E+01 0. -1.
        -11    1    4    4    0    0 -0.13847154546E+02 -0.82504323584E+02  0.37675102343E+02  0.91750315725E+02  0.00000000000E+00 0.  1.
         12    1    4    4    0    0  0.49227782990E+02 -0.85103999893E+02 -0.15184491176E+02  0.99481828432E+02  0.00000000000E+00 0. -1.
         -5    1    5    5    0  502  0.49883316580E+02  0.90119444269E+02  0.17383081268E+02  0.10456634747E+03  0.47000000000E+01 0.  1.
         11    1    6    6    0    0 -0.15901063368E+02 -0.12349821734E+02  0.37609668132E+02  0.42659688819E+02  0.00000000000E+00 0. -1.
        -12    1    6    6    0    0 -0.53739579163E+02  0.85647517753E+02  0.49987374412E+02  0.11279262949E+03  0.00000000000E+00 0.  1.
</event>
<event>
12    1  0.8358445E-002  0.2297010E+03  0.7818608E-02  0.1126925E+00
         21   -1    0    0  503  502  0.00000000000E+00  0.00000000000E+00  0.33139328339E+03  0.33139328339E+03  0.00000000000E+00 0. -1.
         21   -1    0    0  501  503 -0.00000000000E+00 -0.00000000000E+00 -0.25356661074E+03  0.25356661074E+03  0.00000000000E+00 0.  1.
          6    2    1    2  501    0  0.86404159934E+01  0.15227749157E+03 -0.13979743013E+03  0.26853802400E+03  0.17119070546E+03 0.  0.
         24    2    3    3    0    0 -0.23289553616E+02  0.10918866847E+03 -0.16040869994E+03  0.21089182657E+03  0.79245459614E+02 0.  0.
         -6    2    1    2    0  502 -0.86404159934E+01 -0.15227749157E+03  0.21762410278E+03  0.31642187013E+03  0.17175406418E+03 0.  0.
        -24    2    5    5    0    0 -0.14600411212E+01 -0.16284175378E+03  0.13131383432E+03  0.22904502044E+03  0.93266981356E+02 0.  0.
          5    1    3    3  501    0  0.31929969610E+02  0.43088823092E+02  0.20611269806E+02  0.57646197427E+02  0.47000000000E+01 0. -1.
        -13    1    4    4    0    0 -0.39902491915E+02  0.65742292393E+02 -0.51747026061E+02  0.92693109648E+02  0.00000000000E+00 0.  1.
         14    1    4    4    0    0  0.16612938299E+02  0.43446376082E+02 -0.10866167387E+03  0.11819871692E+03  0.00000000000E+00 0. -1.
         -5    1    5    5    0  502 -0.71803748722E+01  0.10564262218E+02  0.86310268460E+02  0.87376849686E+02  0.47000000000E+01 0.  1.
         11    1    6    6    0    0 -0.26143081604E+02 -0.83848788422E+02  0.11498248020E+03  0.14468949785E+03  0.00000000000E+00 0. -1.
        -12    1    6    6    0    0  0.24683040483E+02 -0.78992965363E+02  0.16331354115E+02  0.84355522590E+02  0.00000000000E+00 0.  1.
</event>
<event>
12    1  0.8358445E-002  0.1809886E+03  0.7818608E-02  0.1168421E+00
         21   -1    0    0  503  502  0.00000000000E+00  0.00000000000E+00  0.14231379500E+03  0.14231379500E+03  0.00000000000E+00 0.  1.
         21   -1    0    0  501  503 -0.00000000000E+00 -0.00000000000E+00 -0.31333321169E+03  0.31333321169E+03  0.00000000000E+00 0.  1.
          6    2    1    2  501    0  0.39833308310E+02 -0.41280088572E+02 -0.20734396967E+03  0.27104924207E+03  0.16488005248E+03 0.  0.
         24    2    3    3    0    0 -0.77425424177E+01 -0.20941697218E+01 -0.19258236825E+03  0.20749617224E+03  0.76826820996E+02 0.  0.
         -6    2    1    2    0  502 -0.39833308310E+02  0.41280088572E+02  0.36324552976E+02  0.18459776462E+03  0.17165699342E+03 0.  0.
        -24    2    5    5    0    0 -0.51651072929E+02 -0.35443236062E+02  0.49025906455E+01  0.10071953252E+03  0.78716786766E+02 0.  0.
          5    1    3    3  501    0  0.47575850728E+02 -0.39185918850E+02 -0.14761601424E+02  0.63553069833E+02  0.47000000000E+01 0. -1.
        -11    1    4    4    0    0  0.29616899492E+02  0.16619717487E+02 -0.66496084429E+02  0.74666625672E+02  0.00000000000E+00 0.  1.
         12    1    4    4    0    0 -0.37359441909E+02 -0.18713887209E+02 -0.12608628382E+03  0.13282954657E+03  0.00000000000E+00 0. -1.
         -5    1    5    5    0  502  0.11817764618E+02  0.76723324634E+02  0.31421962331E+02  0.83878232100E+02  0.47000000000E+01 0.  1.
         11    1    6    6    0    0 -0.55723492263E+02 -0.43158078843E+02  0.28145064190E+02  0.75893820550E+02  0.00000000000E+00 0. -1.
        -12    1    6    6    0    0  0.40724193341E+01  0.77148427806E+01 -0.23242473544E+02  0.24825711970E+02  0.00000000000E+00 0.  1.
</event>
<event>
12    1  0.8358445E-002  0.2293226E+03  0.7818608E-02  0.1127270E+00
         21   -1    0    0  501  502  0.00000000000E+00  0.00000000000E+00  0.73553155875E+02  0.73553155875E+02  0.00000000000E+00 0.  1.
         21   -1    0    0  502  503 -0.00000000000E+00 -0.00000000000E+00 -0.83897586713E+03  0.83897586713E+03  0.00000000000E+00 0. -1.
         -6    2    1    2    0  503 -0.11402452596E+03  0.10258417602E+03 -0.20481042691E+03  0.30682695823E+03  0.16932325782E+03 0.  0.
        -24    2    3    3    0    0 -0.93749995808E+02  0.32385066978E+02 -0.52597240455E+02  0.13791894891E+03  0.80108129975E+02 0.  0.
          6    2    1    2  501    0  0.11402452596E+03 -0.10258417602E+03 -0.56061228435E+03  0.60570206477E+03  0.17048094384E+03 0.  0.
         24    2    5    5    0    0  0.19184395941E+02 -0.93145356806E+02 -0.22215605229E+03  0.25405102668E+03  0.78386950738E+02 0.  0.
          5    1    5    5  501    0  0.94840130021E+02 -0.94388192185E+01 -0.33845623206E+03  0.35165103809E+03  0.47000000000E+01 0. -1.
        -13    1    6    6    0    0 -0.24669376363E+02 -0.39631674708E+02 -0.49460277686E+02  0.68011519899E+02  0.00000000000E+00 0.  1.
         14    1    6    6    0    0  0.43853772304E+02 -0.53513682098E+02 -0.17269577460E+03  0.18603950678E+03  0.00000000000E+00 0. -1.
         -5    1    3    3    0  503 -0.20274530154E+02  0.70199109047E+02 -0.15221318645E+03  0.16890800932E+03  0.47000000000E+01 0.  1.
         11    1    4    4    0    0 -0.44167776477E+01 -0.19969273893E+02 -0.21799933140E+02  0.29891753202E+02  0.00000000000E+00 0. -1.
        -12    1    4    4    0    0 -0.89333218160E+02  0.52354340871E+02 -0.30797307315E+02  0.10802719571E+03  0.00000000000E+00 0.  1.
</event>
<event>
12    1  0.8358445E-002  0.1728286E+03  0.7818608E-02  0.1175063E+00
         21   -1    0    0  503  502  0.00000000000E+00  0.00000000000E+00  0.20513701052E+04  0.20513701052E+04  0.00000000000E+00 0.  1.
         21   -1    0    0  501  503 -0.00000000000E+00 -0.00000000000E+00 -0.14685524089E+02  0.14685524089E+02  0.00000000000E+00 0.  1.
          6    2    1    2  501    0 -0.11878994191E+02  0.92346486235E+01  0.90919264420E+03  0.92547339061E+03  0.17217242295E+03 0.  0.
         24    2    3    3    0    0 -0.41072118167E+01 -0.10257937669E+02  0.19816097322E+03  0.21411659641E+03  0.80349555543E+02 0.  0.
         -6    2    1    2    0  502  0.11878994191E+02 -0.92346486235E+01  0.11274919369E+04  0.11405822386E+04  0.17164902024E+03 0.  0.
        -24    2    5    5    0    0 -0.39178440927E+02 -0.57560837955E+02  0.77916100312E+03  0.78519679766E+03  0.67778624674E+02 0.  0.
          5    1    3    3  501    0 -0.77717823739E+01  0.19492586293E+02  0.71103167097E+03  0.71135679420E+03  0.47000000000E+01 0. -1.
        -13    1    4    4    0    0 -0.32459293191E+02 -0.18145984271E+01  0.17064895961E+03  0.17371806440E+03  0.00000000000E+00 0.  1.
         14    1    4    4    0    0  0.28352081375E+02 -0.84433392421E+01  0.27512013612E+02  0.40398532013E+02  0.00000000000E+00 0. -1.
         -5    1    5    5    0  502  0.51057435118E+02  0.48326189332E+02  0.34833093376E+03  0.35538544099E+03  0.47000000000E+01 0.  1.
         11    1    6    6    0    0 -0.13260816032E+02 -0.59429124382E+02  0.67883066217E+03  0.68155611506E+03  0.00000000000E+00 0. -1.
        -12    1    6    6    0    0 -0.25917624894E+02  0.18682864271E+01  0.10033034095E+03  0.10364068260E+03  0.00000000000E+00 0.  1.
</event>
<event>
12    1  0.8358445E-002  0.2211114E+03  0.7818608E-02  0.1133060E+00
         21   -1    0    0  501  502  0.00000000000E+00  0.00000000000E+00  0.74982484665E+02  0.74982484665E+02  0.00000000000E+00 0.  1.
         21   -1    0    0  502  503 -0.00000000000E+00 -0.00000000000E+00 -0.11830720885E+04  0.11830720885E+04  0.00000000000E+00 0.  1.
         -6    2    1    2    0  503 -0.90148427225E+02 -0.10696094350E+03 -0.97548760341E+03  0.10002299468E+04  0.17122061679E+03 0.  0.
        -24    2    3    3    0    0 -0.11742669480E+03 -0.10565432752E+03 -0.93225531256E+03  0.94887887959E+03  0.79493991915E+02 0.  0.
          6    2    1    2  501    0  0.90148427225E+02  0.10696094350E+03 -0.13260200040E+03  0.25782462639E+03  0.17123920432E+03 0.  0.
         24    2    5    5    0    0  0.64343854200E+02  0.12773944655E+03 -0.14830587613E+03  0.22086080772E+03  0.79544740327E+02 0.  0.
          5    1    5    5  501    0  0.25804573025E+02 -0.20778503053E+02  0.15703875721E+02  0.36963818672E+02  0.47000000000E+01 0. -1.
        -13    1    6    6    0    0  0.51789126225E+02  0.57183113030E+02 -0.12234554980E+03  0.14463905270E+03  0.00000000000E+00 0.  1.
         14    1    6    6    0    0  0.12554727975E+02  0.70556333523E+02 -0.25960326326E+02  0.76221755015E+02  0.00000000000E+00 0. -1.
         -5    1    3    3    0  503  0.27278267579E+02 -0.13066159788E+01 -0.43232290853E+02  0.51351067173E+02  0.47000000000E+01 0.  1.
         13    1    4    4    0    0 -0.35982214176E+02 -0.68515823878E+02 -0.27955401067E+03  0.29006823808E+03  0.00000000000E+00 0. -1.
        -14    1    4    4    0    0 -0.81444480628E+02 -0.37138503643E+02 -0.65270130189E+03  0.65881064151E+03  0.00000000000E+00 0.  1.
</event>
<event>
12    1  0.8358445E-002  0.2404159E+03  0.7818608E-02  0.1119588E+00
         21   -1    0    0  501  502  0.00000000000E+00  0.00000000000E+00  0.35582157164E+03  0.35582157164E+03  0.00000000000E+00 0. -1.
         21   -1    0    0  502  503 -0.00000000000E+00 -0.00000000000E+00 -0.32145512610E+03  0.32145512610E+03  0.00000000000E+00 0.  1.
         -6    2    1    2    0  503  0.15624263507E+03 -0.60359355938E+02 -0.22121886091E+03  0.32638686988E+03  0.17185922012E+03 0.  0.
        -24    2    3    3    0    0  0.16473604014E+03 -0.38358761927E+02 -0.23326718488E+03  0.29949047278E+03  0.81679900870E+02 0.  0.
          6    2    1    2  501    0 -0.15624263507E+03  0.60359355938E+02  0.25558530645E+03  0.35088982786E+03  0.17246683611E+03 0.  0.
         24    2    5    5    0    0 -0.11137051407E+03 -0.28030786191E+02  0.13194488562E+03  0.19234845114E+03  0.79995983869E+02 0.  0.
          5    1    5    5  501    0 -0.44872120998E+02  0.88390142129E+02  0.12364042083E+03  0.15854137672E+03  0.47000000000E+01 0. -1.
        -11    1    6    6    0    0 -0.44900532657E+02 -0.51833445893E+02  0.54891640945E+02  0.87839946446E+02  0.00000000000E+00 0.  1.
         12    1    6    6    0    0 -0.66469981417E+02  0.23802659702E+02  0.77053244670E+02  0.10450850469E+03  0.00000000000E+00 0. -1.
         -5    1    3    3    0  503 -0.84934050688E+01 -0.22000594011E+02  0.12048323967E+02  0.26896397099E+02  0.47000000000E+01 0.  1.
         11    1    4    4    0    0  0.67434197115E+02  0.14883154439E+02 -0.13351411158E+03  0.15031599122E+03  0.00000000000E+00 0. -1.
        -12    1    4    4    0    0  0.97301843025E+02 -0.53241916366E+02 -0.99753073298E+02  0.14917448155E+03  0.00000000000E+00 0.  1.
</event>
<event>
12    1  0.8358445E-002  0.4263957E+03  0.7818608E-02  0.1035074E+00
         21   -1    0    0  503  502  0.00000000000E+00  0.00000000000E+00  0.33043295614E+03  0.33043295614E+03  0.00000000000E+00 0. -1.
         21   -1    0    0  501  503 -0.00000000000E+00 -0.00000000000E+00 -0.89952436434E+03  0.89952436434E+03  0.00000000000E+00 0.  1.
          6    2    1    2  501    0  0.38265836984E+03 -0.74687451361E+02 -0.66820642804E+03  0.79219361697E+03  0.17048534512E+03 0.  0.
         24    2    3    3    0    0  0.25199231212E+03 -0.11386025835E+03 -0.42277490134E+03  0.51136119053E+03  0.79292913757E+02 0.  0.
         -6    2    1    2    0  502 -0.38265836984E+03  0.74687451361E+02  0.99115019840E+02  0.43776370350E+03  0.17264886199E+03 0.  0.
        -24    2    5    5    0    0 -0.25878546275E+03  0.65798284459E+02  0.12698977705E+03  0.31039570717E+03  0.94444489460E+02 0.  0.
          5    1    3    3  501    0  0.13066605772E+03  0.39172806991E+02 -0.24543152670E+03  0.28083242645E+03  0.47000000000E+01 0. -1.
        -11    1    4    4    0    0  0.78268919462E+02 -0.14736144798E+02 -0.70985504148E+02  0.10668701663E+03  0.00000000000E+00 0.  1.
         12    1    4    4    0    0  0.17372339266E+03 -0.99124113554E+02 -0.35178939719E+03  0.40467417390E+03  0.00000000000E+00 0. -1.
         -5    1    5    5    0  502 -0.12387290709E+03  0.88891669024E+01 -0.27874757210E+02  0.12736799633E+03  0.47000000000E+01 0.  1.
         11    1    6    6    0    0 -0.11173709775E+03 -0.10511674606E+02  0.22312512252E+02  0.11442693092E+03  0.00000000000E+00 0. -1.
        -12    1    6    6    0    0 -0.14704836500E+03  0.76309959065E+02  0.10467726480E+03  0.19596877625E+03  0.00000000000E+00 0.  1.
</event>
<event>
12    1  0.8358445E-002  0.1930017E+03  0.7818608E-02  0.1157764E+00
         21   -1    0    0  503  502  0.00000000000E+00  0.00000000000E+00  0.24070510461E+03  0.24070510461E+03  0.00000000000E+00 0. -1.
         21   -1    0    0  501  503 -0.00000000000E+00 -0.00000000000E+00 -0.32149480426E+03  0.32149480426E+03  0.00000000000E+00 0.  1.
          6    2    1    2  501    0  0.54067897418E+02 -0.42625882961E+02 -0.24654812832E+03  0.30778785306E+03  0.17090078843E+03 0.  0.
         24    2    3    3    0    0 -0.38391915586E+02 -0.13325584246E+02 -0.12009026658E+03  0.14834819262E+03  0.77032485026E+02 0.  0.
         -6    2    1    2    0  502 -0.54067897418E+02  0.42625882961E+02  0.16575842867E+03  0.25441205580E+03  0.18030344986E+03 0.  0.
        -24    2    5    5    0    0  0.16199658735E+02 -0.29809314058E+02  0.11133602585E+03  0.13965895064E+03  0.77187354491E+02 0.  0.
          5    1    3    3  501    0  0.92459813004E+02 -0.29300298715E+02 -0.12645786175E+03  0.15943966044E+03  0.47000000000E+01 0. -1.
        -11    1    4    4    0    0  0.22737989971E+02 -0.96980295682E+01 -0.24349545357E+02  0.34698246707E+02  0.00000000000E+00 0.  1.
         12    1    4    4    0    0 -0.61129905557E+02 -0.36275546780E+01 -0.95740721219E+02  0.11364994591E+03  0.00000000000E+00 0. -1.
         -5    1    5    5    0  502 -0.70267556154E+02  0.72435197019E+02  0.54422402815E+02  0.11475310516E+03  0.47000000000E+01 0.  1.
         11    1    6    6    0    0  0.38732026405E+02  0.57467464727E+01  0.72440546589E+02  0.82345781643E+02  0.00000000000E+00 0. -1.
        -12    1    6    6    0    0 -0.22532367669E+02 -0.35556060530E+02  0.38895479266E+02  0.57313168998E+02  0.00000000000E+00 0.  1.
</event>
<event>
12    1  0.8358445E-002  0.2230268E+03  0.7818608E-02  0.1132341E+00
         21   -1    0    0  503  502  0.00000000000E+00  0.00000000000E+00  0.88347307882E+03  0.88347307882E+03  0.00000000000E+00 0.  1.
         21   -1    0    0  501  503 -0.00000000000E+00 -0.00000000000E+00 -0.64719339171E+02  0.64719339171E+02  0.00000000000E+00 0. -1.
          6    2    1    2  501    0  0.12535505120E+03  0.64337768268E+02  0.23203258484E+03  0.32183861461E+03  0.17288069915E+03 0.  0.
         24    2    3    3    0    0  0.79155720328E+02  0.71786483181E+02  0.23919052035E+03  0.27426564363E+03  0.81182578334E+02 0.  0.
         -6    2    1    2    0  502 -0.12535505120E+03 -0.64337768268E+02  0.58672115480E+03  0.62635380338E+03  0.16800040543E+03 0.  0.
        -24    2    5    5    0    0 -0.39739001242E+02  0.24611609075E+02  0.34392943120E+03  0.35393498834E+03  0.69264729846E+02 0.  0.
          5    1    3    3  501    0  0.46199330869E+02 -0.74487149129E+01 -0.71579355083E+01  0.47572970974E+02  0.47000000000E+01 0. -1.
        -13    1    4    4    0    0  0.74247428398E+02  0.29831747012E+02  0.95999238129E+02  0.12497386717E+03  0.00000000000E+00 0.  1.
         14    1    4    4    0    0  0.49082919302E+01  0.41954736169E+02  0.14319128222E+03  0.14929177647E+03  0.00000000000E+00 0. -1.
         -5    1    5    5    0  502 -0.85616049955E+02 -0.88949377343E+02  0.24279172360E+03  0.27241881504E+03  0.47000000000E+01 0.  1.
         13    1    6    6    0    0  0.11652695995E+02  0.73302845613E+00  0.18203744045E+03  0.18241149190E+03  0.00000000000E+00 0. -1.
        -14    1    6    6    0    0 -0.51391697237E+02  0.23878580618E+02  0.16189199076E+03  0.17152349643E+03  0.00000000000E+00 0.  1.
</event>
<event>
12    1  0.8358445E-002  0.2523915E+03  0.7818608E-02  0.1111912E+00
         21   -1    0    0  503  502  0.00000000000E+00  0.00000000000E+00  0.55189682032E+03  0.55189682032E+03  0.00000000000E+00 0.  1.
         21   -1    0    0  501  503 -0.00000000000E+00 -0.00000000000E+00 -0.15198119659E+03  0.15198119659E+03  0.00000000000E+00 0. -1.
          6    2    1    2  501    0 -0.65158673458E+02  0.17194551613E+03  0.26803412319E+02  0.25381070294E+03  0.17288879886E+03 0.  0.
         24    2    3    3    0    0 -0.80452318290E+02  0.86862493728E+02 -0.35264243249E+02  0.14728605724E+03  0.80199423135E+02 0.  0.
         -6    2    1    2    0  502  0.65158673458E+02 -0.17194551613E+03  0.37311221141E+03  0.45006731396E+03  0.17186317682E+03 0.  0.
        -24    2    5    5    0    0  0.47466618358E+02 -0.14280933901E+03  0.15834403508E+03  0.23256010674E+03  0.79773320302E+02 0.  0.
          5    1    3    3  501    0  0.15293644832E+02  0.85083022403E+02  0.62067655568E+02  0.10652464570E+03  0.47000000000E+01 0. -1.
        -11    1    4    4    0    0 -0.74288759685E+02  0.24034174115E+02 -0.78928073333E+01  0.78477753208E+02  0.00000000000E+00 0.  1.
         12    1    4    4    0    0 -0.61635586055E+01  0.62828319613E+02 -0.27371435916E+02  0.68808304035E+02  0.00000000000E+00 0. -1.
         -5    1    5    5    0  502  0.17692055100E+02 -0.29136177121E+02  0.21476817633E+03  0.21750720723E+03  0.47000000000E+01 0.  1.
         13    1    6    6    0    0 -0.12658623764E+02 -0.72054353206E+02  0.96093409320E+02  0.12077257092E+03  0.00000000000E+00 0. -1.
        -14    1    6    6    0    0  0.60125242121E+02 -0.70754985803E+02  0.62250625762E+02  0.11178753582E+03  0.00000000000E+00 0.  1.
</event>
<event>
12    1  0.8358445E-002  0.2010491E+03  0.7818608E-02  0.1148944E+00
         21   -1    0    0  503  502  0.00000000000E+00  0.00000000000E+00  0.10793314468E+03  0.10793314468E+03  0.00000000000E+00 0. -1.
         21   -1    0    0  501  503 -0.00000000000E+00 -0.00000000000E+00 -0.38958525914E+03  0.38958525914E+03  0.00000000000E+00 0.  1.
          6    2    1    2  501    0  0.25280353562E+01  0.10325845801E+03 -0.19115524188E+03  0.27741857326E+03  0.17248779139E+03 0.  0.
         24    2    3    3    0    0  0.51328516345E+02  0.52325517420E+02 -0.17398097775E+03  0.20466765072E+03  0.79037271398E+02 0.  0.
         -6    2    1    2    0  502 -0.25280353562E+01 -0.10325845801E+03 -0.90496872575E+02  0.22009983056E+03  0.17200450969E+03 0.  0.
        -24    2    5    5    0    0 -0.19766259139E+02 -0.13755308587E+03 -0.60671123671E+02  0.17126395075E+03  0.79616575829E+02 0.  0.
          5    1    3    3  501    0 -0.48800480988E+02  0.50932940591E+02 -0.17174264134E+02  0.72750922541E+02  0.47000000000E+01 0. -1.
        -13    1    4    4    0    0  0.39107639126E+02 -0.11071690710E+02 -0.46430392403E+02  0.61707139878E+02  0.00000000000E+00 0.  1.
         14    1    4    4    0    0  0.12220877219E+02  0.63397208130E+02 -0.12755058535E+03  0.14296051084E+03  0.00000000000E+00 0. -1.
         -5    1    5    5    0  502  0.17238223783E+02  0.34294627856E+02 -0.29825748904E+02  0.48835879809E+02  0.47000000000E+01 0.  1.
         13    1    6    6    0    0  0.20640864797E+02 -0.43159436471E+02  0.69144942397E+01  0.48338312823E+02  0.00000000000E+00 0. -1.
        -14    1    6    6    0    0 -0.40407123935E+02 -0.94393649397E+02 -0.67585617911E+02  0.12292563793E+03  0.00000000000E+00 0.  1.
</event>
<event>
12    1  0.8358445E-002  0.2957193E+03  0.7818608E-02  0.1087539E+00
         21   -1    0    0  503  502  0.00000000000E+00  0.00000000000E+00  0.27627526191E+03  0.27627526191E+03  0.00000000000E+00 0. -1.
         21   -1    0    0  501  503 -0.00000000000E+00 -0.00000000000E+00 -0.32542761215E+03  0.32542761215E+03  0.00000000000E+00 0.  1.
          6    2    1    2  501    0 -0.21936570257E+03  0.97585844497E+02  0.28273704450E+02  0.29706788552E+03  0.17264303558E+03 0.  0.
         24    2    3    3    0    0 -0.20336862605E+03  0.12019187481E+03 -0.99434006898E+01  0.24963818819E+03  0.80096622602E+02 0.  0.
         -6    2    1    2    0  502  0.21936570257E+03 -0.97585844497E+02 -0.77426054693E+02  0.30463498854E+03  0.17077287193E+03 0.  0.
        -24    2    5    5    0    0  0.19634741464E+03 -0.73724071028E+02 -0.47695863912E+01  0.22463324982E+03  0.80310659849E+02 0.  0.
          5    1    3    3  501    0 -0.15997076518E+02 -0.22606030313E+02  0.38217105140E+02  0.47429697331E+02  0.47000000000E+01 0. -1.
        -11    1    4    4    0    0 -0.18722818955E+02  0.27747300467E+02 -0.26195578437E+02  0.42504881632E+02  0.00000000000E+00 0.  1.
         12    1    4    4    0    0 -0.18464580709E+03  0.92444574342E+02  0.16252177747E+02  0.20713330655E+03  0.00000000000E+00 0. -1.
         -5    1    5    5    0  502  0.23018287926E+02 -0.23861773468E+02 -0.72656468302E+02  0.80001738720E+02  0.47000000000E+01 0.  1.
         13    1    6    6    0    0  0.24333777411E+02 -0.41048833511E+01  0.26764403142E+02  0.36404890687E+02  0.00000000000E+00 0. -1.
        -14    1    6    6    0    0  0.17201363723E+03 -0.69619187677E+02 -0.31533989533E+02  0.18822835913E+03  0.00000000000E+00 0.  1.
</event>
<event>
12    1  0.8358445E-002  0.1830513E+03  0.7818608E-02  0.1165061E+00
         21   -1    0    0  503  502  0.00000000000E+00  0.00000000000E+00  0.25978249901E+03  0.25978249901E+03  0.00000000000E+00 0.  1.
         21   -1    0    0  501  503 -0.00000000000E+00 -0.00000000000E+00 -0.12971273524E+03  0.12971273524E+03  0.00000000000E+00 0.  1.
          6    2    1    2  501    0  0.43612974353E+02 -0.41129935897E+02  0.84083039584E+02  0.20075581071E+03  0.17216031723E+03 0.  0.
         24    2    3    3    0    0  0.67864649868E+02 -0.59187027552E+02  0.10636144714E+02  0.12118987145E+03  0.80406109440E+02 0.  0.
         -6    2    1    2    0  502 -0.43612974353E+02  0.41129935897E+02  0.45986724187E+02  0.18873942354E+03  0.17295672302E+03 0.  0.
        -24    2    5    5    0    0  0.12247810038E+02  0.49608166077E+02  0.78759897175E+02  0.12325294793E+03  0.79857302596E+02 0.  0.
          5    1    3    3  501    0 -0.24251675516E+02  0.18057091655E+02  0.73446894870E+02  0.79565939260E+02  0.47000000000E+01 0. -1.
        -11    1    4    4    0    0  0.53180125597E+02 -0.46435757272E+01  0.30296574059E+02  0.61380542143E+02  0.00000000000E+00 0.  1.
         12    1    4    4    0    0  0.14684524272E+02 -0.54543451825E+02 -0.19660429345E+02  0.59809329307E+02  0.00000000000E+00 0. -1.
         -5    1    5    5    0  502 -0.55860784390E+02 -0.84782301793E+01 -0.32773172988E+02  0.65486475607E+02  0.47000000000E+01 0.  1.
         11    1    6    6    0    0 -0.19906965248E+02  0.18314651572E+02  0.73203410479E+02  0.78041354635E+02  0.00000000000E+00 0. -1.
        -12    1    6    6    0    0  0.32154775286E+02  0.31293514505E+02  0.55564866965E+01  0.45211593294E+02  0.00000000000E+00 0.  1.
</event>
<event>
12    1  0.8358445E-002  0.1832101E+03  0.7818608E-02  0.1165052E+00
         21   -1    0    0  501  502  0.00000000000E+00  0.00000000000E+00  0.55272130513E+03  0.55272130513E+03  0.00000000000E+00 0.  1.
         21   -1    0    0  502  503 -0.00000000000E+00 -0.00000000000E+00 -0.40316592704E+03  0.40316592704E+03  0.00000000000E+00 0. -1.
         -6    2    1    2    0  503 -0.53550013433E+02 -0.28228288696E+02 -0.36602928668E+03  0.40871863186E+03  0.17149064434E+03 0.  0.
        -24    2    3    3    0    0 -0.31867190824E+02 -0.72615748109E+02 -0.32648641366E+03  0.34526691670E+03  0.79544331912E+02 0.  0.
          6    2    1    2  501    0  0.53550013433E+02  0.28228288696E+02  0.51558466477E+03  0.54716860031E+03  0.17292047420E+03 0.  0.
         24    2    5    5    0    0  0.73742006739E+02  0.69640516017E+02  0.30287163755E+03  0.32947245630E+03  0.80828123828E+02 0.  0.
          5    1    5    5  501    0 -0.20191993307E+02 -0.41412227321E+02  0.21271302722E+03  0.21769614401E+03  0.47000000000E+01 0. -1.
        -13    1    6    6    0    0  0.47287568699E+02 -0.75754976641E+01  0.12054750714E+03  0.12971200328E+03  0.00000000000E+00 0.  1.
         14    1    6    6    0    0  0.26454438041E+02  0.77216013681E+02  0.18232413041E+03  0.19976045302E+03  0.00000000000E+00 0. -1.
         -5    1    3    3    0  503 -0.21682822608E+02  0.44387459413E+02 -0.39542873028E+02  0.63451715160E+02  0.47000000000E+01 0.  1.
         13    1    4    4    0    0 -0.57264769320E+02 -0.39740441104E+02 -0.18072374447E+03  0.19369984068E+03  0.00000000000E+00 0. -1.
        -14    1    4    4    0    0  0.25397578495E+02 -0.32875307005E+02 -0.14576266919E+03  0.15156707602E+03  0.00000000000E+00 0.  1.
</event>
<event>
12    1  0.8358445E-002  0.2327694E+03  0.7818608E-02  0.1125464E+00
         21   -1    0    0  501  502  0.00000000000E+00  0.00000000000E+00  0.13470206585E+03  0.13470206585E+03  0.00000000000E+00 0.  1.
         21   -1    0    0  502  503 -0.00000000000E+00 -0.00000000000E+00 -0.42897977685E+03  0.42897977685E+03  0.00000000000E+00 0.  1.
         -6    2    1    2    0  503  0.14052397829E+03 -0.52198749845E+02 -0.22798220243E+03  0.32581817805E+03  0.17807274515E+03 0.  0.
        -24    2    3    3    0    0  0.74105085748E+02  0.32896175897E+02 -0.68499720114E+02  0.13318025905E+03  0.80442822062E+02 0.  0.
          6    2    1    2  501    0 -0.14052397829E+03  0.52198749845E+02 -0.66295508571E+02  0.23786366465E+03  0.17237265021E+03 0.  0.
         24    2    5    5    0    0 -0.14780281030E+03 -0.63543286275E+00 -0.23000584091E+02  0.16900894263E+03  0.78669697560E+02 0.  0.
          5    1    5    5  501    0  0.72788320084E+01  0.52834182708E+02 -0.43294924480E+02  0.68854722014E+02  0.47000000000E+01 0. -1.
        -11    1    6    6    0    0 -0.11997975149E+03 -0.46435667118E+01 -0.49970617894E+02  0.13005293589E+03  0.00000000000E+00 0.  1.
         12    1    6    6    0    0 -0.27823058805E+02  0.40081338491E+01  0.26970033803E+02  0.38956006745E+02  0.00000000000E+00 0. -1.
         -5    1    3    3    0  503  0.66418892541E+02 -0.85094925742E+02 -0.15948248231E+03  0.19263791900E+03  0.47000000000E+01 0.  1.
         13    1    4    4    0    0  0.20623754940E+00 -0.17635109737E+02 -0.31927336057E+02  0.36474572198E+02  0.00000000000E+00 0. -1.
        -14    1    4    4    0    0  0.73898848199E+02  0.50531285634E+02 -0.36572384057E+02  0.96705686847E+02  0.00000000000E+00 0.  1.
</event>
<event>
12    1  0.8358445E-002  0.2203001E+03  0.7818608E-02  0.1133758E+00
         21   -1    0    0  503  502  0.00000000000E+00  0.00000000000E+00  0.90706877093E+03  0.90706877093E+03  0.00000000000E+00 0.  1.
         21   -1    0    0  501  503 -0.00000000000E+00 -0.00000000000E+00 -0.83720096100E+02  0.83720096100E+02  0.00000000000E+00 0.  1.
          6    2    1    2  501    0  0.13651947235E+03  0.78456242479E+01  0.11311358775E+03  0.24717200726E+03  0.17204707869E+03 0.  0.
         24    2    3    3    0    0  0.11014413562E+03  0.22138536668E+02  0.14724907207E+03  0.20148538972E+03  0.79323562874E+02 0.  0.
         -6    2    1    2    0  502 -0.13651947235E+03 -0.78456242479E+01  0.71023508708E+03  0.74361685977E+03  0.17272242204E+03 0.  0.
        -24    2    5    5    0    0 -0.57409316122E+02 -0.27642083453E+02  0.58614131349E+03  0.59505148273E+03  0.80403441193E+02 0.  0.
          5    1    3    3  501    0  0.26375336727E+02 -0.14292912420E+02 -0.34135484312E+02  0.45686617539E+02  0.47000000000E+01 0. -1.
        -13    1    4    4    0    0  0.59775613741E+02  0.24529254582E+02  0.25063425669E+02  0.69303561487E+02  0.00000000000E+00 0.  1.
         14    1    4    4    0    0  0.50368521881E+02 -0.23907179138E+01  0.12218564640E+03  0.13218182823E+03  0.00000000000E+00 0. -1.
         -5    1    5    5    0  502 -0.79110156228E+02  0.19796459205E+02  0.12409377358E+03  0.14856537705E+03  0.47000000000E+01 0.  1.
         13    1    6    6    0    0  0.66156648498E+01  0.21070486476E+02  0.11838099333E+03  0.12042338645E+03  0.00000000000E+00 0. -1.
        -14    1    6    6    0    0 -0.64024980972E+02 -0.48712569930E+02  0.46776032016E+03  0.47462809627E+03  0.00000000000E+00 0.  1.
</event>
<event>
12    1  0.8358445E-002  0.2227951E+03  0.7818608E-02  0.1132378E+00
         21   -1    0    0  501  502  0.00000000000E+00  0.00000000000E+00  0.24345930811E+03  0.24345930811E+03  0.00000000000E+00 0. -1.
         21   -1    0    0  502  503 -0.00000000000E+00 -0.00000000000E+00 -0.32315599040E+03  0.32315599040E+03  0.00000000000E+00 0. -1.
         -6    2    1    2    0  503 -0.16448446575E+02 -0.14015618229E+03 -0.21378109726E+03  0.30658400522E+03  0.16845500254E+03 0.  0.
        -24    2    3    3    0    0  0.51690222078E+01 -0.28036289039E+01 -0.87915120587E+02  0.11897437603E+03  0.79945322561E+02 0.  0.
          6    2    1    2  501    0  0.16448446575E+02  0.14015618229E+03  0.13408441497E+03  0.26003129329E+03  0.17240457165E+03 0.  0.
         24    2    5    5    0    0 -0.54168795629E+02  0.63441131483E+02  0.91295604936E+02  0.14722630146E+03  0.79885297638E+02 0.  0.
          5    1    5    5  501    0  0.70617242204E+02  0.76715050808E+02  0.42788810031E+02  0.11280499183E+03  0.47000000000E+01 0. -1.
        -11    1    6    6    0    0  0.47374121354E+01  0.44933516179E+00  0.52403637762E+02  0.52619257183E+02  0.00000000000E+00 0.  1.
         12    1    6    6    0    0 -0.58906207765E+02  0.62991796322E+02  0.38891967173E+02  0.94607044281E+02  0.00000000000E+00 0. -1.
         -5    1    3    3    0  503 -0.21617468782E+02 -0.13735255339E+03 -0.12586597667E+03  0.18760962918E+03  0.47000000000E+01 0.  1.
         13    1    4    4    0    0  0.14367011963E+02 -0.39483492426E+02 -0.40870026082E+02  0.58614983057E+02  0.00000000000E+00 0. -1.
        -14    1    4    4    0    0 -0.91979897553E+01  0.36679863522E+02 -0.47045094505E+02  0.60359392977E+02  0.00000000000E+00 0.  1.
</event>
<event>
12    1  0.8358445E-002  0.1922760E+03  0.7818608E-02  0.1156639E+00
         21   -1    0    0  503  502  0.00000000000E+00  0.00000000000E+00  0.12280314333E+03  0.12280314333E+03  0.00000000000E+00 0. -1.
         21   -1    0    0  501  503 -0.00000000000E+00 -0.00000000000E+00 -0.38120654695E+03  0.38120654695E+03  0.00000000000E+00 0. -1.
          6    2    1    2  501    0  0.16489232223E+02 -0.82132683547E+02 -0.24609754853E+03  0.31230444580E+03  0.17306759080E+03 0.  0.
         24    2    3    3    0    0 -0.32723776215E+02 -0.21282009911E+02 -0.20568633241E+03  0.22410081169E+03  0.79940834265E+02 0.  0.
         -6    2    1    2    0  502 -0.16489232223E+02  0.82132683547E+02 -0.12305855092E+02  0.19170524448E+03  0.17199358769E+03 0.  0.
        -24    2    5    5    0    0 -0.49263623682E+02  0.84028389583E+02 -0.55496535613E+02  0.13725086614E+03  0.79184972794E+02 0.  0.
          5    1    3    3  501    0  0.49213008439E+02 -0.60850673636E+02 -0.40411216114E+02  0.88203634105E+02  0.47000000000E+01 0. -1.
        -13    1    4    4    0    0 -0.98049943358E+01 -0.14671255113E+02 -0.62532688302E+00  0.17657142301E+02  0.00000000000E+00 0.  1.
         14    1    4    4    0    0 -0.22918781880E+02 -0.66107547980E+01 -0.20506100553E+03  0.20644366939E+03  0.00000000000E+00 0. -1.
         -5    1    5    5    0  502  0.32774391459E+02 -0.18957060364E+01  0.43190680522E+02  0.54454378343E+02  0.47000000000E+01 0.  1.
         11    1    6    6    0    0 -0.52271991989E+02  0.88241072894E+02 -0.24000415612E+02  0.10533217952E+03  0.00000000000E+00 0. -1.
        -12    1    6    6    0    0  0.30083683074E+01 -0.42126833109E+01 -0.31496120001E+02  0.31918686622E+02  0.00000000000E+00 0.  1.
</event>
<event>
12    1  0.8358445E-002  0.2396483E+03  0.7818608E-02  0.1120098E+00
         21   -1    0    0  501  502  0.00000000000E+00  0.00000000000E+00  0.16609849208E+03  0.16609849208E+03  0.00000000000E+00 0.  1.
         21   -1    0    0  502  503 -0.00000000000E+00 -0.00000000000E+00 -0.44181967385E+03  0.44181967385E+03  0.00000000000E+00 0.  1.
         -6    2    1    2    0  503 -0.16571576733E+03 -0.12672423481E+01 -0.27994196150E+03  0.36823273227E+03  0.17252397475E+03 0.  0.
        -24    2    3    3    0    0 -0.14155038538E+03 -0.52247489354E+02 -0.15519558970E+03  0.23124113199E+03  0.81366321766E+02 0.  0.
          6    2    1    2  501    0  0.16571576733E+03  0.12672423481E+01  0.42207797295E+01  0.23968543366E+03  0.17311259538E+03 0.  0.
         24    2    5    5    0    0  0.15459921465E+03 -0.43156959983E+02 -0.30374729809E+02  0.18210048096E+03  0.80464405743E+02 0.  0.
          5    1    5    5  501    0  0.11116552684E+02  0.44424202332E+02  0.34595509539E+02  0.57584952693E+02  0.47000000000E+01 0. -1.
        -11    1    6    6    0    0  0.10449706690E+03 -0.20741743616E+02  0.19066346257E+02  0.10822838111E+03  0.00000000000E+00 0.  1.
         12    1    6    6    0    0  0.50102147750E+02 -0.22415216368E+02 -0.49441076066E+02  0.73872099852E+02  0.00000000000E+00 0. -1.
         -5    1    3    3    0  503 -0.24165381951E+02  0.50980247006E+02 -0.12474637180E+03  0.13699160027E+03  0.47000000000E+01 0.  1.
         13    1    4    4    0    0 -0.27213730534E+02 -0.39215104560E+02 -0.15361465262E+02  0.50143655333E+02  0.00000000000E+00 0. -1.
        -14    1    4    4    0    0 -0.11433665485E+03 -0.13032384795E+02 -0.13983412444E+03  0.18109747666E+03  0.00000000000E+00 0.  1.
</event>
<event>
12    1  0.8358445E-002  0.2145786E+03  0.7818608E-02  0.1138337E+00
         21   -1    0    0  503  502  0.00000000000E+00  0.00000000000E+00  0.25535051484E+03  0.25535051484E+03  0.00000000000E+00 0. -1.
         21   -1    0    0  501  503 -0.00000000000E+00 -0.00000000000E+00 -0.18066585432E+03  0.18066585432E+03  0.00000000000E+00 0.  1.
          6    2    1    2  501    0  0.24320562885E+02 -0.12247407166E+03  0.59558463975E+02  0.22269080404E+03  0.17450672069E+03 0.  0.
         24    2    3    3    0    0  0.58572579113E+01 -0.18546659397E+02 -0.27354701452E+02  0.85877833255E+02  0.79047052494E+02 0.  0.
         -6    2    1    2    0  502 -0.24320562885E+02  0.12247407166E+03  0.15126196552E+02  0.21332556512E+03  0.17230091962E+03 0.  0.
        -24    2    5    5    0    0 -0.27733272722E+02  0.15654963481E+03  0.20102939082E+02  0.17840209796E+03  0.78398072826E+02 0.  0.
          5    1    3    3  501    0  0.18463304973E+02 -0.10392741226E+03  0.86913165427E+02  0.13681297078E+03  0.47000000000E+01 0. -1.
        -11    1    4    4    0    0  0.39636347712E+02 -0.22583659815E+02 -0.67778417714E+01  0.46119419876E+02  0.00000000000E+00 0.  1.
         12    1    4    4    0    0 -0.33779089801E+02  0.40370004177E+01 -0.20576859681E+02  0.39758413380E+02  0.00000000000E+00 0. -1.
         -5    1    5    5    0  502  0.34127098372E+01 -0.34075563146E+02 -0.49767425300E+01  0.34923467159E+02  0.47000000000E+01 0.  1.
         13    1    6    6    0    0  0.21377751477E+02  0.20005217087E+02  0.15712294754E+02  0.33227897546E+02  0.00000000000E+00 0. -1.
        -14    1    6    6    0    0 -0.49111024199E+02  0.13654441772E+03  0.43906443282E+01  0.14517420041E+03  0.00000000000E+00 0.  1.
</event>
<event>
12    1  0.8358445E-002  0.2207740E+03  0.7818608E-02  0.1133545E+00
         21   -1    0    0  501  502  0.00000000000E+00  0.00000000000E+00  0.54757234233E+03  0.54757234233E+03  0.00000000000E+00 0. -1.
         21   -1    0    0  502  503 -0.00000000000E+00 -0.00000000000E+00 -0.93037159695E+02  0.93037159695E+02  0.00000000000E+00 0.  1.
         -6    2    1    2    0  503  0.13509072977E+03  0.23227737984E+02  0.15715683796E+03  0.27099709773E+03  0.17306681420E+03 0.  0.
        -24    2    3    3    0    0  0.15186801503E+03  0.36871101293E+02  0.81755953466E+02  0.19241591648E+03  0.76918638116E+02 0.  0.
          6    2    1    2  501    0 -0.13509072977E+03 -0.23227737984E+02  0.29737834468E+03  0.36961240430E+03  0.17143633351E+03 0.  0.
         24    2    5    5    0    0 -0.13539951340E+03  0.23415587079E+01  0.29891914015E+03  0.34356728323E+03  0.10172175103E+03 0.  0.
          5    1    5    5  501    0  0.30878363351E+00 -0.25569296692E+02 -0.15407954715E+01  0.26045121066E+02  0.47000000000E+01 0. -1.
        -11    1    6    6    0    0 -0.81179752124E+02 -0.38863702824E+01  0.67047979340E+02  0.10535980051E+03  0.00000000000E+00 0.  1.
         12    1    6    6    0    0 -0.54219761280E+02  0.62279289903E+01  0.23187116081E+03  0.23820748273E+03  0.00000000000E+00 0. -1.
         -5    1    3    3    0  503 -0.16777285261E+02 -0.13643363309E+02  0.75400884497E+02  0.78581181247E+02  0.47000000000E+01 0.  1.
         11    1    4    4    0    0  0.13291088520E+03  0.18477272719E+02  0.93456589542E+02  0.16352628884E+03  0.00000000000E+00 0. -1.
        -12    1    4    4    0    0  0.18957129827E+02  0.18393828573E+02 -0.11700636077E+02  0.28889627645E+02  0.00000000000E+00 0.  1.
</event>
<event>
12    1  0.8358445E-002  0.3087303E+03  0.7818608E-02  0.1080964E+00
         21   -1    0    0  503  502  0.00000000000E+00  0.00000000000E+00  0.88907837911E+03  0.88907837911E+03  0.00000000000E+00 0.  1.
         21   -1    0    0  501  503 -0.00000000000E+00 -0.00000000000E+00 -0.16695984692E+03  0.16695984692E+03  0.00000000000E+00 0.  1.
          6    2    1    2  501    0  0.11867971246E+03  0.22679030381E+03  0.45094702283E+02  0.31194436774E+03  0.17250229081E+03 0.  0.
         24    2    3    3    0    0  0.45542743185E+02  0.20249752619E+03  0.43625647505E+01  0.22464973819E+03  0.85843365072E+02 0.  0.
         -6    2    1    2    0  502 -0.11867971246E+03 -0.22679030381E+03  0.67702382991E+03  0.74409385829E+03  0.17261427413E+03 0.  0.
        -24    2    5    5    0    0 -0.13806530737E+03 -0.17169982258E+03  0.61750754665E+03  0.66057715108E+03  0.80645794558E+02 0.  0.
          5    1    3    3  501    0  0.73136969279E+02  0.24292777623E+02  0.40732137532E+02  0.87294629548E+02  0.47000000000E+01 0. -1.
        -11    1    4    4    0    0  0.66412899336E+02  0.12432309422E+03 -0.14113157323E+02  0.14165481341E+03  0.00000000000E+00 0.  1.
         12    1    4    4    0    0 -0.20870156150E+02  0.78174431973E+02  0.18475722074E+02  0.82994924774E+02  0.00000000000E+00 0. -1.
         -5    1    5    5    0  502  0.19385594902E+02 -0.55090481230E+02  0.59516283253E+02  0.83516707216E+02  0.47000000000E+01 0.  1.
         13    1    6    6    0    0 -0.11423065134E+02 -0.62946665885E+02  0.22802464053E+03  0.23682906462E+03  0.00000000000E+00 0. -1.
        -14    1    6    6    0    0 -0.12664224223E+03 -0.10875315670E+03  0.38948290613E+03  0.42374808645E+03  0.00000000000E+00 0.  1.
</event>
<event>
12    1  0.8358445E-002  0.1795363E+03  0.7818608E-02  0.1168515E+00
         21   -1    0    0  501  502  0.00000000000E+00  0.00000000000E+00  0.96634728962E+03  0.96634728962E+03  0.00000000000E+00 0. -1.
         21   -1    0    0  502  503 -0.00000000000E+00 -0.00000000000E+00 -0.36697528608E+02  0.36697528608E+02  0.00000000000E+00 0.  1.
         -6    2    1    2    0  503 -0.12825030883E+02 -0.45047095400E+02  0.62189564125E+03  0.64729240900E+03  0.17331921970E+03 0.  0.
        -24    2    3    3    0    0  0.18974860645E+02 -0.85069161466E+02  0.32491529035E+03  0.34590823938E+03  0.80534195223E+02 0.  0.
          6    2    1    2  501    0  0.12825030883E+02  0.45047095400E+02  0.30775411976E+03  0.35575240923E+03  0.17220178925E+03 0.  0.
         24    2    5    5    0    0  0.76185061828E+02  0.22188734369E+02  0.21037720948E+03  0.23725620319E+03  0.75732635664E+02 0.  0.
          5    1    5    5  501    0 -0.63360030945E+02  0.22858361031E+02  0.97376910278E+02  0.11849620604E+03  0.47000000000E+01 0. -1.
        -11    1    6    6    0    0 -0.95107123146E+01  0.17736954162E+02  0.19714985139E+02  0.28173282214E+02  0.00000000000E+00 0.  1.
         12    1    6    6    0    0  0.85695774142E+02  0.44517802072E+01  0.19066222434E+03  0.20908292097E+03  0.00000000000E+00 0. -1.
         -5    1    3    3    0  503 -0.31799891528E+02  0.40022066066E+02  0.29698035090E+03  0.30138416962E+03  0.47000000000E+01 0.  1.
         13    1    4    4    0    0 -0.14124625414E+02 -0.48489016633E+02  0.25729717941E+03  0.26220703329E+03  0.00000000000E+00 0. -1.
        -14    1    4    4    0    0  0.33099486058E+02 -0.36580144833E+02  0.67618110941E+02  0.83701206087E+02  0.00000000000E+00 0.  1.
</event>
<event>
12    1  0.8358445E-002  0.2085434E+03  0.7818608E-02  0.1142947E+00
         21   -1    0    0  503  502  0.00000000000E+00  0.00000000000E+00  0.26655178383E+02  0.26655178383E+02  0.00000000000E+00 0.  1.
         21   -1    0    0  501  503 -0.00000000000E+00 -0.00000000000E+00 -0.20773065826E+04  0.20773065826E+04  0.00000000000E+00 0. -1.
          6    2    1    2  501    0 -0.10009705351E+03 -0.63658998805E+02 -0.15151925623E+04  0.15293257778E+04  0.17016740441E+03 0.  0.
         24    2    3    3    0    0 -0.74953337377E+01 -0.49574314826E+02 -0.44644504470E+03  0.45647126613E+03  0.80864368812E+02 0.  0.
         -6    2    1    2    0  502  0.10009705351E+03  0.63658998805E+02 -0.53545884187E+03  0.57463598314E+03  0.17151808516E+03 0.  0.
        -24    2    5    5    0    0  0.55498978406E+02 -0.30621935663E+02 -0.21207738667E+03  0.23481906409E+03  0.78392189506E+02 0.  0.
          5    1    3    3  501    0 -0.92601719776E+02 -0.14084683979E+02 -0.10687475176E+04  0.10728545117E+04  0.47000000000E+01 0. -1.
        -11    1    4    4    0    0 -0.86192991903E+01 -0.68155869289E+02 -0.40815174507E+03  0.41389293524E+03  0.00000000000E+00 0.  1.
         12    1    4    4    0    0  0.11239654526E+01  0.18581554463E+02 -0.38293299631E+02  0.42578330889E+02  0.00000000000E+00 0. -1.
         -5    1    5    5    0  502  0.44598075108E+02  0.94280934468E+02 -0.32338145520E+03  0.33981691905E+03  0.47000000000E+01 0.  1.
         11    1    6    6    0    0  0.63892035927E+02 -0.72466087612E+01 -0.92275965341E+02  0.11247025995E+03  0.00000000000E+00 0. -1.
        -12    1    6    6    0    0 -0.83930575212E+01 -0.23375326902E+02 -0.11980142133E+03  0.12234880414E+03  0.00000000000E+00 0.  1.
</event>
<event>
12    1  0.8358445E-002  0.1856385E+03  0.7818608E-02  0.1162934E+00
         21   -1    0    0  501  502  0.00000000000E+00  0.00000000000E+00  0.93395413326E+03  0.93395413326E+03  0.00000000000E+00 0. -1.
         21   -1    0    0  502  503 -0.00000000000E+00 -0.00000000000E+00 -0.36567995409E+02  0.36567995409E+02  0.00000000000E+00 0. -1.
         -6    2    1    2    0  503  0.34217079127E+01  0.67764488782E+02  0.42915660401E+03  0.46758641302E+03  0.17279446995E+03 0.  0.
        -24    2    3    3    0    0 -0.23653410981E+01  0.91910327074E+02  0.42487287529E+03  0.44195534252E+03  0.79714876656E+02 0.  0.
          6    2    1    2  501    0 -0.34217079127E+01 -0.67764488782E+02  0.46822953384E+03  0.50293571565E+03  0.17059221464E+03 0.  0.
         24    2    5    5    0    0 -0.33259209038E+02 -0.91468027050E+02  0.23889612872E+03  0.27041037316E+03  0.81103850925E+02 0.  0.
          5    1    5    5  501    0  0.29837501125E+02  0.23703538268E+02  0.22933340511E+03  0.23252534249E+03  0.47000000000E+01 0. -1.
        -13    1    6    6    0    0 -0.59164448094E+02 -0.50258759677E+02  0.15692058391E+03  0.17507268347E+03  0.00000000000E+00 0.  1.
         14    1    6    6    0    0  0.25905239056E+02 -0.41209267373E+02  0.81975544818E+02  0.95337689694E+02  0.00000000000E+00 0. -1.
         -5    1    3    3    0  503  0.57870490108E+01 -0.24145838292E+02  0.42837287175E+01  0.25631070496E+02  0.47000000000E+01 0.  1.
         11    1    4    4    0    0  0.29343740713E+02  0.83884269448E+02  0.30210721154E+03  0.31490695935E+03  0.00000000000E+00 0. -1.
        -12    1    4    4    0    0 -0.31709081811E+02  0.80260576262E+01  0.12276566375E+03  0.12704838317E+03  0.00000000000E+00 0.  1.
</event>
<event>
12    1  0.8358445E-002  0.2614851E+03  0.7818608E-02  0.1106273E+00
         21   -1    0    0  503  502  0.00000000000E+00  0.00000000000E+00  0.35029023340E+03  0.35029023340E+03  0.00000000000E+00 0. -1.
         21   -1    0    0  501  503 -0.00000000000E+00 -0.00000000000E+00 -0.24478587651E+03  0.24478587651E+03  0.00000000000E+00 0.  1.
          6    2    1    2  501    0 -0.11419571284E+03  0.16018360618E+03 -0.81286159043E+02  0.27382822715E+03  0.17226436025E+03 0.  0.
         24    2    3    3    0    0 -0.11036378201E+03  0.18412416613E+03 -0.51480779368E+02  0.23512054365E+03  0.80929144748E+02 0.  0.
         -6    2    1    2    0  502  0.11419571284E+03 -0.16018360618E+03  0.18679051593E+03  0.32124788276E+03  0.17207572989E+03 0.  0.
        -24    2    5    5    0    0  0.17596973861E+00 -0.68351259398E+02  0.11989214514E+03  0.16021632142E+03  0.81383152792E+02 0.  0.
          5    1    3    3  501    0 -0.38319308334E+01 -0.23940559949E+02 -0.29805379674E+02  0.38707683502E+02  0.47000000000E+01 0. -1.
        -13    1    4    4    0    0 -0.21281991837E+02  0.20637240488E+02 -0.38356302326E+02  0.48477054362E+02  0.00000000000E+00 0.  1.
         14    1    4    4    0    0 -0.89081790173E+02  0.16348692564E+03 -0.13124477042E+02  0.18664348929E+03  0.00000000000E+00 0. -1.
         -5    1    5    5    0  502  0.11401974310E+03 -0.91832346779E+02  0.66898370794E+02  0.16103156134E+03  0.47000000000E+01 0.  1.
         13    1    6    6    0    0  0.28893271282E+02  0.27995336439E+01  0.40263475832E+02  0.49636740426E+02  0.00000000000E+00 0. -1.
        -14    1    6    6    0    0 -0.28717301544E+02 -0.71150793042E+02  0.79628669303E+02  0.11057958100E+03  0.00000000000E+00 0.  1.
</event>
<event>
12    1  0.8358445E-002  0.1857109E+03  0.7818608E-02  0.1165236E+00
         21   -1    0    0  501  502  0.00000000000E+00  0.00000000000E+00  0.13260551824E+03  0.13260551824E+03  0.00000000000E+00 0.  1.
         21   -1    0    0  502  503 -0.00000000000E+00 -0.00000000000E+00 -0.29402060291E+03  0.29402060291E+03  0.00000000000E+00 0.  1.
         -6    2    1    2    0  503  0.22054617880E+02 -0.17639778802E+02 -0.17105790838E+03  0.25248633306E+03  0.18355100761E+03 0.  0.
        -24    2    3    3    0    0 -0.20397358617E+02 -0.41632898383E+02 -0.20161217750E+02  0.93836588842E+02  0.79053654172E+02 0.  0.
          6    2    1    2  501    0 -0.22054617880E+02  0.17639778802E+02  0.96428237140E+01  0.17413978810E+03  0.17156373097E+03 0.  0.
         24    2    5    5    0    0 -0.33339930988E+02 -0.45230843829E+02 -0.25648024560E+02  0.10101245084E+03  0.79926928066E+02 0.  0.
          5    1    5    5  501    0  0.11285313108E+02  0.62870622631E+02  0.35290848274E+02  0.73127337254E+02  0.47000000000E+01 0. -1.
        -13    1    6    6    0    0  0.21409305008E+02 -0.18802648519E+02  0.10402265412E+02  0.30333233556E+02  0.00000000000E+00 0.  1.
         14    1    6    6    0    0 -0.54749235996E+02 -0.26428195310E+02 -0.36050289972E+02  0.70679217289E+02  0.00000000000E+00 0. -1.
         -5    1    3    3    0  503  0.42451976497E+02  0.23993119581E+02 -0.15089669063E+03  0.15864974422E+03  0.47000000000E+01 0.  1.
         11    1    4    4    0    0  0.24208546039E+02 -0.33365974405E+02 -0.25003729344E+02  0.48213363608E+02  0.00000000000E+00 0. -1.
        -12    1    4    4    0    0 -0.44605904655E+02 -0.82669239784E+01  0.48425115933E+01  0.45623225234E+02  0.00000000000E+00 0.  1.
</event>
<event>
12    1  0.8358445E-002  0.1831739E+03  0.7818608E-02  0.1165167E+00
         21   -1    0    0  503  502  0.00000000000E+00  0.00000000000E+00  0.13511164749E+03  0.13511164749E+03  0.00000000000E+00 0.  1.
         21   -1    0    0  501  503 -0.00000000000E+00 -0.00000000000E+00 -0.25146582932E+03  0.25146582932E+03  0.00000000000E+00 0. -1.
          6    2    1    2  501    0  0.62394625759E+02 -0.76646085648E+01 -0.30074449447E+02  0.18562635134E+03  0.17204892983E+03 0.  0.
         24    2    3    3    0    0  0.63656207302E+02  0.14620893104E+01  0.41200223638E+02  0.11360512374E+03  0.84583776687E+02 0.  0.
         -6    2    1    2    0  502 -0.62394625759E+02  0.76646085648E+01 -0.86279732382E+02  0.20095112548E+03  0.17025077698E+03 0.  0.
        -24    2    5    5    0    0 -0.10222173884E+03 -0.63829958320E+01 -0.33262898592E+02  0.13300696612E+03  0.78066677175E+02 0.  0.
          5    1    3    3  501    0 -0.12615815431E+01 -0.91266978752E+01 -0.71274673085E+02  0.72021227603E+02  0.47000000000E+01 0. -1.
        -13    1    4    4    0    0 -0.82025273046E+01  0.30130759474E+01  0.40803338166E+02  0.41728557204E+02  0.00000000000E+00 0.  1.
         14    1    4    4    0    0  0.71858734606E+02 -0.15509866370E+01  0.39688547206E+00  0.71876566535E+02  0.00000000000E+00 0. -1.
         -5    1    5    5    0  502  0.39827113084E+02  0.14047604397E+02 -0.53016833790E+02  0.67944159359E+02  0.47000000000E+01 0.  1.
         11    1    6    6    0    0 -0.46317244722E+02 -0.13083933401E+02 -0.54609130208E+02  0.72791713635E+02  0.00000000000E+00 0. -1.
        -12    1    6    6    0    0 -0.55904494120E+02  0.67009375693E+01  0.21346231616E+02  0.60215252481E+02  0.00000000000E+00 0.  1.
</event>
<event>
12    1  0.8358445E-002  0.2018926E+03  0.7818608E-02  0.1148490E+00
         21   -1    0    0  503  502  0.00000000000E+00  0.00000000000E+00  0.48385403624E+02  0.48385403624E+02  0.00000000000E+00 0.  1.
         21   -1    0    0  501  503 -0.00000000000E+00 -0.00000000000E+00 -0.90162983207E+03  0.90162983207E+03  0.00000000000E+00 0.  1.
          6    2    1    2  501    0 -0.10324922958E+03  0.55316683935E+01 -0.55348969961E+03  0.58861030164E+03  0.17152328372E+03 0.  0.
         24    2    3    3    0    0 -0.19377949105E+02 -0.41197912430E+02 -0.16632193675E+03  0.18968798839E+03  0.79030205583E+02 0.  0.
         -6    2    1    2    0  502  0.10324922958E+03 -0.55316683935E+01 -0.29975472883E+03  0.36140493405E+03  0.17340595760E+03 0.  0.
        -24    2    5    5    0    0  0.46505759879E+02 -0.27119250887E+02 -0.28346464070E+03  0.29837080009E+03  0.75991396543E+02 0.  0.
          5    1    3    3  501    0 -0.83871280478E+02  0.46729580823E+02 -0.38716776286E+03  0.39892231325E+03  0.47000000000E+01 0. -1.
        -11    1    4    4    0    0 -0.33410797144E+02 -0.58232911484E+02 -0.14051894086E+03  0.15573350983E+03  0.00000000000E+00 0.  1.
         12    1    4    4    0    0  0.14032848038E+02  0.17034999055E+02 -0.25802995896E+02  0.33954478557E+02  0.00000000000E+00 0. -1.
         -5    1    5    5    0  502  0.56743469705E+02  0.21587582494E+02 -0.16290088127E+02  0.63034133953E+02  0.47000000000E+01 0.  1.
         13    1    6    6    0    0  0.20853052054E+02  0.99400530530E+01 -0.18487888404E+02  0.29588113362E+02  0.00000000000E+00 0. -1.
        -14    1    6    6    0    0  0.25652707824E+02 -0.37059303940E+02 -0.26497675230E+03  0.26878268673E+03  0.00000000000E+00 0.  1.
</event>
<event>
12    1  0.8358445E-002  0.1867327E+03  0.7818608E-02  0.1161535E+00
         21   -1    0    0  503  502  0.00000000000E+00  0.00000000000E+00  0.33965905269E+03  0.33965905269E+03  0.00000000000E+00 0. -1.
         21   -1    0    0  501  503 -0.00000000000E+00 -0.00000000000E+00 -0.10980858558E+03  0.10980858558E+03  0.00000000000E+00 0. -1.
          6    2    1    2  501    0 -0.12709046579E+02  0.71819403148E+02  0.56586461248E+02  0.19473343424E+03  0.17146292976E+03 0.  0.
         24    2    3    3    0    0 -0.39127593795E+00 -0.13335312051E+02  0.67259842591E+02  0.10790565030E+03  0.83317220896E+02 0.  0.
         -6    2    1    2    0  502  0.12709046579E+02 -0.71819403148E+02  0.17326400586E+03  0.25473420402E+03  0.17189983257E+03 0.  0.
        -24    2    5    5    0    0  0.32179895572E+02 -0.11053264258E+03  0.11454579674E+03  0.18160591298E+03  0.81283192136E+02 0.  0.
          5    1    3    3  501    0 -0.12317770641E+02  0.85154715199E+02 -0.10673381343E+02  0.86827783938E+02  0.47000000000E+01 0. -1.
        -11    1    4    4    0    0 -0.10708790847E+02 -0.46686634615E+02  0.28478461767E+02  0.55725603071E+02  0.00000000000E+00 0.  1.
         12    1    4    4    0    0  0.10317514909E+02  0.33351322564E+02  0.38781380824E+02  0.52180047233E+02  0.00000000000E+00 0. -1.
         -5    1    5    5    0  502 -0.19470848993E+02  0.38713239433E+02  0.58718209122E+02  0.73128291040E+02  0.47000000000E+01 0.  1.
         11    1    6    6    0    0  0.19146244460E+01 -0.87591424641E+02  0.36696354780E+02  0.94987082867E+02  0.00000000000E+00 0. -1.
        -12    1    6    6    0    0  0.30265271126E+02 -0.22941217941E+02  0.77849441959E+02  0.86618830114E+02  0.00000000000E+00 0.  1.
</event>
<event>
12    1  0.8358445E-002  0.1737475E+03  0.7818608E-02  0.1174307E+00
         21   -1    0    0  501  502  0.00000000000E+00  0.00000000000E+00  0.49497338683E+02  0.49497338683E+02  0.00000000000E+00 0.  1.
         21   -1    0    0  502  503 -0.00000000000E+00 -0.00000000000E+00 -0.63244178381E+03  0.63244178381E+03  0.00000000000E+00 0.  1.
         -6    2    1    2    0  503  0.66292239051E+01 -0.11140549829E+02 -0.36072406916E+03  0.39985743344E+03  0.17203503871E+03 0.  0.
        -24    2    3    3    0    0  0.67940316835E+02 -0.20148456044E+02 -0.26430982146E+03  0.28514915278E+03  0.80177993743E+02 0.  0.
          6    2    1    2  501    0 -0.66292239051E+01  0.11140549829E+02 -0.22222037597E+03  0.28208168906E+03  0.17326316789E+03 0.  0.
         24    2    5    5    0    0 -0.19030449969E+02 -0.32395818139E+02 -0.45881485658E+02  0.99964419203E+02  0.80474389227E+02 0.  0.
          5    1    5    5  501    0  0.12401226064E+02  0.43536367968E+02 -0.17633889031E+03  0.18211726985E+03  0.47000000000E+01 0. -1.
        -13    1    6    6    0    0 -0.49081537061E+02 -0.83654877166E+01 -0.31334396054E+02  0.58828760322E+02  0.00000000000E+00 0.  1.
         14    1    6    6    0    0  0.30051087092E+02 -0.24030330422E+02 -0.14547089604E+02  0.41135658881E+02  0.00000000000E+00 0. -1.
         -5    1    3    3    0  503 -0.61311092930E+02  0.90079062152E+01 -0.96414247706E+02  0.11470828066E+03  0.47000000000E+01 0.  1.
         11    1    4    4    0    0  0.13132561135E+02 -0.42156219021E+02 -0.77151212517E+02  0.88892747494E+02  0.00000000000E+00 0. -1.
        -12    1    4    4    0    0  0.54807755700E+02  0.22007762977E+02 -0.18715860894E+03  0.19625640529E+03  0.00000000000E+00 0.  1.
</event>
<event>
12    1  0.8358445E-002  0.1806776E+03  0.7818608E-02  0.1167326E+00
         21   -1    0    0  503  502  0.00000000000E+00  0.00000000000E+00  0.57944449560E+03  0.57944449560E+03  0.00000000000E+00 0. -1.
         21   -1    0    0  501  503 -0.00000000000E+00 -0.00000000000E+00 -0.56133453584E+02  0.56133453584E+02  0.00000000000E+00 0. -1.
          6    2    1    2  501    0 -0.35607977975E+02 -0.40407343300E+02  0.26890195011E+03  0.32396394249E+03  0.17246360710E+03 0.  0.
         24    2    3    3    0    0 -0.60383630633E+02 -0.63815559267E+02  0.17405555918E+03  0.22306941631E+03  0.10837904946E+03 0.  0.
         -6    2    1    2    0  502  0.35607977975E+02  0.40407343300E+02  0.25440909191E+03  0.31161400670E+03  0.17169339427E+03 0.  0.
        -24    2    5    5    0    0 -0.38368397769E+01 -0.39705128849E+02  0.11887657320E+03  0.14924080858E+03  0.80931827433E+02 0.  0.
          5    1    3    3  501    0  0.24775652658E+02  0.23408215967E+02  0.94846390929E+02  0.10089452617E+03  0.47000000000E+01 0. -1.
        -13    1    4    4    0    0 -0.39225038112E+02  0.24831589107E+02  0.41906040004E+02  0.62540607779E+02  0.00000000000E+00 0.  1.
         14    1    4    4    0    0 -0.21158592520E+02 -0.88647148374E+02  0.13214951917E+03  0.16052880854E+03  0.00000000000E+00 0. -1.
         -5    1    5    5    0  502  0.39444817752E+02  0.80112472148E+02  0.13553251871E+03  0.16237319813E+03  0.47000000000E+01 0.  1.
         13    1    6    6    0    0 -0.29912876034E+02  0.12051752435E+02  0.40843521047E+02  0.52040542857E+02  0.00000000000E+00 0. -1.
        -14    1    6    6    0    0  0.26076036257E+02 -0.51756881284E+02  0.78033052156E+02  0.97200265719E+02  0.00000000000E+00 0.  1.
</event>
<event>
12    1  0.8358445E-002  0.1909397E+03  0.7818608E-02  0.1157720E+00
         21   -1    0    0  503  502  0.00000000000E+00  0.00000000000E+00  0.32818147597E+03  0.32818147597E+03  0.00000000000E+00 0. -1.
         21   -1    0    0  501  503 -0.00000000000E+00 -0.00000000000E+00 -0.22443511944E+03  0.22443511944E+03  0.00000000000E+00 0.  1.
          6    2    1    2  501    0 -0.52030350900E+02  0.62322994167E+02 -0.14474737087E+03  0.23923647823E+03  0.17231070230E+03 0.  0.
         24    2    3    3    0    0 -0.92292014812E+02  0.57862608220E+02 -0.90879225990E+02  0.17167344355E+03  0.96679057062E+02 0.  0.
         -6    2    1    2    0  502  0.52030350900E+02 -0.62322994167E+02  0.24849372740E+03  0.31338011718E+03  0.17281971031E+03 0.  0.
        -24    2    5    5    0    0  0.29035307221E+02 -0.33179009263E+02  0.36735624878E+02  0.98341218670E+02  0.79859836171E+02 0.  0.
          5    1    3    3  501    0  0.40261663911E+02  0.44603859474E+01 -0.53868144877E+02  0.67563034687E+02  0.47000000000E+01 0. -1.
        -13    1    4    4    0    0 -0.45766932581E+02  0.81926468331E+01 -0.92576208252E+02  0.10359578135E+03  0.00000000000E+00 0.  1.
         14    1    4    4    0    0 -0.46525082230E+02  0.49669961387E+02  0.16969822619E+01  0.68077662192E+02  0.00000000000E+00 0. -1.
         -5    1    5    5    0  502  0.22995043679E+02 -0.29143984904E+02  0.21175810252E+03  0.21503889851E+03  0.47000000000E+01 0.  1.
         13    1    6    6    0    0  0.10057924888E+02 -0.70021883017E+01  0.58236926920E+02  0.59512453748E+02  0.00000000000E+00 0. -1.
        -14    1    6    6    0    0  0.18977382333E+02 -0.26176820961E+02 -0.21501302042E+02  0.38828764922E+02  0.00000000000E+00 0.  1.
</event>
<event>
12    1  0.8358445E-002  0.1967295E+03  0.7818608E-02  0.1153131E+00
         21   -1    0    0  501  502  0.00000000000E+00  0.00000000000E+00  0.10356158255E+03  0.10356158255E+03  0.00000000000E+00 0.  1.
         21   -1    0    0  502  503 -0.00000000000E+00 -0.00000000000E+00 -0.40489545047E+03  0.40489545047E+03  0.00000000000E+00 0.  1.
         -6    2    1    2    0  503 -0.77961040364E+02  0.53051216943E+02 -0.22789915455E+03  0.30106564713E+03  0.17265614326E+03 0.  0.
        -24    2    3    3    0    0 -0.49747575088E+02 -0.42006957292E+02 -0.11154327458E+03  0.14811847679E+03  0.72510519062E+02 0.  0.
          6    2    1    2  501    0  0.77961040364E+02 -0.53051216943E+02 -0.73434713370E+02  0.20739138590E+03  0.16948797710E+03 0.  0.
         24    2    5    5    0    0  0.10333534501E+03 -0.10635246493E+02 -0.84928218418E+02  0.15642904153E+03  0.80411073569E+02 0.  0.
          5    1    5    5  501    0 -0.25374304648E+02 -0.42415970450E+02  0.11493505048E+02  0.50962344372E+02  0.47000000000E+01 0. -1.
        -13    1    6    6    0    0  0.83863985163E+02  0.10034520990E+02 -0.21833389984E+02  0.87238503753E+02  0.00000000000E+00 0.  1.
         14    1    6    6    0    0  0.19471359849E+02 -0.20669767483E+02 -0.63094828435E+02  0.69190537773E+02  0.00000000000E+00 0. -1.
         -5    1    3    3    0  503 -0.28213465276E+02  0.95058174235E+02 -0.11635587997E+03  0.15294717034E+03  0.47000000000E+01 0.  1.
         11    1    4    4    0    0 -0.24573479018E+02  0.78077260553E+01 -0.28612678448E+01  0.25942307355E+02  0.00000000000E+00 0. -1.
        -12    1    4    4    0    0 -0.25174096070E+02 -0.49814683347E+02 -0.10868200674E+03  0.12217616944E+03  0.00000000000E+00 0.  1.
</event>
<event>
12    1  0.8358445E-002  0.2683880E+03  0.7818608E-02  0.1102347E+00
         21   -1    0    0  503  502  0.00000000000E+00  0.00000000000E+00  0.88474645484E+03  0.88474645484E+03  0.00000000000E+00 0.  1.
         21   -1    0    0  501  503 -0.00000000000E+00 -0.00000000000E+00 -0.83612349529E+02  0.83612349529E+02  0.00000000000E+00 0. -1.
          6    2    1    2  501    0  0.12505268463E+03 -0.16303242061E+03  0.31767895266E+03  0.41587503739E+03  0.17266842693E+03 0.  0.
         24    2    3    3    0    0  0.56288591997E+02 -0.17188165395E+03  0.25224892877E+03  0.32042878345E+03  0.79582502109E+02 0.  0.
         -6    2    1    2    0  502 -0.12505268463E+03  0.16303242061E+03  0.48345515266E+03  0.55248376698E+03  0.17114813480E+03 0.  0.
        -24    2    5    5    0    0 -0.11438445738E+03  0.52507431164E+02  0.21166438152E+03  0.25884811240E+03  0.79747730203E+02 0.  0.
          5    1    3    3  501    0  0.68764092632E+02  0.88492333309E+01  0.65430023885E+02  0.95446253943E+02  0.47000000000E+01 0. -1.
        -11    1    4    4    0    0 -0.18449393968E+02 -0.39078787988E+02  0.76069149613E+02  0.87487412416E+02  0.00000000000E+00 0.  1.
         12    1    4    4    0    0  0.74737985966E+02 -0.13280286596E+03  0.17617977916E+03  0.23294137103E+03  0.00000000000E+00 0. -1.
         -5    1    5    5    0  502 -0.10668227248E+02  0.11052498945E+03  0.27179077114E+03  0.29363565458E+03  0.47000000000E+01 0.  1.
         13    1    6    6    0    0 -0.24503845907E+02 -0.24944546147E+01  0.26484037884E+01  0.24772460732E+02  0.00000000000E+00 0. -1.
        -14    1    6    6    0    0 -0.89880611474E+02  0.55001885778E+02  0.20901597773E+03  0.23407565167E+03  0.00000000000E+00 0.  1.
</event>
<event>
12    1  0.8358445E-002  0.1798042E+03  0.7818608E-02  0.1168745E+00
         21   -1    0    0  501  502  0.00000000000E+00  0.00000000000E+00  0.65602000749E+03  0.65602000749E+03  0.00000000000E+00 0.  1.
         21   -1    0    0  502  503 -0.00000000000E+00 -0.00000000000E+00 -0.85859726639E+02  0.85859726639E+02  0.00000000000E+00 0.  1.
         -6    2    1    2    0  503  0.26739984585E+02 -0.12848271408E+02  0.38817598858E+02  0.18093891529E+03  0.17421819719E+03 0.  0.
        -24    2    3    3    0    0 -0.40397867190E+02  0.94936313847E+01  0.58152680654E+02  0.10743662179E+03  0.80241988540E+02 0.  0.
          6    2    1    2  501    0 -0.26739984585E+02  0.12848271408E+02  0.53134268199E+03  0.56094081884E+03  0.17733993255E+03 0.  0.
         24    2    5    5    0    0 -0.40185973991E+02  0.78414099436E+01  0.53726837234E+03  0.54472147548E+03  0.79923599208E+02 0.  0.
          5    1    5    5  501    0  0.13445989407E+02  0.50068614639E+01 -0.59256903525E+01  0.16219343359E+02  0.47000000000E+01 0. -1.
        -11    1    6    6    0    0 -0.11063680862E+02 -0.35682136468E+02  0.23472767732E+03  0.23768193536E+03  0.00000000000E+00 0.  1.
         12    1    6    6    0    0 -0.29122293129E+02  0.43523546412E+02  0.30254069502E+03  0.30703954011E+03  0.00000000000E+00 0. -1.
         -5    1    3    3    0  503  0.67137851775E+02 -0.22341902792E+02 -0.19335081796E+02  0.73502293497E+02  0.47000000000E+01 0.  1.
         13    1    4    4    0    0 -0.55893752045E+01 -0.32903728263E+02  0.11121103175E+02  0.35179189653E+02  0.00000000000E+00 0. -1.
        -14    1    4    4    0    0 -0.34808491985E+02  0.42397359648E+02  0.47031577479E+02  0.72257432141E+02  0.00000000000E+00 0.  1.
</event>
<event>
12    1  0.8358445E-002  0.1779566E+03  0.7818608E-02  0.1170057E+00
         21   -1    0    0  503  502  0.00000000000E+00  0.00000000000E+00  0.35542712730E+02  0.35542712730E+02  0.00000000000E+00 0. -1.
         21   -1    0    0  501  503 -0.00000000000E+00 -0.00000000000E+00 -0.11114486932E+04  0.11114486932E+04  0.00000000000E+00 0. -1.
          6    2    1    2  501    0 -0.20970348136E+01 -0.46604576254E+02 -0.79513395150E+03  0.81457378639E+03  0.17063431236E+03 0.  0.
         24    2    3    3    0    0 -0.61242252459E+02 -0.22086743082E+02 -0.34298540573E+03  0.35789044056E+03  0.78791758408E+02 0.  0.
         -6    2    1    2    0  502  0.20970348136E+01  0.46604576254E+02 -0.28077202898E+03  0.33241761955E+03  0.17173280831E+03 0.  0.
        -24    2    5    5    0    0 -0.29934030060E+02  0.10919476007E+02 -0.26947800260E+03  0.28292963588E+03  0.80096840523E+02 0.  0.
          5    1    3    3  501    0  0.59145217645E+02 -0.24517833172E+02 -0.45214854577E+03  0.45668334583E+03  0.47000000000E+01 0. -1.
        -13    1    4    4    0    0 -0.23749860514E+01 -0.38359734754E+02 -0.94660736326E+02  0.10216537971E+03  0.00000000000E+00 0.  1.
         14    1    4    4    0    0 -0.58867266407E+02  0.16272991672E+02 -0.24832466941E+03  0.25572506085E+03  0.00000000000E+00 0. -1.
         -5    1    5    5    0  502  0.32031064873E+02  0.35685100246E+02 -0.11294026382E+02  0.49487983677E+02  0.47000000000E+01 0.  1.
         13    1    6    6    0    0 -0.28358730096E+02 -0.65539925746E+01 -0.26635022109E+02  0.39453729787E+02  0.00000000000E+00 0. -1.
        -14    1    6    6    0    0 -0.15752999640E+01  0.17473468582E+02 -0.24284298049E+03  0.24347590609E+03  0.00000000000E+00 0.  1.
</event>
<event>
12    1  0.8358445E-002  0.1819003E+03  0.7818608E-02  0.1166133E+00
         21   -1    0    0  503  502  0.00000000000E+00  0.00000000000E+00  0.17274205568E+03  0.17274205568E+03  0.00000000000E+00 0. -1.
         21   -1    0    0  501  503 -0.00000000000E+00 -0.00000000000E+00 -0.45179556265E+03  0.45179556265E+03  0.00000000000E+00 0. -1.
          6    2    1    2  501    0  0.19687061462E+02  0.52316223632E+02 -0.37695059307E+03  0.41854447027E+03  0.17309868960E+03 0.  0.
         24    2    3    3    0    0 -0.51567067194E+01 -0.35356083387E+02 -0.22889089019E+03  0.24462663953E+03  0.78578043359E+02 0.  0.
         -6    2    1    2    0  502 -0.19687061462E+02 -0.52316223632E+02  0.97897086095E+02  0.20599314805E+03  0.17240872928E+03 0.  0.
        -24    2    5    5    0    0 -0.50604161639E+02 -0.78537884457E+02  0.29334480505E+02  0.12620365334E+03  0.79610739857E+02 0.  0.
          5    1    3    3  501    0  0.24843768182E+02  0.87672307019E+02 -0.14805970287E+03  0.17391783074E+03  0.47000000000E+01 0. -1.
        -11    1    4    4    0    0 -0.39616145285E+02 -0.42820419377E+01 -0.11075072310E+03  0.11770088155E+03  0.00000000000E+00 0.  1.
         12    1    4    4    0    0  0.34459438566E+02 -0.31074041449E+02 -0.11814016709E+03  0.12692575798E+03  0.00000000000E+00 0. -1.
         -5    1    5    5    0  502  0.30917100176E+02  0.26221660825E+02  0.68562605590E+02  0.79789494704E+02  0.47000000000E+01 0.  1.
         13    1    6    6    0    0 -0.59575546839E+02 -0.38757890573E+02  0.43151593202E+02  0.83147338253E+02  0.00000000000E+00 0. -1.
        -14    1    6    6    0    0  0.89713851997E+01 -0.39779993885E+02 -0.13817112697E+02  0.43056315090E+02  0.00000000000E+00 0.  1.
</event>
<event>
12    1  0.8358445E-002  0.2149484E+03  0.7818608E-02  0.1137766E+00
         21   -1    0    0  501  502  0.00000000000E+00  0.00000000000E+00  0.11474383342E+03  0.11474383342E+03  0.00000000000E+00 0.  1.
         21   -1    0    0  502  503 -0.00000000000E+00 -0.00000000000E+00 -0.40305432869E+03  0.40305432869E+03  0.00000000000E+00 0.  1.
         -6    2    1    2    0  503  0.11555993729E+03  0.58538389070E+02 -0.13154621764E+03  0.25200640439E+03  0.17152836027E+03 0.  0.
        -24    2    3    3    0    0  0.43642231448E+02  0.72697204895E+02 -0.13653092353E+03  0.17838870426E+03  0.77410004290E+02 0.  0.
          6    2    1    2  501    0 -0.11555993729E+03 -0.58538389070E+02 -0.15676427763E+03  0.26579175772E+03  0.17114139661E+03 0.  0.
         24    2    5    5    0    0 -0.12314354287E+03 -0.69609826080E+02 -0.68644987753E+02  0.17653265713E+03  0.80260729209E+02 0.  0.
          5    1    5    5  501    0  0.75836055750E+01  0.11071437010E+02 -0.88119289873E+02  0.89259100593E+02  0.47000000000E+01 0. -1.
        -13    1    6    6    0    0 -0.52420329219E+02 -0.64854402479E+02 -0.64688339309E+02  0.10553940344E+03  0.00000000000E+00 0.  1.
         14    1    6    6    0    0 -0.70723213646E+02 -0.47554236004E+01 -0.39566484436E+01  0.70993253687E+02  0.00000000000E+00 0. -1.
         -5    1    3    3    0  503  0.71917705842E+02 -0.14158815825E+02  0.49847058901E+01  0.73617700127E+02  0.47000000000E+01 0.  1.
         13    1    4    4    0    0  0.99104999882E+01  0.73492913514E+02 -0.62318390062E+02  0.96865928410E+02  0.00000000000E+00 0. -1.
        -14    1    4    4    0    0  0.33731731460E+02 -0.79570861896E+00 -0.74212533466E+02  0.81522775854E+02  0.00000000000E+00 0.  1.
</event>
<event>
12    1  0.8358445E-002  0.1764938E+03  0.7818608E-02  0.1171281E+00
         21   -1    0    0  501  502  0.00000000000E+00  0.00000000000E+00  0.15145823769E+03  0.15145823769E+03  0.00000000000E+00 0.  1.
         21   -1    0    0  502  503 -0.00000000000E+00 -0.00000000000E+00 -0.32452561591E+03  0.32452561591E+03  0.00000000000E+00 0.  1.
         -6    2    1    2    0  503  0.16247833717E+02  0.37693800043E+02 -0.23070525495E+03  0.29047371861E+03  0.17165445488E+03 0.  0.
        -24    2    3    3    0    0  0.84203011508E+01 -0.31090518731E+02 -0.19325947990E+03  0.21162684902E+03  0.79994842507E+02 0.  0.
          6    2    1    2  501    0 -0.16247833717E+02 -0.37693800043E+02  0.57637876727E+02  0.18551013499E+03  0.17148489930E+03 0.  0.
         24    2    5    5    0    0 -0.24983573135E+02 -0.88193671346E+02  0.55302489026E+02  0.13399223344E+03  0.80580709458E+02 0.  0.
          5    1    5    5  501    0  0.87357394182E+01  0.50499871303E+02  0.23353877006E+01  0.51517901554E+02  0.47000000000E+01 0. -1.
        -13    1    6    6    0    0  0.28953244746E+02 -0.41954511307E+02  0.21684845460E+02  0.55395883628E+02  0.00000000000E+00 0.  1.
         14    1    6    6    0    0 -0.53936817881E+02 -0.46239160039E+02  0.33617643566E+02  0.78596349808E+02  0.00000000000E+00 0. -1.
         -5    1    3    3    0  503  0.78275325660E+01  0.68784318774E+02 -0.37445775052E+02  0.78846869592E+02  0.47000000000E+01 0.  1.
         11    1    4    4    0    0 -0.30192051611E+02 -0.14969612363E+02 -0.13944602359E+03  0.14346024805E+03  0.00000000000E+00 0. -1.
        -12    1    4    4    0    0  0.38612352762E+02 -0.16120906368E+02 -0.53813456311E+02  0.68166600971E+02  0.00000000000E+00 0.  1.
</event>
<event>
12    1  0.8358445E-002  0.2290887E+03  0.7818608E-02  0.1127831E+00
         21   -1    0    0  503  502  0.00000000000E+00  0.00000000000E+00  0.10871277948E+04  0.10871277948E+04  0.00000000000E+00 0. -1.
         21   -1    0    0  501  503 -0.00000000000E+00 -0.00000000000E+00 -0.48445427156E+02  0.48445427156E+02  0.00000000000E+00 0. -1.
          6    2    1    2  501    0  0.99533756603E+02  0.11440825967E+03  0.44909967767E+03  0.50415487453E+03  0.17171312834E+03 0.  0.
         24    2    3    3    0    0 -0.13024344383E+02  0.69999733137E+02  0.20891733368E+03  0.23517329209E+03  0.81181456108E+02 0.  0.
         -6    2    1    2    0  502 -0.99533756603E+02 -0.11440825967E+03  0.58958269002E+03  0.63141834747E+03  0.16758628395E+03 0.  0.
        -24    2    5    5    0    0 -0.60388979352E+02 -0.47149473189E+02  0.50145860062E+03  0.51375780576E+03  0.81341583400E+02 0.  0.
          5    1    3    3  501    0  0.11255810099E+03  0.44408526530E+02  0.24018234399E+03  0.26898158244E+03  0.47000000000E+01 0. -1.
        -11    1    4    4    0    0  0.14756790825E+01  0.44327577525E+02  0.29309738565E+02  0.53161758180E+02  0.00000000000E+00 0.  1.
         12    1    4    4    0    0 -0.14500023466E+02  0.25672155612E+02  0.17960759512E+03  0.18201153391E+03  0.00000000000E+00 0. -1.
         -5    1    5    5    0  502 -0.39144777251E+02 -0.67258786478E+02  0.88124089401E+02  0.11766054172E+03  0.47000000000E+01 0.  1.
         11    1    6    6    0    0 -0.24112002917E+02 -0.66410745891E+02  0.32135463114E+03  0.32902974761E+03  0.00000000000E+00 0. -1.
        -12    1    6    6    0    0 -0.36276976435E+02  0.19261272702E+02  0.18010396948E+03  0.18472805815E+03  0.00000000000E+00 0.  1.
</event>
<event>
12    1  0.8358445E-002  0.2515475E+03  0.7818608E-02  0.1112688E+00
         21   -1    0    0  501  502  0.00000000000E+00  0.00000000000E+00  0.77892673549E+03  0.77892673549E+03  0.00000000000E+00 0. -1.
         21   -1    0    0  502  503 -0.00000000000E+00 -0.00000000000E+00 -0.83004847683E+02  0.83004847683E+02  0.00000000000E+00 0.  1.
         -6    2    1    2    0  503  0.73516970211E+02  0.16497408806E+03  0.42428833370E+03  0.49325120012E+03  0.17508558385E+03 0.  0.
        -24    2    3    3    0    0  0.63250667641E+01  0.30317229746E+02  0.24185955211E+03  0.25671458196E+03  0.80294412984E+02 0.  0.
          6    2    1    2  501    0 -0.73516970211E+02 -0.16497408806E+03  0.27163355411E+03  0.36868038305E+03  0.17181164828E+03 0.  0.
         24    2    5    5    0    0 -0.11772495621E+03 -0.11697061017E+03  0.20237686697E+03  0.27340573464E+03  0.79075979237E+02 0.  0.
          5    1    5    5  501    0  0.44207985997E+02 -0.48003477891E+02  0.69256687142E+02  0.95274648409E+02  0.47000000000E+01 0. -1.
        -13    1    6    6    0    0 -0.71128072239E+01 -0.58036852304E+02  0.62142127605E+02  0.85325917957E+02  0.00000000000E+00 0.  1.
         14    1    6    6    0    0 -0.11061214898E+03 -0.58933757865E+02  0.14023473937E+03  0.18807981668E+03  0.00000000000E+00 0. -1.
         -5    1    3    3    0  503  0.67191903447E+02  0.13465685831E+03  0.18242878158E+03  0.23653661816E+03  0.47000000000E+01 0.  1.
         11    1    4    4    0    0  0.21015635943E+02  0.43433794996E+02  0.22692541815E+03  0.23199848470E+03  0.00000000000E+00 0. -1.
        -12    1    4    4    0    0 -0.14690569178E+02 -0.13116565250E+02  0.14934133966E+02  0.24716097266E+02  0.00000000000E+00 0.  1.
</event>
<event>
12    1  0.8358445E-002  0.2840831E+03  0.7818608E-02  0.1094938E+00
         21   -1    0    0  501  502  0.00000000000E+00  0.00000000000E+00  0.43899302748E+03  0.43899302748E+03  0.00000000000E+00 0. -1.
         21   -1    0    0  502  503 -0.00000000000E+00 -0.00000000000E+00 -0.53933937341E+03  0.53933937341E+03  0.00000000000E+00 0.  1.
         -6    2    1    2    0  503 -0.14510262123E+03  0.15541364629E+03 -0.45140505616E+03  0.53335701926E+03  0.18840120256E+03 0.  0.
        -24    2    3    3    0    0 -0.27640715795E+02  0.13931009008E+03 -0.21923549703E+03  0.27262455496E+03  0.78029702320E+02 0.  0.
          6    2    1    2  501    0  0.14510262123E+03 -0.15541364629E+03  0.35105871023E+03  0.44497538163E+03  0.17190898780E+03 0.  0.
         24    2    5    5    0    0  0.11263174067E+03 -0.74619024193E+02  0.31229963894E+03  0.34954747873E+03  0.79990422108E+02 0.  0.
          5    1    5    5  501    0  0.32470880564E+02 -0.80794622096E+02  0.38759071290E+02  0.95427902898E+02  0.47000000000E+01 0. -1.
        -11    1    6    6    0    0  0.37878999192E+02 -0.11520650537E+02  0.26945861756E+02  0.47891788799E+02  0.00000000000E+00 0.  1.
         12    1    6    6    0    0  0.74752741474E+02 -0.63098373656E+02  0.28535377718E+03  0.30165568993E+03  0.00000000000E+00 0. -1.
         -5    1    3    3    0  503 -0.11746190544E+03  0.16103556210E+02 -0.23216955913E+03  0.26073246430E+03  0.47000000000E+01 0.  1.
         13    1    4    4    0    0 -0.54923657232E+02  0.89499186281E+02 -0.13498994920E+03  0.17102338686E+03  0.00000000000E+00 0. -1.
        -14    1    4    4    0    0  0.27282941437E+02  0.49810903797E+02 -0.84245547826E+02  0.10160116810E+03  0.00000000000E+00 0.  1.
</event>
<event>
12    1  0.8358445E-002  0.1959056E+03  0.7818608E-02  0.1153726E+00
         21   -1    0    0  503  502  0.00000000000E+00  0.00000000000E+00  0.15758947854E+04  0.15758947854E+04  0.00000000000E+00 0. -1.
         21   -1    0    0  501  503 -0.00000000000E+00 -0.00000000000E+00 -0.43293735398E+02  0.43293735398E+02  0.00000000000E+00 0. -1.
          6    2    1    2  501    0 -0.10309281052E+02  0.93072238722E+02  0.22449911521E+03  0.29649819863E+03  0.16953644494E+03 0.  0.
         24    2    3    3    0    0 -0.31518190399E+02  0.75241680200E+02  0.23890899264E+03  0.26491527254E+03  0.80298742824E+02 0.  0.
         -6    2    1    2    0  502  0.10309281052E+02 -0.93072238722E+02  0.13081019348E+04  0.13226903222E+04  0.17207641807E+03 0.  0.
        -24    2    5    5    0    0 -0.35043992243E+01 -0.93256846218E+02  0.13002137745E+04  0.13061022266E+04  0.81474209255E+02 0.  0.
          5    1    3    3  501    0  0.21208909347E+02  0.17830558523E+02 -0.14409877424E+02  0.31582926088E+02  0.47000000000E+01 0. -1.
        -11    1    4    4    0    0 -0.55779981828E+02  0.61076525417E+02  0.20382431944E+03  0.21996841028E+03  0.00000000000E+00 0.  1.
         12    1    4    4    0    0  0.24261791429E+02  0.14165154783E+02  0.35084673202E+02  0.44946862260E+02  0.00000000000E+00 0. -1.
         -5    1    5    5    0  502  0.13813680277E+02  0.18460749593E+00  0.78881603621E+01  0.16588095629E+02  0.47000000000E+01 0.  1.
         13    1    6    6    0    0 -0.10227727369E+02 -0.97864453470E+02  0.82917755013E+03  0.83499548939E+03  0.00000000000E+00 0. -1.
        -14    1    6    6    0    0  0.67233281451E+01  0.46076072518E+01  0.47103622432E+03  0.47110673718E+03  0.00000000000E+00 0.  1.
</event>
<event>
12    1  0.8358445E-002  0.3213933E+03  0.7818608E-02  0.1075039E+00
         21   -1    0    0  503  502  0.00000000000E+00  0.00000000000E+00  0.70764719341E+03  0.70764719341E+03  0.00000000000E+00 0. -1.
         21   -1    0    0  501  503 -0.00000000000E+00 -0.00000000000E+00 -0.21475747933E+03  0.21475747933E+03  0.00000000000E+00 0.  1.
          6    2    1    2  501    0  0.26217758694E+03 -0.70634150860E+02 -0.14859396667E+02  0.32148638418E+03  0.17148301135E+03 0.  0.
         24    2    3    3    0    0  0.17949898465E+03  0.13288508199E+02 -0.40108495850E+02  0.20091121679E+03  0.79750584035E+02 0.  0.
         -6    2    1    2    0  502 -0.26217758694E+03  0.70634150860E+02  0.50774911075E+03  0.60091828857E+03  0.17195162024E+03 0.  0.
        -24    2    5    5    0    0 -0.18647970950E+03  0.11369692345E+03  0.39981855621E+03  0.46215350328E+03  0.77648633254E+02 0.  0.
          5    1    3    3  501    0  0.82678602294E+02 -0.83922659058E+02  0.25249099183E+02  0.12057516739E+03  0.47000000000E+01 0. -1.
        -11    1    4    4    0    0  0.13374115080E+03 -0.17278948491E+02 -0.36524350167E+01  0.13490217848E+03  0.00000000000E+00 0.  1.
         12    1    4    4    0    0  0.45757833848E+02  0.30567456689E+02 -0.36456060833E+02  0.66009038308E+02  0.00000000000E+00 0. -1.
         -5    1    5    5    0  502 -0.75697877439E+02 -0.43062772592E+02  0.10793055454E+03  0.13876478528E+03  0.47000000000E+01 0.  1.
         13    1    6    6    0    0 -0.17213878303E+03  0.76979217893E+02  0.29446830718E+03  0.34967005096E+03  0.00000000000E+00 0. -1.
        -14    1    6    6    0    0 -0.14340926474E+02  0.36717705559E+02  0.10535024903E+03  0.11248345232E+03  0.00000000000E+00 0.  1.
</event>
<event>
12    1  0.8358445E-002  0.2808235E+03  0.7818608E-02  0.1095428E+00
         21   -1    0    0  503  502  0.00000000000E+00  0.00000000000E+00  0.22795630194E+04  0.22795630194E+04  0.00000000000E+00 0.  1.
         21   -1    0    0  501  503 -0.00000000000E+00 -0.00000000000E+00 -0.56300233581E+02  0.56300233581E+02  0.00000000000E+00 0. -1.
          6    2    1    2  501    0  0.74932769746E+02 -0.20927212194E+03  0.38530327259E+03  0.47678131691E+03  0.17161605778E+03 0.  0.
         24    2    3    3    0    0  0.75929589198E+02 -0.19662942666E+03  0.39843283385E+03  0.45793173412E+03  0.80773238629E+02 0.  0.
         -6    2    1    2    0  502 -0.74932769746E+02  0.20927212194E+03  0.18379595132E+04  0.18590819361E+04  0.16935386542E+03 0.  0.
        -24    2    5    5    0    0 -0.65908685565E+02  0.21215896913E+03  0.13200371091E+04  0.13410515560E+04  0.81030385699E+02 0.  0.
          5    1    3    3  501    0 -0.99681945177E+00 -0.12642695279E+02 -0.13129561257E+02  0.18849582800E+02  0.47000000000E+01 0. -1.
        -11    1    4    4    0    0 -0.11806882071E+02 -0.91298871569E+01  0.54482616705E+02  0.56489935624E+02  0.00000000000E+00 0.  1.
         12    1    4    4    0    0  0.87736471269E+02 -0.18749953950E+03  0.34395021714E+03  0.40144179849E+03  0.00000000000E+00 0. -1.
         -5    1    5    5    0  502 -0.90240841813E+01 -0.28868471924E+01  0.51792240417E+03  0.51803038011E+03  0.47000000000E+01 0.  1.
         11    1    6    6    0    0 -0.29210305938E+02  0.21460485694E+02  0.34241562038E+03  0.34432869689E+03  0.00000000000E+00 0. -1.
        -12    1    6    6    0    0 -0.36698379627E+02  0.19069848344E+03  0.97762148869E+03  0.99672285907E+03  0.00000000000E+00 0.  1.
</event>
<event>
12    1  0.8358445E-002  0.1901854E+03  0.7818608E-02  0.1158314E+00
         21   -1    0    0  503  502  0.00000000000E+00  0.00000000000E+00  0.20765486825E+03  0.20765486825E+03  0.00000000000E+00 0.  1.
         21   -1    0    0  501  503 -0.00000000000E+00 -0.00000000000E+00 -0.17778434051E+03  0.17778434051E+03  0.00000000000E+00 0.  1.
          6    2    1    2  501    0 -0.64237935480E+02 -0.49231233315E+02  0.42650637853E+02  0.19482493847E+03  0.17201003765E+03 0.  0.
         24    2    3    3    0    0 -0.90549185442E+02 -0.36094645967E+02  0.77205410253E+02  0.14920724347E+03  0.82463007950E+02 0.  0.
         -6    2    1    2    0  502  0.64237935480E+02  0.49231233315E+02 -0.12780110113E+02  0.19061427028E+03  0.17210532279E+03 0.  0.
        -24    2    5    5    0    0  0.38686898699E+02  0.55258880311E+02 -0.70441313344E+02  0.12708402263E+03  0.81474843954E+02 0.  0.
          5    1    3    3  501    0  0.26311249962E+02 -0.13136587348E+02 -0.34554772399E+02  0.45617695002E+02  0.47000000000E+01 0. -1.
        -11    1    4    4    0    0 -0.84866101647E+02 -0.42039570775E+02  0.92155244099E+02  0.13214450323E+03  0.00000000000E+00 0.  1.
         12    1    4    4    0    0 -0.56830837950E+01  0.59449248085E+01 -0.14949833846E+02  0.17062740238E+02  0.00000000000E+00 0. -1.
         -5    1    5    5    0  502  0.25551036781E+02 -0.60276469958E+01  0.57661203231E+02  0.63530247654E+02  0.47000000000E+01 0.  1.
         11    1    6    6    0    0 -0.15442140525E+02 -0.20535701854E+01  0.65432587235E+01  0.16896481564E+02  0.00000000000E+00 0. -1.
        -12    1    6    6    0    0  0.54129039224E+02  0.57312450496E+02 -0.76984572067E+02  0.11018754106E+03  0.00000000000E+00 0.  1.
</event>
<event>
12    1  0.8358445E-002  0.2934421E+03  0.7818608E-02  0.1088577E+00
         21   -1    0    0  501  502  0.00000000000E+00  0.00000000000E+00  0.50299608653E+02  0.50299608653E+02  0.00000000000E+00 0.  1.
         21   -1    0    0  502  503 -0.00000000000E+00 -0.00000000000E+00 -0.17166063895E+04  0.17166063895E+04  0.00000000000E+00 0.  1.
         -6    2    1    2    0  503 -0.22122620615E+03 -0.85924808686E+02 -0.78430123398E+03  0.83736736099E+03  0.17242843327E+03 0.  0.
        -24    2    3    3    0    0 -0.13192113720E+03 -0.15632111461E+02 -0.59529862789E+03  0.61677603358E+03  0.91567843032E+02 0.  0.
          6    2    1    2  501    0  0.22122620615E+03  0.85924808686E+02 -0.88200554688E+03  0.92953863717E+03  0.17258095560E+03 0.  0.
         24    2    5    5    0    0  0.20053542170E+03  0.86602343203E+02 -0.55791154558E+03  0.60475012246E+03  0.82115751908E+02 0.  0.
          5    1    5    5  501    0  0.20690784442E+02 -0.67753451723E+00 -0.32409400130E+03  0.32478851472E+03  0.47000000000E+01 0. -1.
        -13    1    6    6    0    0  0.15767827877E+03  0.33688547146E+02 -0.33706368677E+03  0.37364326134E+03  0.00000000000E+00 0.  1.
         14    1    6    6    0    0  0.42857142930E+02  0.52913796057E+02 -0.22084785881E+03  0.23110686112E+03  0.00000000000E+00 0. -1.
         -5    1    3    3    0  503 -0.89305068946E+02 -0.70292697224E+02 -0.18900260609E+03  0.22059132742E+03  0.47000000000E+01 0.  1.
         13    1    4    4    0    0  0.93264165085E+01 -0.43484141305E+00 -0.72784021063E+01  0.11838338953E+02  0.00000000000E+00 0. -1.
        -14    1    4    4    0    0 -0.14124755371E+03 -0.15197270048E+02 -0.58802022578E+03  0.60493769462E+03  0.00000000000E+00 0.  1.
</event>
<event>
12    1  0.8358445E-002  0.1857841E+03  0.7818608E-02  0.1162569E+00
         21   -1    0    0  503  502  0.00000000000E+00  0.00000000000E+00  0.77582001421E+02  0.77582001421E+02  0.00000000000E+00 0. -1.
         21   -1    0    0  501  503 -0.00000000000E+00 -0.00000000000E+00 -0.47511448835E+03  0.47511448835E+03  0.00000000000E+00 0. -1.
          6    2    1    2  501    0  0.36277618313E+01  0.69130994701E+02 -0.27188950498E+03  0.32930172753E+03  0.17240495860E+03 0.  0.
         24    2    3    3    0    0  0.58327637848E+01  0.10807744885E+03 -0.24904744604E+03  0.28385353746E+03  0.82664649420E+02 0.  0.
         -6    2    1    2    0  502 -0.36277618313E+01 -0.69130994701E+02 -0.12564298195E+03  0.22339476224E+03  0.17125071036E+03 0.  0.
        -24    2    5    5    0    0  0.44133659866E+02 -0.91852847323E+02 -0.10209570989E+03  0.16530861923E+03  0.80738343538E+02 0.  0.
          5    1    3    3  501    0 -0.22050019536E+01 -0.38946454148E+02 -0.22842058942E+02  0.45448190074E+02  0.47000000000E+01 0. -1.
        -13    1    4    4    0    0  0.32680498360E+01 -0.13850307881E+02 -0.25191028573E+02  0.28932664909E+02  0.00000000000E+00 0.  1.
         14    1    4    4    0    0  0.25647139489E+01  0.12192775673E+03 -0.22385641747E+03  0.25492087255E+03  0.00000000000E+00 0. -1.
         -5    1    5    5    0  502 -0.47761421697E+02  0.22721852622E+02 -0.23547272050E+02  0.58086143013E+02  0.47000000000E+01 0.  1.
         13    1    6    6    0    0  0.14668616822E+02  0.13729313934E+02 -0.20084179158E+02  0.28408390187E+02  0.00000000000E+00 0. -1.
        -14    1    6    6    0    0  0.29465043043E+02 -0.10558216126E+03 -0.82011530737E+02  0.13690022904E+03  0.00000000000E+00 0.  1.
</event>
<event>
12    1  0.8358445E-002  0.1924274E+03  0.7818608E-02  0.1156731E+00
         21   -1    0    0  503  502  0.00000000000E+00  0.00000000000E+00  0.22370986883E+03  0.22370986883E+03  0.00000000000E+00 0.  1.
         21   -1    0    0  501  503 -0.00000000000E+00 -0.00000000000E+00 -0.20308560921E+03  0.20308560921E+03  0.00000000000E+00 0. -1.
          6    2    1    2  501    0 -0.68975961598E+02  0.50124277321E+02 -0.83560178742E+02  0.20797434410E+03  0.17029649990E+03 0.  0.
         24    2    3    3    0    0 -0.28138696337E+02  0.80417249613E+02 -0.10166201894E+03  0.15379766072E+03  0.77844936118E+02 0.  0.
         -6    2    1    2    0  502  0.68975961598E+02 -0.50124277321E+02  0.10418443836E+03  0.21882113394E+03  0.17250555065E+03 0.  0.
        -24    2    5    5    0    0 -0.55212249839E+01  0.24661011703E+02  0.47558631706E+02  0.98941017812E+02  0.82999109227E+02 0.  0.
          5    1    3    3  501    0 -0.40837265260E+02 -0.30292972292E+02  0.18101840200E+02  0.54176683387E+02  0.47000000000E+01 0. -1.
        -11    1    4    4    0    0 -0.40491361529E+02  0.14937989441E+02 -0.64188914242E+02  0.77349276652E+02  0.00000000000E+00 0.  1.
         12    1    4    4    0    0  0.12352665192E+02  0.65479260172E+02 -0.37473104700E+02  0.76448384063E+02  0.00000000000E+00 0. -1.
         -5    1    5    5    0  502  0.74497186582E+02 -0.74785289023E+02  0.56625806651E+02  0.11988011612E+03  0.47000000000E+01 0.  1.
         13    1    6    6    0    0  0.22684124757E+02 -0.16637029233E+02 -0.24236024666E+01  0.28235334363E+02  0.00000000000E+00 0. -1.
        -14    1    6    6    0    0 -0.28205349741E+02  0.41298040935E+02  0.49982234172E+02  0.70705683449E+02  0.00000000000E+00 0.  1.
</event>
<event>
12    1  0.8358445E-002  0.2360431E+03  0.7818608E-02  0.1122710E+00
         21   -1    0    0  503  502  0.00000000000E+00  0.00000000000E+00  0.87735919875E+03  0.87735919875E+03  0.00000000000E+00 0. -1.
         21   -1    0    0  501  503 -0.00000000000E+00 -0.00000000000E+00 -0.89238443897E+02  0.89238443897E+02  0.00000000000E+00 0. -1.
          6    2    1    2  501    0  0.11001480829E+03  0.11774547333E+03  0.13165827418E+03  0.26898792546E+03  0.17045042783E+03 0.  0.
         24    2    3    3    0    0  0.67138528766E+02  0.52840016699E+02  0.14872657421E+03  0.18921004311E+03  0.79882395594E+02 0.  0.
         -6    2    1    2    0  502 -0.11001480829E+03 -0.11774547333E+03  0.65646248067E+03  0.69760971719E+03  0.17247920006E+03 0.  0.
        -24    2    5    5    0    0 -0.79045970019E+02 -0.28003218911E+02  0.20046196506E+03  0.23180793379E+03  0.80730868258E+02 0.  0.
          5    1    3    3  501    0  0.42876279520E+02  0.64905456636E+02 -0.17068300032E+02  0.79777882352E+02  0.47000000000E+01 0. -1.
        -11    1    4    4    0    0  0.11584525619E+02  0.59727994695E+02  0.82150784606E+02  0.10222712945E+03  0.00000000000E+00 0.  1.
         12    1    4    4    0    0  0.55554003147E+02 -0.68879779957E+01  0.66575789606E+02  0.86982913657E+02  0.00000000000E+00 0. -1.
         -5    1    5    5    0  502 -0.30968838267E+02 -0.89742254424E+02  0.45600051561E+03  0.46580178339E+03  0.47000000000E+01 0.  1.
         11    1    6    6    0    0 -0.46458946218E+02 -0.55774383585E+02  0.14029952213E+03  0.15796572874E+03  0.00000000000E+00 0. -1.
        -12    1    6    6    0    0 -0.32587023801E+02  0.27771164675E+02  0.60162442930E+02  0.73842205052E+02  0.00000000000E+00 0.  1.
</event>
<event>
12    1  0.8358445E-002  0.1916043E+03  0.7818608E-02  0.1157190E+00
         21   -1    0    0  501  502  0.00000000000E+00  0.00000000000E+00  0.62233619513E+03  0.62233619513E+03  0.00000000000E+00 0. -1.
         21   -1    0    0  502  503 -0.00000000000E+00 -0.00000000000E+00 -0.86633259870E+02  0.86633259870E+02  0.00000000000E+00 0. -1.
         -6    2    1    2    0  503 -0.26403746119E+02 -0.80221288925E+02  0.67139210970E+02  0.20302684428E+03  0.17198724616E+03 0.  0.
        -24    2    3    3    0    0  0.11296106333E+02  0.13338962035E+02  0.47553340600E+02  0.10016530748E+03  0.86407399533E+02 0.  0.
          6    2    1    2  501    0  0.26403746119E+02  0.80221288925E+02  0.46856372429E+03  0.50594261072E+03  0.17115299768E+03 0.  0.
         24    2    5    5    0    0  0.32066743029E+02  0.11831156770E+03  0.40742332640E+03  0.43353282461E+03  0.83252868126E+02 0.  0.
          5    1    5    5  501    0 -0.56629969093E+01 -0.38090278778E+02  0.61140397882E+02  0.72409786110E+02  0.47000000000E+01 0. -1.
        -11    1    6    6    0    0 -0.21494204783E+02  0.46092175015E+02  0.87415945861E+02  0.10113375810E+03  0.00000000000E+00 0.  1.
         12    1    6    6    0    0  0.53560947812E+02  0.72219392688E+02  0.32000738054E+03  0.33239906650E+03  0.00000000000E+00 0. -1.
         -5    1    3    3    0  503 -0.37699852453E+02 -0.93560250960E+02  0.19585870370E+02  0.10286153680E+03  0.47000000000E+01 0.  1.
         11    1    4    4    0    0 -0.72124148985E+01  0.13865586481E+02 -0.22673585881E+02  0.27538426132E+02  0.00000000000E+00 0. -1.
        -12    1    4    4    0    0  0.18508521232E+02 -0.52662444556E+00  0.70226926481E+02  0.72626881349E+02  0.00000000000E+00 0.  1.
</event>
<event>
12    1  0.8358445E-002  0.1889324E+03  0.7818608E-02  0.1160717E+00
         21   -1    0    0  503  502  0.00000000000E+00  0.00000000000E+00  0.20187532008E+03  0.20187532008E+03  0.00000000000E+00 0. -1.
         21   -1    0    0  501  503 -0.00000000000E+00 -0.00000000000E+00 -0.17194885122E+03  0.17194885122E+03  0.00000000000E+00 0. -1.
          6    2    1    2  501    0  0.18182640927E+02  0.75764941526E+02  0.23224453328E+02  0.19035443506E+03  0.17211769496E+03 0.  0.
         24    2    3    3    0    0 -0.53230589321E+02  0.79237634504E+02  0.13744917816E+02  0.11807815510E+03  0.68128038168E+02 0.  0.
         -6    2    1    2    0  502 -0.18182640927E+02 -0.75764941526E+02  0.67020155261E+01  0.18346973624E+03  0.16596774478E+03 0.  0.
        -24    2    5    5    0    0 -0.63786268020E+02 -0.25996751920E+02 -0.27008386362E+02  0.10787182161E+03  0.78500687041E+02 0.  0.
          5    1    3    3  501    0  0.71413230248E+02 -0.34726929780E+01  0.94795355124E+01  0.72276279958E+02  0.47000000000E+01 0. -1.
        -11    1    4    4    0    0 -0.51328877930E+02  0.17833563655E+02 -0.29433631893E+01  0.54418315750E+02  0.00000000000E+00 0.  1.
         12    1    4    4    0    0 -0.19017113906E+01  0.61404070849E+02  0.16688281005E+02  0.63659839349E+02  0.00000000000E+00 0. -1.
         -5    1    5    5    0  502  0.45603627093E+02 -0.49768189606E+02  0.33710401888E+02  0.75597914628E+02  0.47000000000E+01 0.  1.
         13    1    6    6    0    0 -0.23746658222E+02 -0.53416808731E+01 -0.51231474698E+02  0.56719496922E+02  0.00000000000E+00 0. -1.
        -14    1    6    6    0    0 -0.40039609798E+02 -0.20655071047E+02  0.24223088337E+02  0.51152324691E+02  0.00000000000E+00 0.  1.
</event>
<event>
12    1  0.8358445E-002  0.2258219E+03  0.7818608E-02  0.1129799E+00
         21   -1    0    0  503  502  0.00000000000E+00  0.00000000000E+00  0.26650156740E+03  0.26650156740E+03  0.00000000000E+00 0.  1.
         21   -1    0    0  501  503 -0.00000000000E+00 -0.00000000000E+00 -0.28680070499E+03  0.28680070499E+03  0.00000000000E+00 0.  1.
          6    2    1    2  501    0 -0.12819453344E+03 -0.71249104188E+02 -0.17045005928E+03  0.28211815579E+03  0.17037358324E+03 0.  0.
         24    2    3    3    0    0 -0.63849478678E+02 -0.10612785834E+03 -0.13665200558E+03  0.20136413423E+03  0.80832330669E+02 0.  0.
         -6    2    1    2    0  502  0.12819453344E+03  0.71249104188E+02  0.15015092169E+03  0.27118411660E+03  0.17171270355E+03 0.  0.
        -24    2    5    5    0    0  0.38977102363E+02  0.51790289017E+02  0.88559207564E+01  0.10288449454E+03  0.79406192074E+02 0.  0.
          5    1    3    3  501    0 -0.64345054765E+02  0.34878754157E+02 -0.33798053697E+02  0.80754021559E+02  0.47000000000E+01 0. -1.
        -11    1    4    4    0    0 -0.51215020699E+02 -0.58837329483E+02 -0.29205872395E+02  0.83293413115E+02  0.00000000000E+00 0.  1.
         12    1    4    4    0    0 -0.12634457980E+02 -0.47290528861E+02 -0.10744613319E+03  0.11807072112E+03  0.00000000000E+00 0. -1.
         -5    1    5    5    0  502  0.89217431081E+02  0.19458815171E+02  0.14129500093E+03  0.16829962206E+03  0.47000000000E+01 0.  1.
         13    1    6    6    0    0  0.24798085850E+02  0.72939102632E+02  0.68756148337E+01  0.77345535320E+02  0.00000000000E+00 0. -1.
        -14    1    6    6    0    0  0.14179016513E+02 -0.21148813615E+02  0.19803059227E+01  0.25538959222E+02  0.00000000000E+00 0.  1.
</event>
<event>
12    1  0.8358445E-002  0.2631348E+03  0.7818608E-02  0.1106035E+00
         21   -1    0    0  501  502  0.00000000000E+00  0.00000000000E+00  0.10983788949E+04  0.10983788949E+04  0.00000000000E+00 0.  1.
         21   -1    0    0  502  503 -0.00000000000E+00 -0.00000000000E+00 -0.18705378901E+03  0.18705378901E+03  0.00000000000E+00 0. -1.
         -6    2    1    2    0  503 -0.17948897358E+03 -0.71241897054E+02 -0.68740532720E+02  0.27196545552E+03  0.17874073018E+03 0.  0.
        -24    2    3    3    0    0 -0.18376918094E+03 -0.72692020648E+02 -0.10554110357E+02  0.21341485535E+03  0.79870329332E+02 0.  0.
          6    2    1    2  501    0  0.17948897358E+03  0.71241897054E+02  0.98006563865E+03  0.10134672284E+04  0.17115918765E+03 0.  0.
         24    2    5    5    0    0  0.19435035682E+03  0.50230648663E+02  0.94682284171E+03  0.97116466564E+03  0.79950828264E+02 0.  0.
          5    1    5    5  501    0 -0.14861383241E+02  0.21011248391E+02  0.33242796946E+02  0.42302562802E+02  0.47000000000E+01 0. -1.
        -11    1    6    6    0    0  0.17714927993E+03  0.58446709867E+02  0.91691654651E+03  0.93569965189E+03  0.00000000000E+00 0.  1.
         12    1    6    6    0    0  0.17201076890E+02 -0.82160612045E+01  0.29906295194E+02  0.35465013748E+02  0.00000000000E+00 0. -1.
         -5    1    3    3    0  503  0.42802073614E+01  0.14501235940E+01 -0.58186422363E+02  0.58550600175E+02  0.47000000000E+01 0.  1.
         13    1    4    4    0    0 -0.57078892763E+02 -0.61084527132E+02 -0.19612607494E+02  0.85871845367E+02  0.00000000000E+00 0. -1.
        -14    1    4    4    0    0 -0.12669028818E+03 -0.11607493516E+02  0.90584971364E+01  0.12754300998E+03  0.00000000000E+00 0.  1.
</event>
<event>
12    1  0.8358445E-002  0.2110584E+03  0.7818608E-02  0.1140827E+00
         21   -1    0    0  501  502  0.00000000000E+00  0.00000000000E+00  0.12697581829E+03  0.12697581829E+03  0.00000000000E+00 0. -1.
         21   -1    0    0  502  503 -0.00000000000E+00 -0.00000000000E+00 -0.37038711740E+03  0.37038711740E+03  0.00000000000E+00 0. -1.
         -6    2    1    2    0  503  0.53077954667E+02 -0.11284825639E+03 -0.17990912234E+03  0.27695835126E+03  0.16966625413E+03 0.  0.
        -24    2    3    3    0    0  0.27305103486E+02 -0.14405103870E+03 -0.12656265656E+03  0.20983317795E+03  0.80719180527E+02 0.  0.
          6    2    1    2  501    0 -0.53077954667E+02  0.11284825639E+03 -0.63502176764E+02  0.22040458443E+03  0.17027523642E+03 0.  0.
         24    2    5    5    0    0 -0.63334843161E+02  0.67826968734E+02 -0.10267001340E+03  0.15967296556E+03  0.79639966303E+02 0.  0.
          5    1    5    5  501    0  0.10256888494E+02  0.45021287660E+02  0.39167836632E+02  0.60731618870E+02  0.47000000000E+01 0. -1.
        -13    1    6    6    0    0  0.18563230809E+02  0.19842716894E+02 -0.26700776804E+02  0.38095385990E+02  0.00000000000E+00 0.  1.
         14    1    6    6    0    0 -0.81898073970E+02  0.47984251841E+02 -0.75969236591E+02  0.12157757957E+03  0.00000000000E+00 0. -1.
         -5    1    3    3    0  503  0.25772851181E+02  0.31202782304E+02 -0.53346465780E+02  0.67125173316E+02  0.47000000000E+01 0.  1.
         13    1    4    4    0    0  0.15875688818E+02 -0.13103585120E+03 -0.13648607302E+03  0.18987069264E+03  0.00000000000E+00 0. -1.
        -14    1    4    4    0    0  0.11429414668E+02 -0.13015187500E+02  0.99234164617E+01  0.19962485306E+02  0.00000000000E+00 0.  1.
</event>
<event>
12    1  0.8358445E-002  0.1827816E+03  0.7818608E-02  0.1165596E+00
         21   -1    0    0  501  502  0.00000000000E+00  0.00000000000E+00  0.56775121504E+03  0.56775121504E+03  0.00000000000E+00 0. -1.
         21   -1    0    0  502  503 -0.00000000000E+00 -0.00000000000E+00 -0.60171395060E+02  0.60171395060E+02  0.00000000000E+00 0. -1.
         -6    2    1    2    0  503  0.23370332354E+02 -0.55273848538E+02  0.19865745556E+03  0.26995163081E+03  0.17264914584E+03 0.  0.
        -24    2    3    3    0    0  0.56662722460E+02 -0.72000044277E+02  0.19816825088E+03  0.23239529733E+03  0.79638232496E+02 0.  0.
          6    2    1    2  501    0 -0.23370332354E+02  0.55273848538E+02  0.30892236442E+03  0.35797097929E+03  0.17061308277E+03 0.  0.
         24    2    5    5    0    0  0.37671514389E+02  0.66652543794E+02  0.13228382238E+03  0.17067750291E+03  0.75961146301E+02 0.  0.
          5    1    5    5  501    0 -0.61041846743E+02 -0.11378695256E+02  0.17663854204E+03  0.18729347638E+03  0.47000000000E+01 0. -1.
        -13    1    6    6    0    0 -0.35673712733E+01 -0.15374216884E+02  0.15441010296E+02  0.22079798042E+02  0.00000000000E+00 0.  1.
         14    1    6    6    0    0  0.41238885663E+02  0.82026760678E+02  0.11684281208E+03  0.14859770487E+03  0.00000000000E+00 0. -1.
         -5    1    3    3    0  503 -0.33292390106E+02  0.16726195739E+02  0.48920468644E+00  0.37556333475E+02  0.47000000000E+01 0.  1.
         13    1    4    4    0    0 -0.10552062533E+02 -0.17787293450E+02  0.57152258872E+01  0.21456878592E+02  0.00000000000E+00 0. -1.
        -14    1    4    4    0    0  0.67214784993E+02 -0.54212750827E+02  0.19245302499E+03  0.21093841874E+03  0.00000000000E+00 0.  1.
</event>
<event>
12    1  0.8358445E-002  0.1735245E+03  0.7818608E-02  0.1174282E+00
         21   -1    0    0  501  502  0.00000000000E+00  0.00000000000E+00  0.16066116851E+03  0.16066116851E+03  0.00000000000E+00 0. -1.
         21   -1    0    0  502  503 -0.00000000000E+00 -0.00000000000E+00 -0.18932322336E+03  0.18932322336E+03  0.00000000000E+00 0. -1.
         -6    2    1    2    0  503 -0.17097202339E+02 -0.40895801471E+01 -0.33020434306E+02  0.17640511669E+03  0.17239308895E+03 0.  0.
        -24    2    3    3    0    0  0.11153043109E+02  0.56561254102E+02 -0.45240714083E+02  0.10822868894E+03  0.79643964378E+02 0.  0.
          6    2    1    2  501    0  0.17097202339E+02  0.40895801471E+01  0.43583794601E+01  0.17357927519E+03  0.17263177665E+03 0.  0.
         24    2    5    5    0    0  0.31642737659E+02  0.18674626053E+02  0.64930142141E+02  0.10942847943E+03  0.80054133233E+02 0.  0.
          5    1    5    5  501    0 -0.14545535320E+02 -0.14585045906E+02 -0.60571762681E+02  0.64150795756E+02  0.47000000000E+01 0. -1.
        -13    1    6    6    0    0  0.25525543591E+02  0.28054934748E+02  0.81231923439E+02  0.89650756410E+02  0.00000000000E+00 0.  1.
         14    1    6    6    0    0  0.61171940681E+01 -0.93803086950E+01 -0.16301781298E+02  0.19777723023E+02  0.00000000000E+00 0. -1.
         -5    1    3    3    0  503 -0.28250245448E+02 -0.60650834249E+02  0.12220279778E+02  0.68176427750E+02  0.47000000000E+01 0.  1.
         13    1    4    4    0    0  0.22601658316E+02 -0.94576908466E+01  0.43309220398E+01  0.24880509651E+02  0.00000000000E+00 0. -1.
        -14    1    4    4    0    0 -0.11448615207E+02  0.66018944948E+02 -0.49571636123E+02  0.83348179285E+02  0.00000000000E+00 0.  1.
</event>
<event>
12    1  0.8358445E-002  0.2279605E+03  0.7818608E-02  0.1128325E+00
         21   -1    0    0  503  502  0.00000000000E+00  0.00000000000E+00  0.35646497444E+03  0.35646497444E+03  0.00000000000E+00 0.  1.
         21   -1    0    0  501  503 -0.00000000000E+00 -0.00000000000E+00 -0.15142609413E+03  0.15142609413E+03  0.00000000000E+00 0.  1.
          6    2    1    2  501    0  0.13588491395E+03  0.50461926543E+02  0.49583659442E+02  0.23197024475E+03  0.17418535901E+03 0.  0.
         24    2    3    3    0    0  0.98745879822E+02  0.10226689501E+03  0.41521678681E+02  0.16754860127E+03  0.78353158148E+02 0.  0.
         -6    2    1    2    0  502 -0.13588491395E+03 -0.50461926543E+02  0.15545522086E+03  0.27592082383E+03  0.17593993140E+03 0.  0.
        -24    2    5    5    0    0 -0.13269224431E+02 -0.25960222471E+02  0.11097102641E+02  0.84880783223E+02  0.78940459878E+02 0.  0.
          5    1    3    3  501    0  0.37139034127E+02 -0.51804968466E+02  0.80619807609E+01  0.64421643471E+02  0.47000000000E+01 0. -1.
        -13    1    4    4    0    0  0.98873293708E+02  0.53495448877E+02  0.19754411906E+02  0.11413994940E+03  0.00000000000E+00 0.  1.
         14    1    4    4    0    0 -0.12741388651E+00  0.48771446133E+02  0.21767266776E+02  0.53408651874E+02  0.00000000000E+00 0. -1.
         -5    1    5    5    0  502 -0.12261568952E+03 -0.24501704073E+02  0.14435811822E+03  0.19104004061E+03  0.47000000000E+01 0.  1.
         13    1    6    6    0    0 -0.13862163590E+02  0.26385643755E+02 -0.47589345014E+01  0.30182929503E+02  0.00000000000E+00 0. -1.
        -14    1    6    6    0    0  0.59293915903E+00 -0.52345866226E+02  0.15856037142E+02  0.54697853720E+02  0.00000000000E+00 0.  1.
</event>
<event>
12    1  0.8358445E-002  0.1790255E+03  0.7818608E-02  0.1170235E+00
         21   -1    0    0  503  502  0.00000000000E+00  0.00000000000E+00  0.75928084416E+02  0.75928084416E+02  0.00000000000E+00 0.  1.
         21   -1    0    0  501  503 -0.00000000000E+00 -0.00000000000E+00 -0.42197873449E+03  0.42197873449E+03  0.00000000000E+00 0.  1.
          6    2    1    2  501    0  0.52954227869E+02  0.13811788292E+02 -0.21529776387E+03  0.27621686908E+03  0.16415759468E+03 0.  0.
         24    2    3    3    0    0  0.23912929106E+02  0.65918701116E+02 -0.17526681627E+03  0.20422315988E+03  0.77920079641E+02 0.  0.
         -6    2    1    2    0  502 -0.52954227869E+02 -0.13811788292E+02 -0.13075288621E+03  0.22168994983E+03  0.17045586191E+03 0.  0.
        -24    2    5    5    0    0 -0.81789735148E+02 -0.54485925393E+01 -0.29896208116E+02  0.11635434788E+03  0.76975990242E+02 0.  0.
          5    1    3    3  501    0  0.29041298763E+02 -0.52106912824E+02 -0.40030947595E+02  0.71993709192E+02  0.47000000000E+01 0. -1.
        -11    1    4    4    0    0  0.50656750198E+01  0.57816182565E+02 -0.48004851413E+02  0.75318243401E+02  0.00000000000E+00 0.  1.
         12    1    4    4    0    0  0.18847254086E+02  0.81025185508E+01 -0.12726196486E+03  0.12890491648E+03  0.00000000000E+00 0. -1.
         -5    1    5    5    0  502  0.28835507279E+02 -0.83631957525E+01 -0.10085667809E+03  0.10533560196E+03  0.47000000000E+01 0.  1.
         13    1    6    6    0    0 -0.66665179932E+02  0.20893746250E+02 -0.44313110252E+02  0.82731170594E+02  0.00000000000E+00 0. -1.
        -14    1    6    6    0    0 -0.15124555217E+02 -0.26342338789E+02  0.14416902136E+02  0.33623177282E+02  0.00000000000E+00 0.  1.
</event>
<event>
12    1  0.8358445E-002  0.2327437E+03  0.7818608E-02  0.1124755E+00
         21   -1    0    0  501  502  0.00000000000E+00  0.00000000000E+00  0.12028221910E+03  0.12028221910E+03  0.00000000000E+00 0. -1.
         21   -1    0    0  502  503 -0.00000000000E+00 -0.00000000000E+00 -0.93186089940E+03  0.93186089940E+03  0.00000000000E+00 0. -1.
         -6    2    1    2    0  503  0.23937636952E+02  0.15462867754E+03 -0.78400644976E+03  0.81777190582E+03  0.17205155710E+03 0.  0.
        -24    2    3    3    0    0  0.25814227099E+02  0.17592412326E+03 -0.56820287165E+03  0.60086111327E+03  0.81017915448E+02 0.  0.
          6    2    1    2  501    0 -0.23937636952E+02 -0.15462867754E+03 -0.27572230539E+02  0.23437121268E+03  0.17229799493E+03 0.  0.
         24    2    5    5    0    0 -0.74012988960E+02 -0.14323023592E+03 -0.26750033877E+02  0.18279378198E+03  0.81885159842E+02 0.  0.
          5    1    5    5  501    0  0.50075352008E+02 -0.11398441618E+02 -0.82219666277E+00  0.51577430698E+02  0.47000000000E+01 0. -1.
        -13    1    6    6    0    0 -0.10222127560E+02 -0.18460570519E+02 -0.36674115537E+02  0.42311645042E+02  0.00000000000E+00 0.  1.
         14    1    6    6    0    0 -0.63790861400E+02 -0.12476966540E+03  0.99240816598E+01  0.14048213694E+03  0.00000000000E+00 0. -1.
         -5    1    3    3    0  503 -0.18765901474E+01 -0.21295445719E+02 -0.21580357811E+03  0.21691079255E+03  0.47000000000E+01 0.  1.
         11    1    4    4    0    0  0.43388309282E+02  0.64564737205E+02 -0.16897694850E+03  0.18602247121E+03  0.00000000000E+00 0. -1.
        -12    1    4    4    0    0 -0.17574082182E+02  0.11135938606E+03 -0.39922592315E+03  0.41483864206E+03  0.00000000000E+00 0.  1.
</event>
<event>
12    1  0.8358445E-002  0.1826880E+03  0.7818608E-02  0.1165565E+00
         21   -1    0    0  503  502  0.00000000000E+00  0.00000000000E+00  0.23386229114E+03  0.23386229114E+03  0.00000000000E+00 0. -1.
         21   -1    0    0  501  503 -0.00000000000E+00 -0.00000000000E+00 -0.50425693894E+03  0.50425693894E+03  0.00000000000E+00 0. -1.
          6    2    1    2  501    0  0.12069740766E+02 -0.60027605127E+02 -0.44832401705E+03  0.48411705293E+03  0.17212177277E+03 0.  0.
         24    2    3    3    0    0 -0.45801926435E+00 -0.18673530883E+02 -0.42887244308E+03  0.43649817057E+03  0.79058016269E+02 0.  0.
         -6    2    1    2    0  502 -0.12069740766E+02  0.60027605127E+02  0.17792936924E+03  0.25400217714E+03  0.17061434152E+03 0.  0.
        -24    2    5    5    0    0  0.57752588816E+01  0.55331780428E+02  0.20141580267E+03  0.22376648074E+03  0.80050938754E+02 0.  0.
          5    1    3    3  501    0  0.12527760030E+02 -0.41354074243E+02 -0.19451573961E+02  0.47618882363E+02  0.47000000000E+01 0. -1.
        -13    1    4    4    0    0 -0.21659290831E+02 -0.61116055623E+01 -0.33494154548E+02  0.40352633009E+02  0.00000000000E+00 0.  1.
         14    1    4    4    0    0  0.21201271566E+02 -0.12561925321E+02 -0.39537828854E+03  0.39614553756E+03  0.00000000000E+00 0. -1.
         -5    1    5    5    0  502 -0.17844999648E+02  0.46958246986E+01 -0.23486433426E+02  0.30235696405E+02  0.47000000000E+01 0.  1.
         11    1    6    6    0    0 -0.25767681273E+02 -0.30635078948E+01  0.28462827088E+02  0.38516113572E+02  0.00000000000E+00 0. -1.
        -12    1    6    6    0    0  0.31542940155E+02  0.58395288323E+02  0.17295297558E+03  0.18525036716E+03  0.00000000000E+00 0.  1.
</event>
<event>
12    1  0.8358445E-002  0.4731449E+03  0.7818608E-02  0.1021042E+00
         21   -1    0    0  503  502  0.00000000000E+00  0.00000000000E+00  0.12310947590E+03  0.12310947590E+03  0.00000000000E+00 0. -1.
         21   -1    0    0  501  503 -0.00000000000E+00 -0.00000000000E+00 -0.19579868762E+04  0.19579868762E+04  0.00000000000E+00 0. -1.
          6    2    1    2  501    0 -0.43778687975E+03 -0.51198938867E+02 -0.11954696407E+04  0.12856666429E+04  0.17179165153E+03 0.  0.
         24    2    3    3    0    0 -0.23177020182E+03  0.22792197689E+02 -0.51372067415E+03  0.56962104156E+03  0.79512824212E+02 0.  0.
         -6    2    1    2    0  502  0.43778687975E+03  0.51198938867E+02 -0.63940775960E+03  0.79542970916E+03  0.17201004551E+03 0.  0.
        -24    2    5    5    0    0  0.35733129413E+03  0.71503277657E+02 -0.42959896980E+03  0.56975918448E+03  0.85275324502E+02 0.  0.
          5    1    3    3  501    0 -0.20601667792E+03 -0.73991136556E+02 -0.68174896653E+03  0.71604560137E+03  0.47000000000E+01 0. -1.
        -13    1    4    4    0    0 -0.14470510989E+03  0.51842708086E+02 -0.34045922410E+03  0.37355015524E+03  0.00000000000E+00 0.  1.
         14    1    4    4    0    0 -0.87065091937E+02 -0.29050510397E+02 -0.17326145005E+03  0.19607088632E+03  0.00000000000E+00 0. -1.
         -5    1    5    5    0  502  0.80455585619E+02 -0.20304338790E+02 -0.20980878980E+03  0.22567052468E+03  0.47000000000E+01 0.  1.
         13    1    6    6    0    0  0.23544275555E+03  0.56354955018E+01 -0.27945893898E+03  0.36546182910E+03  0.00000000000E+00 0. -1.
        -14    1    6    6    0    0  0.12188853857E+03  0.65867782155E+02 -0.15014003082E+03  0.20429735538E+03  0.00000000000E+00 0.  1.
</event>
<event>
12    1  0.8358445E-002  0.2865678E+03  0.7818608E-02  0.1092409E+00
         21   -1    0    0  503  502  0.00000000000E+00  0.00000000000E+00  0.55250946825E+02  0.55250946825E+02  0.00000000000E+00 0.  1.
         21   -1    0    0  501  503 -0.00000000000E+00 -0.00000000000E+00 -0.16156748672E+04  0.16156748672E+04  0.00000000000E+00 0. -1.
          6    2    1    2  501    0 -0.11065082998E+03 -0.19998462890E+03 -0.10230897632E+04  0.10619520101E+04  0.16968190894E+03 0.  0.
         24    2    3    3    0    0 -0.12914547677E+03 -0.10323538670E+03 -0.72777484035E+03  0.75060740764E+03  0.80119678714E+02 0.  0.
         -6    2    1    2    0  502  0.11065082998E+03  0.19998462890E+03 -0.53733415709E+03  0.60897380384E+03  0.17286885033E+03 0.  0.
        -24    2    5    5    0    0  0.68900616064E+02  0.21610448792E+03 -0.47412943061E+03  0.53138606212E+03  0.78255897190E+02 0.  0.
          5    1    3    3  501    0  0.18494646785E+02 -0.96749242197E+02 -0.29531492290E+03  0.31134460251E+03  0.47000000000E+01 0. -1.
        -11    1    4    4    0    0 -0.46832675588E+02  0.50185678178E+01 -0.16122345679E+03  0.16796275940E+03  0.00000000000E+00 0.  1.
         12    1    4    4    0    0 -0.82312801181E+02 -0.10825395452E+03 -0.56655138356E+03  0.58264464824E+03  0.00000000000E+00 0. -1.
         -5    1    5    5    0  502  0.41750213920E+02 -0.16119859016E+02 -0.63204726480E+02  0.77587741728E+02  0.47000000000E+01 0.  1.
         11    1    6    6    0    0 -0.15011127023E+02  0.67244640836E+02 -0.14519540400E+03  0.16071366152E+03  0.00000000000E+00 0. -1.
        -12    1    6    6    0    0  0.83911743087E+02  0.14885984708E+03 -0.32893402661E+03  0.37067240060E+03  0.00000000000E+00 0.  1.
</event>
<event>
12    1  0.8358445E-002  0.1819266E+03  0.7818608E-02  0.1165985E+00
         21   -1    0    0  503  502  0.00000000000E+00  0.00000000000E+00  0.74901879760E+02  0.74901879760E+02  0.00000000000E+00 0. -1.
         21   -1    0    0  501  503 -0.00000000000E+00 -0.00000000000E+00 -0.60092483169E+03  0.60092483169E+03  0.00000000000E+00 0. -1.
          6    2    1    2  501    0 -0.49406743437E+02 -0.31987059034E+02 -0.43696815064E+03  0.47327292799E+03  0.17199389944E+03 0.  0.
         24    2    3    3    0    0  0.21006867421E+02 -0.22074775936E+02 -0.35160239000E+03  0.36207161036E+03  0.80888974330E+02 0.  0.
         -6    2    1    2    0  502  0.49406743437E+02  0.31987059034E+02 -0.89054801292E+02  0.20255378347E+03  0.17214261332E+03 0.  0.
        -24    2    5    5    0    0  0.57132835925E+02  0.80950370819E+02 -0.88227996012E+02  0.15275547011E+03  0.75716120427E+02 0.  0.
          5    1    3    3  501    0 -0.70413610858E+02 -0.99122830977E+01 -0.85365760648E+02  0.11120131762E+03  0.47000000000E+01 0. -1.
        -13    1    4    4    0    0 -0.15742761426E+02 -0.38905839706E+02 -0.23354690297E+03  0.23728812610E+03  0.00000000000E+00 0.  1.
         14    1    4    4    0    0  0.36749628847E+02  0.16831063770E+02 -0.11805548702E+03  0.12478348426E+03  0.00000000000E+00 0. -1.
         -5    1    5    5    0  502 -0.77260924881E+01 -0.48963311785E+02 -0.82680527939E+00  0.49798313356E+02  0.47000000000E+01 0.  1.
         13    1    6    6    0    0  0.29472755983E+02  0.74794509779E+01 -0.63571663325E+02  0.70469439547E+02  0.00000000000E+00 0. -1.
        -14    1    6    6    0    0  0.27660079942E+02  0.73470919841E+02 -0.24656332688E+02  0.82286030566E+02  0.00000000000E+00 0.  1.
</event>
<event>
12    1  0.8358445E-002  0.1918626E+03  0.7818608E-02  0.1156928E+00
         21   -1    0    0  503  502  0.00000000000E+00  0.00000000000E+00  0.19248917454E+03  0.19248917454E+03  0.00000000000E+00 0.  1.
         21   -1    0    0  501  503 -0.00000000000E+00 -0.00000000000E+00 -0.74505358283E+03  0.74505358283E+03  0.00000000000E+00 0.  1.
          6    2    1    2  501    0 -0.82043027809E+02 -0.15901258787E+02 -0.68054796773E+03  0.70691090831E+03  0.17202786827E+03 0.  0.
         24    2    3    3    0    0 -0.75753242762E+02  0.51141870463E+02 -0.41672307976E+03  0.43458756357E+03  0.82789978280E+02 0.  0.
         -6    2    1    2    0  502  0.82043027809E+02  0.15901258787E+02  0.12798355944E+03  0.23063184906E+03  0.17270596363E+03 0.  0.
        -24    2    5    5    0    0  0.68897325114E+02  0.40782773652E+01 -0.85022236342E+01  0.92925453533E+02  0.61639097605E+02 0.  0.
          5    1    3    3  501    0 -0.62897850469E+01 -0.67043129250E+02 -0.26382488797E+03  0.27232334473E+03  0.47000000000E+01 0. -1.
        -11    1    4    4    0    0  0.11180111799E+02  0.28578539444E+02 -0.15129628532E+03  0.15437711543E+03  0.00000000000E+00 0.  1.
         12    1    4    4    0    0 -0.86933354561E+02  0.22563331019E+02 -0.26542679444E+03  0.28021044814E+03  0.00000000000E+00 0. -1.
         -5    1    5    5    0  502  0.13145702695E+02  0.11822981422E+02  0.13648578307E+03  0.13770639553E+03  0.47000000000E+01 0.  1.
         13    1    6    6    0    0  0.33284786214E+02  0.32687812792E+02 -0.12194958787E+01  0.46667518347E+02  0.00000000000E+00 0. -1.
        -14    1    6    6    0    0  0.35612538899E+02 -0.28609535427E+02 -0.72827277555E+01  0.46257935187E+02  0.00000000000E+00 0.  1.
</event>
<event>
12    1  0.8358445E-002  0.1762317E+03  0.7818608E-02  0.1171925E+00
         21   -1    0    0  501  502  0.00000000000E+00  0.00000000000E+00  0.19882051973E+04  0.19882051973E+04  0.00000000000E+00 0. -1.
         21   -1    0    0  502  503 -0.00000000000E+00 -0.00000000000E+00 -0.17524867085E+02  0.17524867085E+02  0.00000000000E+00 0. -1.
         -6    2    1    2    0  503  0.19374697824E+02  0.26671652030E+02  0.63778938836E+03  0.66123912731E+03  0.17139172571E+03 0.  0.
        -24    2    3    3    0    0  0.57932517691E+02 -0.32944951506E+02  0.21040353539E+03  0.22797061678E+03  0.57091225056E+02 0.  0.
          6    2    1    2  501    0 -0.19374697824E+02 -0.26671652030E+02  0.13328909418E+04  0.13444909371E+04  0.17312094345E+03 0.  0.
         24    2    5    5    0    0 -0.58332610379E+02 -0.50840829658E+02  0.59528040350E+03  0.60544204533E+03  0.78827838152E+02 0.  0.
          5    1    5    5  501    0  0.38957912555E+02  0.24169177629E+02  0.73761053833E+03  0.73904889172E+03  0.47000000000E+01 0. -1.
        -11    1    6    6    0    0 -0.57284886844E+02  0.19259522949E+01  0.33440534815E+03  0.33928189522E+03  0.00000000000E+00 0.  1.
         12    1    6    6    0    0 -0.10477235353E+01 -0.52766781953E+02  0.26087505535E+03  0.26616015011E+03  0.00000000000E+00 0. -1.
         -5    1    3    3    0  503 -0.38557819868E+02  0.59616603536E+02  0.42738585297E+03  0.43326851052E+03  0.47000000000E+01 0.  1.
         11    1    4    4    0    0 -0.17213869324E+01  0.10188424017E+02  0.55641358167E+02  0.56592648777E+02  0.00000000000E+00 0. -1.
        -12    1    4    4    0    0  0.59653904624E+02 -0.43133375523E+02  0.15476217722E+03  0.17137796801E+03  0.00000000000E+00 0.  1.
</event>
<event>
12    1  0.8358445E-002  0.3239510E+03  0.7818608E-02  0.1074058E+00
         21   -1    0    0  501  502  0.00000000000E+00  0.00000000000E+00  0.33026468188E+03  0.33026468188E+03  0.00000000000E+00 0.  1.
         21   -1    0    0  502  503 -0.00000000000E+00 -0.00000000000E+00 -0.31592729602E+03  0.31592729602E+03  0.00000000000E+00 0. -1.
         -6    2    1    2    0  503  0.25373789097E+03 -0.99801492446E+02  0.56163333529E+01  0.32212357663E+03  0.17143161964E+03 0.  0.
        -24    2    3    3    0    0  0.92286102847E+02 -0.44940316986E+02 -0.46661796897E+02  0.14370967200E+03  0.89099885906E+02 0.  0.
          6    2    1    2  501    0 -0.25373789097E+03  0.99801492446E+02  0.87210525058E+01  0.32406840127E+03  0.17493146297E+03 0.  0.
         24    2    5    5    0    0 -0.10219097839E+03  0.69773399695E+01 -0.45860782211E+02  0.13810050975E+03  0.80478942032E+02 0.  0.
          5    1    5    5  501    0 -0.15154691259E+03  0.92824152476E+02  0.54581834717E+02  0.18596789153E+03  0.47000000000E+01 0. -1.
        -13    1    6    6    0    0  0.74817697972E+01  0.17821151968E+02 -0.12244371014E+02  0.22880012201E+02  0.00000000000E+00 0.  1.
         14    1    6    6    0    0 -0.10967274818E+03 -0.10843811999E+02 -0.33616411197E+02  0.11522049755E+03  0.00000000000E+00 0. -1.
         -5    1    3    3    0  503  0.16145178813E+03 -0.54861175460E+02  0.52278130250E+02  0.17841390463E+03  0.47000000000E+01 0.  1.
         13    1    4    4    0    0  0.18902274687E+02  0.24818444377E+02 -0.25452287447E+02  0.40262514898E+02  0.00000000000E+00 0. -1.
        -14    1    4    4    0    0  0.73383828160E+02 -0.69758761363E+02 -0.21209509450E+02  0.10344715711E+03  0.00000000000E+00 0.  1.
</event>
<event>
12    1  0.8358445E-002  0.2812554E+03  0.7818608E-02  0.1095294E+00
         21   -1    0    0  501  502  0.00000000000E+00  0.00000000000E+00  0.99652076802E+03  0.99652076802E+03  0.00000000000E+00 0.  1.
         21   -1    0    0  502  503 -0.00000000000E+00 -0.00000000000E+00 -0.13948938039E+03  0.13948938039E+03  0.00000000000E+00 0.  1.
         -6    2    1    2    0  503  0.18252109588E+03  0.12216718412E+03  0.54723327044E+02  0.28652969056E+03  0.17568679441E+03 0.  0.
        -24    2    3    3    0    0  0.19648860675E+03  0.84187595302E+02  0.14153745183E+02  0.22903602570E+03  0.81005239218E+02 0.  0.
          6    2    1    2  501    0 -0.18252109588E+03 -0.12216718412E+03  0.80230806058E+03  0.84948045785E+03  0.17227899719E+03 0.  0.
         24    2    5    5    0    0 -0.70816629808E+02 -0.62277347423E+02  0.58600569191E+03  0.59873460051E+03  0.78657408006E+02 0.  0.
          5    1    5    5  501    0 -0.11170446607E+03 -0.59889836698E+02  0.21630236867E+03  0.25074585734E+03  0.47000000000E+01 0. -1.
        -13    1    6    6    0    0 -0.74499135646E+02 -0.20373817063E+02  0.30650716538E+03  0.31608836749E+03  0.00000000000E+00 0.  1.
         14    1    6    6    0    0  0.36825058385E+01 -0.41903530360E+02  0.27949852653E+03  0.28264623301E+03  0.00000000000E+00 0. -1.
         -5    1    3    3    0  503 -0.13967510865E+02  0.37979588819E+02  0.40569581862E+02  0.57493664860E+02  0.47000000000E+01 0.  1.
         11    1    4    4    0    0  0.61689666504E+02  0.17639907975E+02  0.41256550481E+02  0.76281611574E+02  0.00000000000E+00 0. -1.
        -12    1    4    4    0    0  0.13479894024E+03  0.66547687328E+02 -0.27102805299E+02  0.15275441412E+03  0.00000000000E+00 0.  1.
</event>
<event>
12    1  0.8358445E-002  0.1768692E+03  0.7818608E-02  0.1171449E+00
         21   -1    0    0  503  502  0.00000000000E+00  0.00000000000E+00  0.10740024178E+03  0.10740024178E+03  0.00000000000E+00 0. -1.
         21   -1    0    0  501  503 -0.00000000000E+00 -0.00000000000E+00 -0.32240603989E+03  0.32240603989E+03  0.00000000000E+00 0. -1.
          6    2    1    2  501    0  0.41516733426E+02 -0.13671866031E+01 -0.17890551711E+03  0.25157485846E+03  0.17192212482E+03 0.  0.
         24    2    3    3    0    0  0.51064256120E+01 -0.64064012550E+02 -0.99105056885E+02  0.14365448990E+03  0.81758955967E+02 0.  0.
         -6    2    1    2    0  502 -0.41516733426E+02  0.13671866031E+01 -0.36100281007E+02  0.17823142322E+03  0.16952197964E+03 0.  0.
        -24    2    5    5    0    0 -0.26044885183E+02  0.53742473177E+02 -0.61128557738E+02  0.11797320081E+03  0.81328875995E+02 0.  0.
          5    1    3    3  501    0  0.36410307814E+02  0.62696825947E+02 -0.79800460222E+02  0.10792036856E+03  0.47000000000E+01 0. -1.
        -11    1    4    4    0    0 -0.19051116620E+02  0.13049372005E+02 -0.19540542564E+02  0.30250024097E+02  0.00000000000E+00 0.  1.
         12    1    4    4    0    0  0.24157542232E+02 -0.77113384555E+02 -0.79564514320E+02  0.11340446580E+03  0.00000000000E+00 0. -1.
         -5    1    5    5    0  502 -0.15471848243E+02 -0.52375286574E+02  0.25028276730E+02  0.60258222408E+02  0.47000000000E+01 0.  1.
         13    1    6    6    0    0 -0.47909098825E+02  0.17482451584E+02 -0.10670967308E+02  0.52103621821E+02  0.00000000000E+00 0. -1.
        -14    1    6    6    0    0  0.21864213641E+02  0.36260021593E+02 -0.50457590429E+02  0.65869578987E+02  0.00000000000E+00 0.  1.
</event>
<event>
12    1  0.8358445E-002  0.2306144E+03  0.7818608E-02  0.1126360E+00
         21   -1    0    0  501  502  0.00000000000E+00  0.00000000000E+00  0.18618068634E+04  0.18618068634E+04  0.00000000000E+00 0.  1.
         21   -1    0    0  502  503 -0.00000000000E+00 -0.00000000000E+00 -0.12886946872E+03  0.12886946872E+03  0.00000000000E+00 0. -1.
         -6    2    1    2    0  503  0.88764786482E+02  0.12442672230E+03 -0.12483733760E+02  0.23008611634E+03  0.17153011625E+03 0.  0.
        -24    2    3    3    0    0  0.62687445764E+02  0.57570765701E+02 -0.71288989288E+02  0.13718888974E+03  0.80588848823E+02 0.  0.
          6    2    1    2  501    0 -0.88764786482E+02 -0.12442672230E+03  0.17454211284E+04  0.17605902158E+04  0.17268988322E+03 0.  0.
         24    2    5    5    0    0 -0.12670260809E+03 -0.11206025875E+03  0.15305322010E+04  0.15419774329E+04  0.80960068001E+02 0.  0.
          5    1    5    5  501    0  0.37937821606E+02 -0.12366463549E+02  0.21488892741E+03  0.21861278291E+03  0.47000000000E+01 0. -1.
        -13    1    6    6    0    0 -0.53455727313E+02 -0.84205251647E+02  0.10878347502E+04  0.10923975846E+04  0.00000000000E+00 0.  1.
         14    1    6    6    0    0 -0.73246880775E+02 -0.27855007102E+02  0.44269745081E+03  0.44957984821E+03  0.00000000000E+00 0. -1.
         -5    1    3    3    0  503  0.26077340718E+02  0.66855956598E+02  0.58805255528E+02  0.92897226596E+02  0.47000000000E+01 0.  1.
         13    1    4    4    0    0  0.17483540950E+02 -0.12397603350E+02  0.73249668583E+01  0.22650163630E+02  0.00000000000E+00 0. -1.
        -14    1    4    4    0    0  0.45203904814E+02  0.69968369050E+02 -0.78613956146E+02  0.11453872611E+03  0.00000000000E+00 0.  1.
</event>
<event>
12    1  0.8358445E-002  0.1877339E+03  0.7818608E-02  0.1160812E+00
         21   -1    0    0  501  502  0.00000000000E+00  0.00000000000E+00  0.72842926751E+03  0.72842926751E+03  0.00000000000E+00 0.  1.
         21   -1    0    0  502  503 -0.00000000000E+00 -0.00000000000E+00 -0.10599423855E+03  0.10599423855E+03  0.00000000000E+00 0.  1.
         -6    2    1    2    0  503  0.47013305097E+02  0.58375015027E+02  0.32416571315E+01  0.18776189220E+03  0.17212241744E+03 0.  0.
        -24    2    3    3    0    0  0.11859392344E+02  0.78170134260E+02  0.52158709324E+02  0.12418035147E+03  0.80305751070E+02 0.  0.
          6    2    1    2  501    0 -0.47013305097E+02 -0.58375015027E+02  0.61919337183E+03  0.64666161386E+03  0.17074225570E+03 0.  0.
         24    2    5    5    0    0  0.37603926109E+02 -0.35356656118E+02  0.27428200464E+03  0.29074608753E+03  0.81477119200E+02 0.  0.
          5    1    5    5  501    0 -0.84617231207E+02 -0.23018358909E+02  0.34491136719E+03  0.35591552633E+03  0.47000000000E+01 0. -1.
        -13    1    6    6    0    0  0.14286030601E+02 -0.49084415818E+02  0.24731805590E+03  0.25254621621E+03  0.00000000000E+00 0.  1.
         14    1    6    6    0    0  0.23317895508E+02  0.13727759699E+02  0.26963948739E+02  0.38199871320E+02  0.00000000000E+00 0. -1.
         -5    1    3    3    0  503  0.35153912753E+02 -0.19795119233E+02 -0.48917052192E+02  0.63581540737E+02  0.47000000000E+01 0.  1.
         13    1    4    4    0    0  0.58204750183E+01 -0.15351698744E+02  0.18174634962E+02  0.24492242440E+02  0.00000000000E+00 0. -1.
        -14    1    4    4    0    0  0.60389173262E+01  0.93521833004E+02  0.33984074362E+02  0.99688109026E+02  0.00000000000E+00 0.  1.
</event>
<event>
12    1  0.8358445E-002  0.3098098E+03  0.7818608E-02  0.1080593E+00
         21   -1    0    0  501  502  0.00000000000E+00  0.00000000000E+00  0.33878610753E+03  0.33878610753E+03  0.00000000000E+00 0.  1.
         21   -1    0    0  502  503 -0.00000000000E+00 -0.00000000000E+00 -0.29560058627E+03  0.29560058627E+03  0.00000000000E+00 0. -1.
         -6    2    1    2    0  503 -0.52678558984E+01 -0.25645603686E+03 -0.46089864388E+02  0.31321938090E+03  0.17373731846E+03 0.  0.
        -24    2    3    3    0    0 -0.53608784644E+02 -0.16507953558E+03 -0.74763227186E+02  0.20583799465E+03  0.81575640031E+02 0.  0.
          6    2    1    2  501    0  0.52678558984E+01  0.25645603686E+03  0.89275385646E+02  0.32116731290E+03  0.17140857402E+03 0.  0.
         24    2    5    5    0    0  0.61188111725E+00  0.42135053332E+02  0.50011804608E+02  0.10317905433E+03  0.79806011893E+02 0.  0.
          5    1    5    5  501    0  0.46559747811E+01  0.21432098352E+03  0.39263581038E+02  0.21798825857E+03  0.47000000000E+01 0. -1.
        -13    1    6    6    0    0 -0.69576896838E+01  0.96901484144E+01  0.65401176006E+02  0.66480239508E+02  0.00000000000E+00 0.  1.
         14    1    6    6    0    0  0.75695708010E+01  0.32444904918E+02 -0.15389371399E+02  0.36698814821E+02  0.00000000000E+00 0. -1.
         -5    1    3    3    0  503  0.48340928746E+02 -0.91376501282E+02  0.28673362797E+02  0.10738138625E+03  0.47000000000E+01 0.  1.
         13    1    4    4    0    0  0.94166677315E+01 -0.44080642088E+02 -0.49753055301E+02  0.67135260108E+02  0.00000000000E+00 0. -1.
        -14    1    4    4    0    0 -0.63025452376E+02 -0.12099889349E+03 -0.25010171885E+02  0.13870273454E+03  0.00000000000E+00 0.  1.
</event>
<event>
12    1  0.8358445E-002  0.2107246E+03  0.7818608E-02  0.1141330E+00
         21   -1    0    0  503  502  0.00000000000E+00  0.00000000000E+00  0.87085022083E+02  0.87085022083E+02  0.00000000000E+00 0. -1.
         21   -1    0    0  501  503 -0.00000000000E+00 -0.00000000000E+00 -0.23702434325E+04  0.23702434325E+04  0.00000000000E+00 0. -1.
          6    2    1    2  501    0 -0.12174017624E+03 -0.35729772125E+01 -0.22303023648E+04  0.22400759986E+04  0.16987761524E+03 0.  0.
         24    2    3    3    0    0 -0.41160250885E+02 -0.44116429875E+01 -0.54861955135E+03  0.55645697905E+03  0.83350636311E+02 0.  0.
         -6    2    1    2    0  502  0.12174017624E+03  0.35729772125E+01 -0.52856045597E+02  0.21725245601E+03  0.17196345952E+03 0.  0.
        -24    2    5    5    0    0  0.73099588154E+02 -0.57115973868E+02 -0.63733250521E+02  0.13857934002E+03  0.80848760037E+02 0.  0.
          5    1    3    3  501    0 -0.80579925360E+02  0.83866577500E+00 -0.16816828135E+04  0.16836190195E+04  0.47000000000E+01 0. -1.
        -11    1    4    4    0    0 -0.61555870103E+02  0.97297790970E+01 -0.46721928212E+03  0.47135724385E+03  0.00000000000E+00 0.  1.
         12    1    4    4    0    0  0.20395619218E+02 -0.14141422084E+02 -0.81400269221E+02  0.85099735200E+02  0.00000000000E+00 0. -1.
         -5    1    5    5    0  502  0.48640588091E+02  0.60688951081E+02  0.10877204924E+02  0.78673115993E+02  0.47000000000E+01 0.  1.
         11    1    6    6    0    0  0.36195597344E+02 -0.28807893010E+02  0.13704350143E+02  0.48247540659E+02  0.00000000000E+00 0. -1.
        -12    1    6    6    0    0  0.36903990810E+02 -0.28308080858E+02 -0.77437600663E+02  0.90331799362E+02  0.00000000000E+00 0.  1.
</event>
<event>
12    1  0.8358445E-002  0.2683745E+03  0.7818608E-02  0.1102280E+00
         21   -1    0    0  503  502  0.00000000000E+00  0.00000000000E+00  0.74603178447E+03  0.74603178447E+03  0.00000000000E+00 0.  1.
         21   -1    0    0  501  503 -0.00000000000E+00 -0.00000000000E+00 -0.10512834870E+03  0.10512834870E+03  0.00000000000E+00 0. -1.
          6    2    1    2  501    0 -0.10139035613E+02 -0.20517613240E+03  0.19791995405E+03  0.33346238792E+03  0.17269861204E+03 0.  0.
         24    2    3    3    0    0 -0.45449488667E+02 -0.12907367750E+03  0.55331803291E+02  0.16795745605E+03  0.80140054566E+02 0.  0.
         -6    2    1    2    0  502  0.10139035613E+02  0.20517613240E+03  0.44298348172E+03  0.51769774525E+03  0.17197832715E+03 0.  0.
        -24    2    5    5    0    0  0.12470008031E+02  0.12664829783E+03  0.13899729045E+03  0.20368859137E+03  0.77288440659E+02 0.  0.
          5    1    3    3  501    0  0.35310453055E+02 -0.76102454905E+02  0.14258815076E+03  0.16550493187E+03  0.47000000000E+01 0. -1.
        -13    1    4    4    0    0  0.12962531607E+02 -0.12895575454E+02  0.30516515312E+02  0.35575002442E+02  0.00000000000E+00 0.  1.
         14    1    4    4    0    0 -0.58412020275E+02 -0.11617810204E+03  0.24815287979E+02  0.13238245361E+03  0.00000000000E+00 0. -1.
         -5    1    5    5    0  502 -0.23309724187E+01  0.78527834573E+02  0.30398619128E+03  0.31400915388E+03  0.47000000000E+01 0.  1.
         13    1    6    6    0    0 -0.18421099249E+01 -0.36643237334E+01 -0.65985774125E+01  0.77692896244E+01  0.00000000000E+00 0. -1.
        -14    1    6    6    0    0  0.14312117956E+02  0.13031262156E+03  0.14559586786E+03  0.19591930174E+03  0.00000000000E+00 0.  1.
</event>
<event>
12    1  0.8358445E-002  0.1798975E+03  0.7818608E-02  0.1169391E+00
         21   -1    0    0  501  502  0.00000000000E+00  0.00000000000E+00  0.25716436257E+03  0.25716436257E+03  0.00000000000E+00 0. -1.
         21   -1    0    0  502  503 -0.00000000000E+00 -0.00000000000E+00 -0.25408263258E+03  0.25408263258E+03  0.00000000000E+00 0. -1.
         -6    2    1    2    0  503 -0.24840042212E+01 -0.51204239065E+02 -0.18297687685E+03  0.25660014309E+03  0.17243854441E+03 0.  0.
        -24    2    3    3    0    0  0.34874419939E+02  0.25868447330E+02 -0.11922553459E+03  0.14972556948E+03  0.79483434285E+02 0.  0.
          6    2    1    2  501    0  0.24840042212E+01  0.51204239065E+02  0.18605860684E+03  0.25464685206E+03  0.16612997836E+03 0.  0.
         24    2    5    5    0    0 -0.49541772937E+02  0.70301653438E+02  0.13609212509E+03  0.17987966659E+03  0.80242870083E+02 0.  0.
          5    1    5    5  501    0  0.52025777159E+02 -0.19097414373E+02  0.49966481746E+02  0.74767185467E+02  0.47000000000E+01 0. -1.
        -13    1    6    6    0    0  0.34268266211E+01 -0.82666344886E+01 -0.47485510958E+01  0.10130603337E+02  0.00000000000E+00 0.  1.
         14    1    6    6    0    0 -0.52968599558E+02  0.78568287926E+02  0.14084067619E+03  0.16974906325E+03  0.00000000000E+00 0. -1.
         -5    1    3    3    0  503 -0.37358424160E+02 -0.77072686395E+02 -0.63751342261E+02  0.10687457361E+03  0.47000000000E+01 0.  1.
         13    1    4    4    0    0  0.41238469098E+02 -0.18890254950E+02 -0.60265791449E+02  0.75428235327E+02  0.00000000000E+00 0. -1.
        -14    1    4    4    0    0 -0.63640491591E+01  0.44758702280E+02 -0.58959743136E+02  0.74297334153E+02  0.00000000000E+00 0.  1.
</event>
<event>
12    1  0.8358445E-002  0.1807141E+03  0.7818608E-02  0.1167549E+00
         21   -1    0    0  501  502  0.00000000000E+00  0.00000000000E+00  0.35664829806E+02  0.35664829806E+02  0.00000000000E+00 0.  1.
         21   -1    0    0  502  503 -0.00000000000E+00 -0.00000000000E+00 -0.24487977633E+04  0.24487977633E+04  0.00000000000E+00 0.  1.
         -6    2    1    2    0  503  0.52185649724E+02  0.17396807649E+02 -0.21851995424E+03  0.28242178809E+03  0.17025012492E+03 0.  0.
        -24    2    3    3    0    0  0.97240726238E+02 -0.11035902808E+02 -0.15007935980E+03  0.19556222379E+03  0.78378690628E+02 0.  0.
          6    2    1    2  501    0 -0.52185649724E+02 -0.17396807649E+02 -0.21946129793E+04  0.22020408051E+04  0.17213827954E+03 0.  0.
         24    2    5    5    0    0 -0.80909776396E+02 -0.58678064957E+02 -0.17223447021E+04  0.17270790873E+04  0.79632868984E+02 0.  0.
          5    1    5    5  501    0  0.28724126672E+02  0.41281257308E+02 -0.47226827725E+03  0.47496171778E+03  0.47000000000E+01 0. -1.
        -11    1    6    6    0    0  0.61211611471E+01 -0.37619711419E+02 -0.47857037153E+03  0.48008573381E+03  0.00000000000E+00 0.  1.
         12    1    6    6    0    0 -0.87030937543E+02 -0.21058353538E+02 -0.12437743305E+04  0.12469933535E+04  0.00000000000E+00 0. -1.
         -5    1    3    3    0  503 -0.45055076514E+02  0.28432710457E+02 -0.68440594438E+02  0.86859564301E+02  0.47000000000E+01 0.  1.
         11    1    4    4    0    0  0.90314197161E+02 -0.12973288923E+02 -0.15947397036E+03  0.18373053001E+03  0.00000000000E+00 0. -1.
        -12    1    4    4    0    0  0.69265290772E+01  0.19373861150E+01  0.93946105631E+01  0.11831693778E+02  0.00000000000E+00 0.  1.
</event>
<event>
12    1  0.8358445E-002  0.1832380E+03  0.7818608E-02  0.1165523E+00
         21   -1    0    0  501  502  0.00000000000E+00  0.00000000000E+00  0.74753908174E+03  0.74753908174E+03  0.00000000000E+00 0. -1.
         21   -1    0    0  502  503 -0.00000000000E+00 -0.00000000000E+00 -0.47393803428E+02  0.47393803428E+02  0.00000000000E+00 0. -1.
         -6    2    1    2    0  503 -0.65206843857E+02  0.77871600331E+01  0.24805967470E+03  0.30839869551E+03  0.17106601308E+03 0.  0.
        -24    2    3    3    0    0 -0.33061422754E+02  0.60579511436E+02  0.21108687858E+03  0.23622225809E+03  0.80500621312E+02 0.  0.
          6    2    1    2  501    0  0.65206843857E+02 -0.77871600331E+01  0.45208560362E+03  0.48653418966E+03  0.16739639293E+03 0.  0.
         24    2    5    5    0    0  0.21781329172E+02 -0.91993749160E+01  0.93534037202E+02  0.12532914339E+03  0.79998270404E+02 0.  0.
          5    1    5    5  501    0  0.43425514686E+02  0.14122148829E+01  0.35855156641E+03  0.36120504627E+03  0.47000000000E+01 0. -1.
        -11    1    6    6    0    0 -0.27768880674E+02  0.64363266371E+01  0.18218237797E+02  0.33829590936E+02  0.00000000000E+00 0.  1.
         12    1    6    6    0    0  0.49550209846E+02 -0.15635701553E+02  0.75315799405E+02  0.91499552452E+02  0.00000000000E+00 0. -1.
         -5    1    3    3    0  503 -0.32145421104E+02 -0.52792351403E+02  0.36972796121E+02  0.72176437413E+02  0.47000000000E+01 0.  1.
         13    1    4    4    0    0 -0.46577574805E+02  0.28430120772E+01  0.97317017048E+02  0.10792661859E+03  0.00000000000E+00 0. -1.
        -14    1    4    4    0    0  0.13516152051E+02  0.57736499359E+02  0.11376986153E+03  0.12829563951E+03  0.00000000000E+00 0.  1.
</event>
<event>
12    1  0.8358445E-002  0.2428790E+03  0.7818608E-02  0.1118053E+00
         21   -1    0    0  503  502  0.00000000000E+00  0.00000000000E+00  0.24064524110E+03  0.24064524110E+03  0.00000000000E+00 0.  1.
         21   -1    0    0  501  503 -0.00000000000E+00 -0.00000000000E+00 -0.49703203081E+03  0.49703203081E+03  0.00000000000E+00 0. -1.
          6    2    1    2  501    0  0.69218686106E+02 -0.15515369728E+03 -0.39142266173E+03  0.46065376058E+03  0.17356926782E+03 0.  0.
         24    2    3    3    0    0  0.24213942286E+02 -0.99192588800E+01 -0.19317741050E+03  0.21077031034E+03  0.80136789920E+02 0.  0.
         -6    2    1    2    0  502 -0.69218686106E+02  0.15515369728E+03  0.13503587202E+03  0.27702351133E+03  0.17217271217E+03 0.  0.
        -24    2    5    5    0    0 -0.85323723478E+02  0.17237844538E+03  0.91248887265E+02  0.22706898992E+03  0.78990509163E+02 0.  0.
          5    1    3    3  501    0  0.45004743819E+02 -0.14523443840E+03 -0.19824525124E+03  0.24988345023E+03  0.47000000000E+01 0. -1.
        -13    1    4    4    0    0  0.31575262236E+02  0.54621692252E+01 -0.19089524247E+03  0.19356607677E+03  0.00000000000E+00 0.  1.
         14    1    4    4    0    0 -0.73613199503E+01 -0.15381428105E+02 -0.22821680244E+01  0.17204233574E+02  0.00000000000E+00 0. -1.
         -5    1    5    5    0  502  0.16105037372E+02 -0.17224748101E+02  0.43786984752E+02  0.49954521413E+02  0.47000000000E+01 0.  1.
         11    1    6    6    0    0 -0.46503736537E+02  0.67310517592E+02 -0.12200915650E+01  0.81821708084E+02  0.00000000000E+00 0. -1.
        -12    1    6    6    0    0 -0.38819986941E+02  0.10506792779E+03  0.92468978830E+02  0.14524728184E+03  0.00000000000E+00 0.  1.
</event>
<event>
12    1  0.8358445E-002  0.2105386E+03  0.7818608E-02  0.1141567E+00
         21   -1    0    0  503  502  0.00000000000E+00  0.00000000000E+00  0.79999495642E+02  0.79999495642E+02  0.00000000000E+00 0. -1.
         21   -1    0    0  501  503 -0.00000000000E+00 -0.00000000000E+00 -0.10899041063E+04  0.10899041063E+04  0.00000000000E+00 0. -1.
          6    2    1    2  501    0 -0.56925908463E+02 -0.10268813768E+03 -0.91594353429E+03  0.93934948010E+03  0.17216118926E+03 0.  0.
         24    2    3    3    0    0 -0.18130746641E+02 -0.12139935599E+03 -0.49352731295E+03  0.51471701747E+03  0.79359132026E+02 0.  0.
         -6    2    1    2    0  502  0.56925908463E+02  0.10268813768E+03 -0.93961076348E+02  0.23055412182E+03  0.17476014004E+03 0.  0.
        -24    2    5    5    0    0  0.76040378171E+01  0.98851695007E+02 -0.32233989831E+01  0.12709987440E+03  0.79463883453E+02 0.  0.
          5    1    3    3  501    0 -0.38795161822E+02  0.18711218313E+02 -0.42241622134E+03  0.42463246264E+03  0.47000000000E+01 0. -1.
        -11    1    4    4    0    0 -0.20729442641E+02 -0.66037389413E+01 -0.29265735162E+02  0.36466456022E+02  0.00000000000E+00 0.  1.
         12    1    4    4    0    0  0.25986960005E+01 -0.11479561705E+03 -0.46426157778E+03  0.47825056144E+03  0.00000000000E+00 0. -1.
         -5    1    5    5    0  502  0.49321870645E+02  0.38364426701E+01 -0.90737677365E+02  0.10345424742E+03  0.47000000000E+01 0.  1.
         13    1    6    6    0    0 -0.21215287804E+01 -0.13465823319E+02  0.37753152547E+01  0.14145044620E+02  0.00000000000E+00 0. -1.
        -14    1    6    6    0    0  0.97255665975E+01  0.11231751833E+03 -0.69987142377E+01  0.11295482978E+03  0.00000000000E+00 0.  1.
</event>
<event>
12    1  0.8358445E-002  0.1732105E+03  0.7818608E-02  0.1174791E+00
         21   -1    0    0  503  502  0.00000000000E+00  0.00000000000E+00  0.13962186240E+04  0.13962186240E+04  0.00000000000E+00 0.  1.
         21   -1    0    0  501  503 -0.00000000000E+00 -0.00000000000E+00 -0.21405885978E+02  0.21405885978E+02  0.00000000000E+00 0.  1.
          6    2    1    2  501    0 -0.13452541841E+02 -0.50031738483E+01  0.71985590323E+03  0.74040150202E+03  0.17261477383E+03 0.  0.
         24    2    3    3    0    0 -0.34359352454E+02 -0.53909814189E+02  0.60268002191E+03  0.61163337179E+03  0.82373172269E+02 0.  0.
         -6    2    1    2    0  502  0.13452541841E+02  0.50031738483E+01  0.65495683484E+03  0.67722300800E+03  0.17162908973E+03 0.  0.
        -24    2    5    5    0    0  0.32338352729E+02 -0.59711663784E+02  0.43629220083E+03  0.44835405810E+03  0.77841024306E+02 0.  0.
          5    1    3    3  501    0  0.20906810614E+02  0.48906640341E+02  0.11717588132E+03  0.12876813023E+03  0.47000000000E+01 0. -1.
        -13    1    4    4    0    0 -0.11199817469E+00  0.18628004449E+02  0.54049406512E+02  0.57169514932E+02  0.00000000000E+00 0.  1.
         14    1    4    4    0    0 -0.34247354280E+02 -0.72537818638E+02  0.54863061540E+03  0.55446385686E+03  0.00000000000E+00 0. -1.
         -5    1    5    5    0  502 -0.18885810888E+02  0.64714837632E+02  0.21866463401E+03  0.22886894990E+03  0.47000000000E+01 0.  1.
         11    1    6    6    0    0 -0.19477319450E+02  0.41863160626E+01  0.61776608922E+02  0.64909480240E+02  0.00000000000E+00 0. -1.
        -12    1    6    6    0    0  0.51815672179E+02 -0.63897979847E+02  0.37451559191E+03  0.38344457786E+03  0.00000000000E+00 0.  1.
</event>
<event>
12    1  0.8358445E-002  0.1969962E+03  0.7818608E-02  0.1153597E+00
         21   -1    0    0  501  502  0.00000000000E+00  0.00000000000E+00  0.29588025423E+03  0.29588025423E+03  0.00000000000E+00 0. -1.
         21   -1    0    0  502  503 -0.00000000000E+00 -0.00000000000E+00 -0.20063853231E+03  0.20063853231E+03  0.00000000000E+00 0. -1.
         -6    2    1    2    0  503  0.51087227820E+02 -0.64245576420E+02 -0.10299010067E+03  0.21704904067E+03  0.17252804492E+03 0.  0.
        -24    2    3    3    0    0  0.55009993158E+02 -0.69583315364E+02 -0.13741067061E+03  0.18168316474E+03  0.79114744686E+02 0.  0.
          6    2    1    2  501    0 -0.51087227820E+02  0.64245576420E+02  0.19823182258E+03  0.27946974587E+03  0.17908122302E+03 0.  0.
         24    2    5    5    0    0 -0.42210361744E+02  0.35541678172E+02  0.20569985174E+02  0.99223994199E+02  0.79858319597E+02 0.  0.
          5    1    5    5  501    0 -0.88768660763E+01  0.28703898248E+02  0.17766183740E+03  0.18024575167E+03  0.47000000000E+01 0. -1.
        -11    1    6    6    0    0 -0.41450183144E+02 -0.16730794475E+02  0.11623975529E+02  0.46186079867E+02  0.00000000000E+00 0.  1.
         12    1    6    6    0    0 -0.76017860010E+00  0.52272472647E+02  0.89460096455E+01  0.53037914332E+02  0.00000000000E+00 0. -1.
         -5    1    3    3    0  503 -0.39227653382E+01  0.53377389441E+01  0.34420569946E+02  0.35365875931E+02  0.47000000000E+01 0.  1.
         11    1    4    4    0    0  0.45067967917E+02 -0.70527464355E+02 -0.58433367692E+02  0.10207694853E+03  0.00000000000E+00 0. -1.
        -12    1    4    4    0    0  0.99420252415E+01  0.94414899017E+00 -0.78977302919E+02  0.79606216212E+02  0.00000000000E+00 0.  1.
</event>
<event>
12    1  0.8358445E-002  0.2012936E+03  0.7818608E-02  0.1148711E+00
         21   -1    0    0  503  502  0.00000000000E+00  0.00000000000E+00  0.12171091776E+03  0.12171091776E+03  0.00000000000E+00 0. -1.
         21   -1    0    0  501  503 -0.00000000000E+00 -0.00000000000E+00 -0.38802025153E+03  0.38802025153E+03  0.00000000000E+00 0. -1.
          6    2    1    2  501    0 -0.20570556401E+02 -0.10110567993E+03 -0.36625465460E+02  0.20432357989E+03  0.17251433063E+03 0.  0.
         24    2    3    3    0    0 -0.40318273319E+02 -0.10354276113E+03  0.25821058801E+02  0.13861536061E+03  0.78745314624E+02 0.  0.
         -6    2    1    2    0  502  0.20570556401E+02  0.10110567993E+03 -0.22968386831E+03  0.30540758940E+03  0.17283983914E+03 0.  0.
        -24    2    5    5    0    0  0.67496716318E+02  0.72166875882E+02 -0.91918479538E+02  0.15694577206E+03  0.80119309769E+02 0.  0.
          5    1    3    3  501    0  0.19747716918E+02  0.24370811944E+01 -0.62446524262E+02  0.65708219277E+02  0.47000000000E+01 0.  1.
        -13    1    4    4    0    0 -0.29049105849E+02 -0.76006677844E+01  0.29296473520E+02  0.41951210496E+02  0.00000000000E+00 0.  1.
         14    1    4    4    0    0 -0.11269167470E+02 -0.95942093343E+02 -0.34754147190E+01  0.96664150118E+02  0.00000000000E+00 0. -1.
         -5    1    5    5    0  502 -0.46926159917E+02  0.28938804051E+02 -0.13776538878E+03  0.14846181734E+03  0.47000000000E+01 0.  1.
         13    1    6    6    0    0  0.43052153861E+02  0.82583749517E+02 -0.45951366567E+02  0.10385129622E+03  0.00000000000E+00 0. -1.
        -14    1    6    6    0    0  0.24444562457E+02 -0.10416873634E+02 -0.45967112971E+02  0.53094475842E+02  0.00000000000E+00 0.  1.
</event>
<event>
12    1  0.8358445E-002  0.1829323E+03  0.7818608E-02  0.1165091E+00
         21   -1    0    0  503  502  0.00000000000E+00  0.00000000000E+00  0.15307566434E+03  0.15307566434E+03  0.00000000000E+00 0. -1.
         21   -1    0    0  501  503 -0.00000000000E+00 -0.00000000000E+00 -0.69722325439E+03  0.69722325439E+03  0.00000000000E+00 0.  1.
          6    2    1    2  501    0  0.55081576830E+02  0.28528200338E+02 -0.62459408367E+03  0.65083177945E+03  0.17209415293E+03 0.  0.
         24    2    3    3    0    0 -0.12591643192E+02  0.22172725595E+02 -0.15777413531E+03  0.17906593610E+03  0.80757367844E+02 0.  0.
         -6    2    1    2    0  502 -0.55081576830E+02 -0.28528200338E+02  0.80446493623E+02  0.19946713927E+03  0.17166147789E+03 0.  0.
        -24    2    5    5    0    0 -0.80407359414E+02 -0.70532723462E+02  0.56514045638E+02  0.14468915745E+03  0.79378248918E+02 0.  0.
          5    1    3    3  501    0  0.67673220022E+02  0.63554747438E+01 -0.46681994836E+03  0.47176584335E+03  0.47000000000E+01 0. -1.
        -11    1    4    4    0    0 -0.30028381910E+01  0.33522588916E+01 -0.15787915690E+03  0.15794329001E+03  0.00000000000E+00 0.  1.
         12    1    4    4    0    0 -0.95888050013E+01  0.18820466703E+02  0.10502159013E+00  0.21122646089E+02  0.00000000000E+00 0. -1.
         -5    1    5    5    0  502  0.25325782584E+02  0.42004523124E+02  0.23932447985E+02  0.54777981826E+02  0.47000000000E+01 0.  1.
         13    1    6    6    0    0 -0.63919367383E+02 -0.21953696143E+02 -0.10371635485E+01  0.67592351707E+02  0.00000000000E+00 0. -1.
        -14    1    6    6    0    0 -0.16487992031E+02 -0.48579027320E+02  0.57551209186E+02  0.77096805740E+02  0.00000000000E+00 0.  1.
</event>
<event>
12    1  0.8358445E-002  0.2246564E+03  0.7818608E-02  0.1130634E+00
         21   -1    0    0  501  502  0.00000000000E+00  0.00000000000E+00  0.12856760324E+03  0.12856760324E+03  0.00000000000E+00 0. -1.
         21   -1    0    0  502  503 -0.00000000000E+00 -0.00000000000E+00 -0.46357462473E+03  0.46357462473E+03  0.00000000000E+00 0. -1.
         -6    2    1    2    0  503  0.14450490724E+03 -0.29429672642E+01 -0.28444912526E+03  0.36186716575E+03  0.17072261572E+03 0.  0.
        -24    2    3    3    0    0  0.14295746613E+03  0.49057580003E+01 -0.13609122702E+03  0.21321941760E+03  0.80503381208E+02 0.  0.
          6    2    1    2  501    0 -0.14450490724E+03  0.29429672642E+01 -0.50557896234E+02  0.23027506223E+03  0.17198887795E+03 0.  0.
         24    2    5    5    0    0 -0.14502739720E+03  0.31445458908E+02  0.21951589512E+01  0.17012824305E+03  0.83168729320E+02 0.  0.
          5    1    5    5  501    0  0.52248995939E+00 -0.28502491644E+02 -0.52753055186E+02  0.60146819177E+02  0.47000000000E+01 0. -1.
        -13    1    6    6    0    0 -0.23787687053E+02  0.18176483608E+02 -0.31639966600E+02  0.43558306879E+02  0.00000000000E+00 0.  1.
         14    1    6    6    0    0 -0.12123971015E+03  0.13268975300E+02  0.33835125551E+02  0.12656993617E+03  0.00000000000E+00 0. -1.
         -5    1    3    3    0  503  0.15474411138E+01 -0.78487252646E+01 -0.14835789824E+03  0.14864774815E+03  0.47000000000E+01 0.  1.
         13    1    4    4    0    0  0.53746410259E+02 -0.23099930006E+02 -0.93912226338E+02  0.11064262125E+03  0.00000000000E+00 0. -1.
        -14    1    4    4    0    0  0.89211055867E+02  0.28005688006E+02 -0.42179000681E+02  0.10257679634E+03  0.00000000000E+00 0.  1.
</event>
<event>
12    1  0.8358445E-002  0.2445282E+03  0.7818608E-02  0.1116968E+00
         21   -1    0    0  501  502  0.00000000000E+00  0.00000000000E+00  0.54083791866E+03  0.54083791866E+03  0.00000000000E+00 0. -1.
         21   -1    0    0  502  503 -0.00000000000E+00 -0.00000000000E+00 -0.15303433258E+03  0.15303433258E+03  0.00000000000E+00 0.  1.
         -6    2    1    2    0  503  0.10721623982E+03 -0.13761731114E+03  0.10471174929E+02  0.24475229135E+03  0.17134816079E+03 0.  0.
        -24    2    3    3    0    0  0.54889813720E+02 -0.50948705408E+02  0.68624314026E+02  0.12790461411E+03  0.77727933216E+02 0.  0.
          6    2    1    2  501    0 -0.10721623982E+03  0.13761731114E+03  0.37733241115E+03  0.44911995990E+03  0.16998571548E+03 0.  0.
         24    2    5    5    0    0 -0.15565074887E+02  0.18477728945E+02  0.19870942088E+03  0.21561955576E+03  0.80141505203E+02 0.  0.
          5    1    5    5  501    0 -0.91651164933E+02  0.11913958220E+03  0.17862299027E+03  0.23350040414E+03  0.47000000000E+01 0. -1.
        -11    1    6    6    0    0  0.41957120986E+01 -0.15675232416E+01 -0.68267691035E+01  0.81649191986E+01  0.00000000000E+00 0.  1.
         12    1    6    6    0    0 -0.19760786985E+02  0.20045252187E+02  0.20553618999E+03  0.20745463656E+03  0.00000000000E+00 0. -1.
         -5    1    3    3    0  503  0.52326426100E+02 -0.86668605735E+02 -0.58153139098E+02  0.11684767724E+03  0.47000000000E+01 0.  1.
         11    1    4    4    0    0  0.46232087061E+02 -0.17470511539E+02  0.77761395601E+02  0.92138261831E+02  0.00000000000E+00 0. -1.
        -12    1    4    4    0    0  0.86577266586E+01 -0.33478193869E+02 -0.91370815743E+01  0.35766352279E+02  0.00000000000E+00 0.  1.
</event>
<event>
12    1  0.8358445E-002  0.1819965E+03  0.7818608E-02  0.1166673E+00
         21   -1    0    0  501  502  0.00000000000E+00  0.00000000000E+00  0.20031453780E+02  0.20031453780E+02  0.00000000000E+00 0. -1.
         21   -1    0    0  502  503 -0.00000000000E+00 -0.00000000000E+00 -0.18880062620E+04  0.18880062620E+04  0.00000000000E+00 0. -1.
         -6    2    1    2    0  503 -0.39503457199E+02  0.27227435124E+02 -0.12980745711E+04  0.13107708843E+04  0.17555871565E+03 0.  0.
        -24    2    3    3    0    0  0.27964558378E+02  0.54489112757E+02 -0.55848507127E+03  0.56759536637E+03  0.80671216423E+02 0.  0.
          6    2    1    2  501    0  0.39503457199E+02 -0.27227435124E+02 -0.56990023715E+03  0.59726683151E+03  0.17216135270E+03 0.  0.
         24    2    5    5    0    0  0.97098192816E+01  0.42901878444E+02 -0.19518884259E+03  0.21485801794E+03  0.78297074255E+02 0.  0.
          5    1    5    5  501    0  0.29793637918E+02 -0.70129313568E+02 -0.37471139456E+03  0.38240881357E+03  0.47000000000E+01 0. -1.
        -13    1    6    6    0    0  0.32431361509E+02  0.52916124914E+02 -0.16143977712E+03  0.17295869774E+03  0.00000000000E+00 0.  1.
         14    1    6    6    0    0 -0.22721542228E+02 -0.10014246470E+02 -0.33749065467E+02  0.41899320203E+02  0.00000000000E+00 0. -1.
         -5    1    3    3    0  503 -0.67468015578E+02 -0.27261677633E+02 -0.73958949978E+03  0.74317551788E+03  0.47000000000E+01 0.  1.
         11    1    4    4    0    0  0.14325874635E+02  0.74956943370E+02 -0.44233150046E+03  0.44886627223E+03  0.00000000000E+00 0. -1.
        -12    1    4    4    0    0  0.13638683743E+02 -0.20467830613E+02 -0.11615357081E+03  0.11872909414E+03  0.00000000000E+00 0.  1.
</event>
<event>
12    1  0.8358445E-002  0.2484053E+03  0.7818608E-02  0.1114403E+00
         21   -1    0    0  501  502  0.00000000000E+00  0.00000000000E+00  0.43973910690E+03  0.43973910690E+03  0.00000000000E+00 0. -1.
         21   -1    0    0  502  503 -0.00000000000E+00 -0.00000000000E+00 -0.14001733359E+03  0.14001733359E+03  0.00000000000E+00 0.  1.
         -6    2    1    2    0  503  0.16067361486E+03 -0.77913684037E+02  0.14916103691E+03  0.28974849576E+03  0.17268069722E+03 0.  0.
        -24    2    3    3    0    0  0.24711637922E+02  0.94129469165E+01  0.72687779678E+02  0.11091379914E+03  0.79492697186E+02 0.  0.
          6    2    1    2  501    0 -0.16067361486E+03  0.77913684037E+02  0.15056073640E+03  0.29000794473E+03  0.17189973819E+03 0.  0.
         24    2    5    5    0    0 -0.98127949342E+02 -0.18416139712E+02  0.39423343148E+02  0.13011734026E+03  0.73539605711E+02 0.  0.
          5    1    5    5  501    0 -0.62545665515E+02  0.96329823749E+02  0.11113739325E+03  0.15989060447E+03  0.47000000000E+01 0. -1.
        -11    1    6    6    0    0 -0.26934752427E+02  0.19264140856E+02 -0.11227072422E+02  0.34966200342E+02  0.00000000000E+00 0.  1.
         12    1    6    6    0    0 -0.71193196915E+02 -0.37680280568E+02  0.50650415571E+02  0.95151139920E+02  0.00000000000E+00 0. -1.
         -5    1    3    3    0  503  0.13596197693E+03 -0.87326630954E+02  0.76473257235E+02  0.17883469663E+03  0.47000000000E+01 0.  1.
         13    1    4    4    0    0  0.49137239424E+02  0.62456893662E+00  0.68976510738E+02  0.84691306627E+02  0.00000000000E+00 0. -1.
        -14    1    4    4    0    0 -0.24425601502E+02  0.87883779799E+01  0.37112689403E+01  0.26222492509E+02  0.00000000000E+00 0.  1.
</event>
<event>
12    1  0.8358445E-002  0.1731208E+03  0.7818608E-02  0.1175249E+00
         21   -1    0    0  503  502  0.00000000000E+00  0.00000000000E+00  0.81693647173E+02  0.81693647173E+02  0.00000000000E+00 0.  1.
         21   -1    0    0  501  503 -0.00000000000E+00 -0.00000000000E+00 -0.36422563246E+03  0.36422563246E+03  0.00000000000E+00 0.  1.
          6    2    1    2  501    0 -0.33521523064E+01 -0.76007738558E+01 -0.12401605678E+03  0.21295727019E+03  0.17292139226E+03 0.  0.
         24    2    3    3    0    0  0.29980994171E+02  0.15748254907E+02 -0.14371289847E+03  0.16750035245E+03  0.79095532997E+02 0.  0.
         -6    2    1    2    0  502  0.33521523064E+01  0.76007738558E+01 -0.15851592851E+03  0.23296200944E+03  0.17051389845E+03 0.  0.
        -24    2    5    5    0    0 -0.58386540750E+02  0.10475441912E+01 -0.13172591048E+03  0.16517996089E+03  0.80762729643E+02 0.  0.
          5    1    3    3  501    0 -0.33333146478E+02 -0.23349028763E+02  0.19696841689E+02  0.45456917744E+02  0.47000000000E+01 0. -1.
        -13    1    4    4    0    0  0.19791769419E+02  0.44656033045E+02 -0.11720866970E+03  0.12697931988E+03  0.00000000000E+00 0.  1.
         14    1    4    4    0    0  0.10189224752E+02 -0.28907778138E+02 -0.26504228771E+02  0.40521032572E+02  0.00000000000E+00 0. -1.
         -5    1    5    5    0  502  0.61738693057E+02  0.65532296646E+01 -0.26790018028E+02  0.67782048548E+02  0.47000000000E+01 0.  1.
         11    1    6    6    0    0 -0.10089838254E+02  0.77816986435E+01 -0.11176467908E+03  0.11248868014E+03  0.00000000000E+00 0. -1.
        -12    1    6    6    0    0 -0.48296702496E+02 -0.67341544523E+01 -0.19961231396E+02  0.52691280750E+02  0.00000000000E+00 0.  1.
</event>
<event>
12    1  0.8358445E-002  0.1749095E+03  0.7818608E-02  0.1173053E+00
         21   -1    0    0  503  502  0.00000000000E+00  0.00000000000E+00  0.90254263878E+02  0.90254263878E+02  0.00000000000E+00 0. -1.
         21   -1    0    0  501  503 -0.00000000000E+00 -0.00000000000E+00 -0.38487692186E+03  0.38487692186E+03  0.00000000000E+00 0.  1.
          6    2    1    2  501    0 -0.75950252379E+01 -0.39170260885E+02 -0.23058541820E+03  0.28886767914E+03  0.16936028820E+03 0.  0.
         24    2    3    3    0    0 -0.67107347947E+02 -0.22748596840E+02 -0.11173889286E+03  0.15486031296E+03  0.80468885583E+02 0.  0.
         -6    2    1    2    0  502  0.75950252379E+01  0.39170260885E+02 -0.64037239786E+02  0.18626350660E+03  0.17029777469E+03 0.  0.
        -24    2    5    5    0    0  0.11685112899E+02  0.90785741187E+02 -0.36591705762E+02  0.12747376292E+03  0.80820879957E+02 0.  0.
          5    1    3    3  501    0  0.59512322709E+02 -0.16421664045E+02 -0.11884652534E+03  0.13400736618E+03  0.47000000000E+01 0. -1.
        -11    1    4    4    0    0 -0.33209207380E+02 -0.28192481766E+02 -0.11237381261E+03  0.12052195336E+03  0.00000000000E+00 0.  1.
         12    1    4    4    0    0 -0.33898140567E+02  0.54438849261E+01  0.63491974504E+00  0.34338359601E+02  0.00000000000E+00 0. -1.
         -5    1    5    5    0  502 -0.40900876610E+01 -0.51615480302E+02 -0.27445534024E+02  0.58789743678E+02  0.47000000000E+01 0.  1.
         11    1    6    6    0    0  0.36291207355E+02  0.27244681751E+02  0.79460571741E+01  0.46070209893E+02  0.00000000000E+00 0. -1.
        -12    1    6    6    0    0 -0.24606094456E+02  0.63541059435E+02 -0.44537762936E+02  0.81403553030E+02  0.00000000000E+00 0.  1.
</event>
<event>
12    1  0.8358445E-002  0.1797661E+03  0.7818608E-02  0.1168246E+00
         21   -1    0    0  503  502  0.00000000000E+00  0.00000000000E+00  0.79898773169E+02  0.79898773169E+02  0.00000000000E+00 0. -1.
         21   -1    0    0  501  503 -0.00000000000E+00 -0.00000000000E+00 -0.41581693108E+03  0.41581693108E+03  0.00000000000E+00 0. -1.
          6    2    1    2  501    0 -0.53055969445E+02  0.91828069511E+01 -0.21197849126E+03  0.27736531889E+03  0.17057954019E+03 0.  0.
         24    2    3    3    0    0 -0.45416984825E+02 -0.23700772467E+01 -0.40021816110E+02  0.10478776720E+03  0.85500939256E+02 0.  0.
         -6    2    1    2    0  502  0.53055969445E+02 -0.91828069511E+01 -0.12393966666E+03  0.21835038536E+03  0.17151265253E+03 0.  0.
        -24    2    5    5    0    0 -0.16085924417E+02 -0.15265548663E+02 -0.69448646120E+01  0.82234717861E+02  0.78882974949E+02 0.  0.
          5    1    3    3  501    0 -0.76389846201E+01  0.11552884198E+02 -0.17195667514E+03  0.17257755169E+03  0.47000000000E+01 0. -1.
        -11    1    4    4    0    0  0.33680925792E+01  0.13044570319E+02  0.21127844580E+02  0.25057746887E+02  0.00000000000E+00 0.  1.
         12    1    4    4    0    0 -0.48785077404E+02 -0.15414647566E+02 -0.61149660691E+02  0.79730020315E+02  0.00000000000E+00 0. -1.
         -5    1    5    5    0  502  0.69141893862E+02  0.60827417124E+01 -0.11699480204E+03  0.13611566750E+03  0.47000000000E+01 0.  1.
         11    1    6    6    0    0 -0.29259848306E+02 -0.30046643372E+02 -0.30208069835E+02  0.51686235924E+02  0.00000000000E+00 0. -1.
        -12    1    6    6    0    0  0.13173923889E+02  0.14781094709E+02  0.23263205223E+02  0.30548481937E+02  0.00000000000E+00 0.  1.
</event>
<event>
12    1  0.8358445E-002  0.1849166E+03  0.7818608E-02  0.1163379E+00
         21   -1    0    0  503  502  0.00000000000E+00  0.00000000000E+00  0.10868104848E+03  0.10868104848E+03  0.00000000000E+00 0. -1.
         21   -1    0    0  501  503 -0.00000000000E+00 -0.00000000000E+00 -0.70641118150E+03  0.70641118150E+03  0.00000000000E+00 0. -1.
          6    2    1    2  501    0  0.91069115931E+01 -0.67423149342E+02 -0.60346385072E+03  0.63115985853E+03  0.17194572104E+03 0.  0.
         24    2    3    3    0    0  0.17893021394E+02 -0.63954920024E+02 -0.60992122038E+03  0.61879005809E+03  0.80540976559E+02 0.  0.
         -6    2    1    2    0  502 -0.91069115931E+01  0.67423149342E+02  0.57337177088E+01  0.18393237145E+03  0.17079058768E+03 0.  0.
        -24    2    5    5    0    0 -0.25681328774E+02 -0.43678640986E+01  0.50109606924E+02  0.97793121048E+02  0.79836789351E+02 0.  0.
          5    1    3    3  501    0 -0.87861098007E+01 -0.34682293172E+01  0.64573696609E+01  0.12369800442E+02  0.47000000000E+01 0. -1.
        -11    1    4    4    0    0 -0.26571406354E+02 -0.33786180419E+02 -0.39167732716E+03  0.39402877335E+03  0.00000000000E+00 0.  1.
         12    1    4    4    0    0  0.44464427748E+02 -0.30168739605E+02 -0.21824389323E+03  0.22476128473E+03  0.00000000000E+00 0. -1.
         -5    1    5    5    0  502  0.16574417181E+02  0.71791013440E+02 -0.44375889215E+02  0.86139250399E+02  0.47000000000E+01 0.  1.
         13    1    6    6    0    0 -0.33559156647E+02 -0.13105474890E+01 -0.11581796834E+02  0.35525660409E+02  0.00000000000E+00 0. -1.
        -14    1    6    6    0    0  0.78778278729E+01 -0.30573166096E+01  0.61691403758E+02  0.62267460639E+02  0.00000000000E+00 0.  1.
</event>
<event>
12    1  0.8358445E-002  0.1879744E+03  0.7818608E-02  0.1160651E+00
         21   -1    0    0  503  502  0.00000000000E+00  0.00000000000E+00  0.18333515565E+03  0.18333515565E+03  0.00000000000E+00 0.  1.
         21   -1    0    0  501  503 -0.00000000000E+00 -0.00000000000E+00 -0.19806884398E+03  0.19806884398E+03  0.00000000000E+00 0.  1.
          6    2    1    2  501    0 -0.59525877775E+02  0.42779218191E+02 -0.42927101360E+02  0.19132707454E+03  0.17143489081E+03 0.  0.
         24    2    3    3    0    0 -0.84583428733E+02  0.38936013613E+02 -0.80099676384E+02  0.14608835865E+03  0.79091597552E+02 0.  0.
         -6    2    1    2    0  502  0.59525877775E+02 -0.42779218191E+02  0.28193413027E+02  0.19007692510E+03  0.17309239522E+03 0.  0.
        -24    2    5    5    0    0 -0.14264294446E+02 -0.56488270850E+02 -0.21000138512E+02  0.10021579248E+03  0.78789621181E+02 0.  0.
          5    1    3    3  501    0  0.25057550957E+02  0.38432045782E+01  0.37172575025E+02  0.45238715890E+02  0.47000000000E+01 0. -1.
        -11    1    4    4    0    0 -0.79552522332E+02  0.40230023756E+02 -0.27583901672E+02  0.93316291462E+02  0.00000000000E+00 0.  1.
         12    1    4    4    0    0 -0.50309064012E+01 -0.12940101435E+01 -0.52515774712E+02  0.52772067186E+02  0.00000000000E+00 0. -1.
         -5    1    5    5    0  502  0.73790172222E+02  0.13709052659E+02  0.49193551539E+02  0.89861132612E+02  0.47000000000E+01 0.  1.
         13    1    6    6    0    0 -0.69587884694E+01  0.79473240265E+01  0.20614406445E+02  0.23163299619E+02  0.00000000000E+00 0. -1.
        -14    1    6    6    0    0 -0.73055059770E+01 -0.64435594877E+02 -0.41614544957E+02  0.77052492865E+02  0.00000000000E+00 0.  1.
</event>
<event>
12    1  0.8358445E-002  0.2113254E+03  0.7818608E-02  0.1140538E+00
         21   -1    0    0  501  502  0.00000000000E+00  0.00000000000E+00  0.44490531017E+03  0.44490531017E+03  0.00000000000E+00 0.  1.
         21   -1    0    0  502  503 -0.00000000000E+00 -0.00000000000E+00 -0.21027370243E+03  0.21027370243E+03  0.00000000000E+00 0. -1.
         -6    2    1    2    0  503  0.26605906099E+02 -0.11936827680E+03  0.35417507034E+03  0.41238475967E+03  0.17223399725E+03 0.  0.
        -24    2    3    3    0    0  0.41131859884E+01 -0.18266750545E+02  0.27349630590E+03  0.28101279119E+03  0.61784844403E+02 0.  0.
          6    2    1    2  501    0 -0.26605906099E+02  0.11936827680E+03 -0.11954346260E+03  0.24279425294E+03  0.17234195677E+03 0.  0.
         24    2    5    5    0    0  0.31673169784E+01 -0.14517236212E+01 -0.77444108509E+02  0.11134706609E+03  0.79927716009E+02 0.  0.
          5    1    5    5  501    0 -0.29773223077E+02  0.12082000042E+03 -0.42099354087E+02  0.13144718685E+03  0.47000000000E+01 0. -1.
        -13    1    6    6    0    0 -0.69317843533E+01  0.11191123147E+02  0.13569855542E+02  0.18905868165E+02  0.00000000000E+00 0.  1.
         14    1    6    6    0    0  0.10099101332E+02 -0.12642846769E+02 -0.91013964051E+02  0.92441197928E+02  0.00000000000E+00 0. -1.
         -5    1    3    3    0  503  0.22492720111E+02 -0.10110152626E+03  0.80678764438E+02  0.13137196848E+03  0.47000000000E+01 0.  1.
         11    1    4    4    0    0  0.27890839252E+02  0.49643329917E+01  0.16895182515E+03  0.17131042799E+03  0.00000000000E+00 0. -1.
        -12    1    4    4    0    0 -0.23777653263E+02 -0.23231083537E+02  0.10454448075E+03  0.10970236321E+03  0.00000000000E+00 0.  1.
</event>
<event>
12    1  0.8358445E-002  0.2902228E+03  0.7818608E-02  0.1090270E+00
         21   -1    0    0  501  502  0.00000000000E+00  0.00000000000E+00  0.13762413901E+04  0.13762413901E+04  0.00000000000E+00 0.  1.
         21   -1    0    0  502  503 -0.00000000000E+00 -0.00000000000E+00 -0.11094898679E+03  0.11094898679E+03  0.00000000000E+00 0.  1.
         -6    2    1    2    0  503 -0.22703837375E+03  0.55478272775E+02  0.13460019015E+03  0.31991634969E+03  0.17206102901E+03 0.  0.
        -24    2    3    3    0    0 -0.95018952908E+02 -0.86736957620E+01  0.11645298555E+03  0.17194333329E+03  0.83062492198E+02 0.  0.
          6    2    1    2  501    0  0.22703837375E+03 -0.55478272775E+02  0.11306922131E+04  0.11672740272E+04  0.17157946200E+03 0.  0.
         24    2    5    5    0    0  0.23506065670E+03 -0.79186043225E+02  0.10716647372E+04  0.11029875720E+04  0.81193184865E+02 0.  0.
          5    1    5    5  501    0 -0.80222829496E+01  0.23707770451E+02  0.59027475895E+02  0.64286455137E+02  0.47000000000E+01 0. -1.
        -11    1    6    6    0    0  0.18626866462E+03 -0.27111512154E+02  0.72351136934E+03  0.74759598118E+03  0.00000000000E+00 0.  1.
         12    1    6    6    0    0  0.48791992084E+02 -0.52074531072E+02  0.34815336787E+03  0.35539159084E+03  0.00000000000E+00 0. -1.
         -5    1    3    3    0  503 -0.13201942085E+03  0.64151968537E+02  0.18147204608E+02  0.14797301640E+03  0.47000000000E+01 0.  1.
         11    1    4    4    0    0 -0.24956841682E+02  0.32954846488E+02  0.59771328689E+02  0.72673775099E+02  0.00000000000E+00 0. -1.
        -12    1    4    4    0    0 -0.70062111227E+02 -0.41628542250E+02  0.56681656857E+02  0.99269558191E+02  0.00000000000E+00 0.  1.
</event>
<event>
12    1  0.8358445E-002  0.1888556E+03  0.7818608E-02  0.1160420E+00
         21   -1    0    0  501  502  0.00000000000E+00  0.00000000000E+00  0.73726788760E+03  0.73726788760E+03  0.00000000000E+00 0. -1.
         21   -1    0    0  502  503 -0.00000000000E+00 -0.00000000000E+00 -0.63673907261E+02  0.63673907261E+02  0.00000000000E+00 0. -1.
         -6    2    1    2    0  503 -0.74666327208E+02 -0.53540184695E+01  0.53684174374E+03  0.56777317772E+03  0.16900768500E+03 0.  0.
        -24    2    3    3    0    0 -0.11937877800E+02  0.23054523689E+02  0.12568975681E+03  0.15086797269E+03  0.79304515801E+02 0.  0.
          6    2    1    2  501    0  0.74666327208E+02  0.53540184695E+01  0.13675223660E+03  0.23316861713E+03  0.17338599675E+03 0.  0.
         24    2    5    5    0    0  0.93149821115E+02 -0.28596855695E+02  0.14796394136E+03  0.19264586146E+03  0.75659967408E+02 0.  0.
          5    1    5    5  501    0 -0.18483493906E+02  0.33950874165E+02 -0.11211704759E+02  0.40522755670E+02  0.47000000000E+01 0. -1.
        -13    1    6    6    0    0 -0.11229973483E+02 -0.96703688235E+01  0.33234576687E+02  0.36389083874E+02  0.00000000000E+00 0.  1.
         14    1    6    6    0    0  0.10437979460E+03 -0.18926486871E+02  0.11472936467E+03  0.15625677759E+03  0.00000000000E+00 0. -1.
         -5    1    3    3    0  503 -0.62728449408E+02 -0.28408542158E+02  0.41115198693E+03  0.41690520504E+03  0.47000000000E+01 0.  1.
         13    1    4    4    0    0 -0.17357759965E+02 -0.27493738667E+02  0.52541567090E+02  0.61788459838E+02  0.00000000000E+00 0. -1.
        -14    1    4    4    0    0  0.54198821645E+01  0.50548262356E+02  0.73148189721E+02  0.89079512848E+02  0.00000000000E+00 0.  1.
</event>
<event>
12    1  0.8358445E-002  0.1892195E+03  0.7818608E-02  0.1159278E+00
         21   -1    0    0  501  502  0.00000000000E+00  0.00000000000E+00  0.30673132019E+03  0.30673132019E+03  0.00000000000E+00 0.  1.
         21   -1    0    0  502  503 -0.00000000000E+00 -0.00000000000E+00 -0.14550613292E+03  0.14550613292E+03  0.00000000000E+00 0.  1.
         -6    2    1    2    0  503 -0.74271077593E+02  0.25390977502E+02 -0.20388244809E+02  0.19031478652E+03  0.17217184072E+03 0.  0.
        -24    2    3    3    0    0 -0.48464143084E+02  0.21962164157E+02  0.54855809123E+02  0.11055569750E+03  0.79889252311E+02 0.  0.
          6    2    1    2  501    0  0.74271077593E+02 -0.25390977502E+02  0.18161343208E+03  0.26192266660E+03  0.17163667982E+03 0.  0.
         24    2    5    5    0    0  0.56840239887E+02 -0.54375148573E+02  0.46200845726E+02  0.12227104713E+03  0.81413888058E+02 0.  0.
          5    1    5    5  501    0  0.17430837707E+02  0.28984171071E+02  0.13541258635E+03  0.13965161946E+03  0.47000000000E+01 0. -1.
        -11    1    6    6    0    0  0.34826309021E+01 -0.13429581903E+02  0.52892185053E+02  0.54681492553E+02  0.00000000000E+00 0.  1.
         12    1    6    6    0    0  0.53357608985E+02 -0.40945566670E+02 -0.66913393270E+01  0.67589554581E+02  0.00000000000E+00 0. -1.
         -5    1    3    3    0  503 -0.25806934510E+02  0.34288133454E+01 -0.75244053932E+02  0.79759089023E+02  0.47000000000E+01 0.  1.
         11    1    4    4    0    0 -0.29539217228E+02  0.25232577047E+02 -0.12266693615E+02  0.40739662138E+02  0.00000000000E+00 0. -1.
        -12    1    4    4    0    0 -0.18924925856E+02 -0.32704128902E+01  0.67122502739E+02  0.69816035357E+02  0.00000000000E+00 0.  1.
</event>
<event>
12    1  0.8358445E-002  0.1735616E+03  0.7818608E-02  0.1174491E+00
         21   -1    0    0  501  502  0.00000000000E+00  0.00000000000E+00  0.92232514335E+03  0.92232514335E+03  0.00000000000E+00 0.  1.
         21   -1    0    0  502  503 -0.00000000000E+00 -0.00000000000E+00 -0.44648234565E+02  0.44648234565E+02  0.00000000000E+00 0.  1.
         -6    2    1    2    0  503 -0.21403352881E+02  0.44903264084E+01  0.18484209770E+03  0.25272993500E+03  0.17096067507E+03 0.  0.
        -24    2    3    3    0    0 -0.56069613284E+01  0.69228615068E+02  0.12035922170E+03  0.15988219243E+03  0.79069172546E+02 0.  0.
          6    2    1    2  501    0  0.21403352881E+02 -0.44903264084E+01  0.69283481109E+03  0.71424344291E+03  0.17217826153E+03 0.  0.
         24    2    5    5    0    0  0.64641120701E+01  0.82726346688E+01  0.68845596303E+03  0.69357127801E+03  0.83422319681E+02 0.  0.
          5    1    5    5  501    0  0.14939240811E+02 -0.12762961077E+02  0.43788480595E+01  0.20672164903E+02  0.47000000000E+01 0. -1.
        -13    1    6    6    0    0  0.40488451932E+02  0.17412435053E+02  0.26380274299E+03  0.26745914612E+03  0.00000000000E+00 0.  1.
         14    1    6    6    0    0 -0.34024339862E+02 -0.91398003843E+01  0.42465322004E+03  0.42611213189E+03  0.00000000000E+00 0. -1.
         -5    1    3    3    0  503 -0.15796391552E+02 -0.64738288659E+02  0.64482875992E+02  0.92847742572E+02  0.47000000000E+01 0.  1.
         11    1    4    4    0    0  0.23105346110E+02  0.40413040465E+02  0.10761830058E+03  0.11725514692E+03  0.00000000000E+00 0. -1.
        -12    1    4    4    0    0 -0.28712307439E+02  0.28815574602E+02  0.12740921124E+02  0.42627045513E+02  0.00000000000E+00 0.  1.
</event>
<event>
12    1  0.8358445E-002  0.2152852E+03  0.7818608E-02  0.1137876E+00
         21   -1    0    0  503  502  0.00000000000E+00  0.00000000000E+00  0.11170341337E+04  0.11170341337E+04  0.00000000000E+00 0. -1.
         21   -1    0    0  501  503 -0.00000000000E+00 -0.00000000000E+00 -0.13030162243E+03  0.13030162243E+03  0.00000000000E+00 0. -1.
          6    2    1    2  501    0  0.12467982558E+03 -0.16686686995E+02 -0.21944848473E+02  0.21640079151E+03  0.17471182491E+03 0.  0.
         24    2    3    3    0    0  0.81568520795E+01 -0.45811088278E+02 -0.25693329102E+02  0.96142838714E+02  0.80113096498E+02 0.  0.
         -6    2    1    2    0  502 -0.12467982558E+03  0.16686686995E+02  0.10086773598E+04  0.10309349646E+04  0.17196912742E+03 0.  0.
        -24    2    5    5    0    0 -0.10733208426E+03  0.72889304553E+02  0.74157944378E+03  0.75739691414E+03  0.82927601424E+02 0.  0.
          5    1    3    3  501    0  0.11652297350E+03  0.29124401283E+02  0.37484806292E+01  0.12025795280E+03  0.47000000000E+01 0. -1.
        -13    1    4    4    0    0  0.35165606318E+02  0.39300832188E+01 -0.43472117313E+01  0.35650577438E+02  0.00000000000E+00 0.  1.
         14    1    4    4    0    0 -0.27008754239E+02 -0.49741171497E+02 -0.21346117371E+02  0.60492261276E+02  0.00000000000E+00 0. -1.
         -5    1    5    5    0  502 -0.17347741326E+02 -0.56202617558E+02  0.26709791598E+03  0.27353805050E+03  0.47000000000E+01 0.  1.
         13    1    6    6    0    0 -0.71497685757E+02  0.85710116977E+02  0.46483983018E+03  0.47805251902E+03  0.00000000000E+00 0. -1.
        -14    1    6    6    0    0 -0.35834398500E+02 -0.12820812424E+02  0.27673961360E+03  0.27934439512E+03  0.00000000000E+00 0.  1.
</event>
<event>
12    1  0.8358445E-002  0.2641433E+03  0.7818608E-02  0.1104903E+00
         21   -1    0    0  503  502  0.00000000000E+00  0.00000000000E+00  0.24154213014E+03  0.24154213014E+03  0.00000000000E+00 0. -1.
         21   -1    0    0  501  503 -0.00000000000E+00 -0.00000000000E+00 -0.28727764023E+03  0.28727764023E+03  0.00000000000E+00 0.  1.
          6    2    1    2  501    0 -0.98551154843E+02 -0.17283160551E+03 -0.18651226882E+02  0.26480101189E+03  0.17374870834E+03 0.  0.
         24    2    3    3    0    0 -0.12785333558E+03 -0.16664125417E+03  0.15661954431E+02  0.21901430358E+03  0.60051522424E+02 0.  0.
         -6    2    1    2    0  502  0.98551154843E+02  0.17283160551E+03 -0.27084283205E+02  0.26401875848E+03  0.17143293863E+03 0.  0.
        -24    2    5    5    0    0  0.77843304405E+02  0.12402417939E+03 -0.83598167691E+02  0.18638571748E+03  0.79431762703E+02 0.  0.
          5    1    3    3  501    0  0.29302180741E+02 -0.61903513374E+01 -0.34313181314E+02  0.45786708309E+02  0.47000000000E+01 0. -1.
        -13    1    4    4    0    0  0.44807730718E+01 -0.12393394054E+02 -0.62786910034E+01  0.14597791073E+02  0.00000000000E+00 0.  1.
         14    1    4    4    0    0 -0.13233410866E+03 -0.15424786012E+03  0.21940645435E+02  0.20441651251E+03  0.00000000000E+00 0. -1.
         -5    1    5    5    0  502  0.20707850438E+02  0.48807426117E+02  0.56513884486E+02  0.77633040991E+02  0.47000000000E+01 0.  1.
         13    1    6    6    0    0  0.15964614274E+02  0.12334159772E+02  0.14935971652E+02  0.25101467196E+02  0.00000000000E+00 0. -1.
        -14    1    6    6    0    0  0.61878690131E+02  0.11169001962E+03 -0.98534139343E+02  0.16128425029E+03  0.00000000000E+00 0.  1.
</event>
<event>
12    1  0.8358445E-002  0.1794847E+03  0.7818608E-02  0.1168497E+00
         21   -1    0    0  503  502  0.00000000000E+00  0.00000000000E+00  0.19891780431E+03  0.19891780431E+03  0.00000000000E+00 0.  1.
         21   -1    0    0  501  503 -0.00000000000E+00 -0.00000000000E+00 -0.42081552311E+03  0.42081552311E+03  0.00000000000E+00 0.  1.
          6    2    1    2  501    0 -0.48024529698E+02  0.18582410792E+01 -0.35422510917E+03  0.39674161691E+03  0.17210076731E+03 0.  0.
         24    2    3    3    0    0 -0.82651015104E+02  0.21307378588E+02 -0.15736242302E+03  0.19585789522E+03  0.79449281061E+02 0.  0.
         -6    2    1    2    0  502  0.48024529698E+02 -0.18582410792E+01  0.13232739037E+03  0.22299171051E+03  0.17293049529E+03 0.  0.
        -24    2    5    5    0    0 -0.38700873615E+02 -0.97862725129E+01  0.95170920105E+02  0.12819275194E+03  0.76041757405E+02 0.  0.
          5    1    3    3  501    0  0.34626485406E+02 -0.19449137509E+02 -0.19686268615E+03  0.20088372169E+03  0.47000000000E+01 0. -1.
        -13    1    4    4    0    0 -0.72894326405E+02  0.41541493074E+02 -0.15060796542E+03  0.17240080544E+03  0.00000000000E+00 0.  1.
         14    1    4    4    0    0 -0.97566886983E+01 -0.20234114486E+02 -0.67544575998E+01  0.23457089778E+02  0.00000000000E+00 0. -1.
         -5    1    5    5    0  502  0.86725403313E+02  0.79280314337E+01  0.37156470263E+02  0.94798958563E+02  0.47000000000E+01 0.  1.
         13    1    6    6    0    0 -0.43051055277E+02  0.24295758722E+02  0.41895960272E+02  0.64799295825E+02  0.00000000000E+00 0. -1.
        -14    1    6    6    0    0  0.43501816617E+01 -0.34082031234E+02  0.53274959834E+02  0.63393456120E+02  0.00000000000E+00 0.  1.
</event>
<event>
12    1  0.8358445E-002  0.1879434E+03  0.7818608E-02  0.1160496E+00
         21   -1    0    0  501  502  0.00000000000E+00  0.00000000000E+00  0.40572426289E+02  0.40572426289E+02  0.00000000000E+00 0.  1.
         21   -1    0    0  502  503 -0.00000000000E+00 -0.00000000000E+00 -0.11532867881E+04  0.11532867881E+04  0.00000000000E+00 0.  1.
         -6    2    1    2    0  503  0.34949244327E+02 -0.61572965984E+02 -0.85444250131E+03  0.87486838802E+03  0.17409775555E+03 0.  0.
        -24    2    3    3    0    0 -0.36082779574E+02 -0.72880824266E+02 -0.59430676415E+03  0.60493115860E+03  0.78278957596E+02 0.  0.
          6    2    1    2  501    0 -0.34949244327E+02  0.61572965984E+02 -0.25827186055E+03  0.31899082642E+03  0.17331507023E+03 0.  0.
         24    2    5    5    0    0 -0.50545522073E+02 -0.14456825564E+02 -0.69791899536E+02  0.11510223236E+03  0.74925062879E+02 0.  0.
          5    1    5    5  501    0  0.15596277746E+02  0.76029791548E+02 -0.18847996101E+03  0.20388859405E+03  0.47000000000E+01 0. -1.
        -11    1    6    6    0    0 -0.20718069617E+02  0.14925612047E+02 -0.68620024512E+02  0.73216938393E+02  0.00000000000E+00 0.  1.
         12    1    6    6    0    0 -0.29827452456E+02 -0.29382437611E+02 -0.11718750241E+01  0.41885293971E+02  0.00000000000E+00 0. -1.
         -5    1    3    3    0  503  0.71032023901E+02  0.11307858282E+02 -0.26013573716E+03  0.26993722942E+03  0.47000000000E+01 0.  1.
         13    1    4    4    0    0 -0.51948033906E+02 -0.42568678165E+02 -0.50228178064E+03  0.50675208707E+03  0.00000000000E+00 0. -1.
        -14    1    4    4    0    0  0.15865254332E+02 -0.30312146101E+02 -0.92024983512E+02  0.98179071531E+02  0.00000000000E+00 0.  1.
</event>
<event>
12    1  0.8358445E-002  0.2181986E+03  0.7818608E-02  0.1135478E+00
         21   -1    0    0  501  502  0.00000000000E+00  0.00000000000E+00  0.82033545820E+03  0.82033545820E+03  0.00000000000E+00 0. -1.
         21   -1    0    0  502  503 -0.00000000000E+00 -0.00000000000E+00 -0.82474970425E+02  0.82474970425E+02  0.00000000000E+00 0.  1.
         -6    2    1    2    0  503 -0.59153712443E+01  0.13204775206E+03  0.12226036694E+03  0.25011645792E+03  0.17360600438E+03 0.  0.
        -24    2    3    3    0    0 -0.38149487023E+02  0.51977736521E+02  0.12563562429E+03  0.16360791516E+03  0.82620647295E+02 0.  0.
          6    2    1    2  501    0  0.59153712443E+01 -0.13204775206E+03  0.61560012083E+03  0.65269397071E+03  0.17197182964E+03 0.  0.
         24    2    5    5    0    0  0.31263462791E+02 -0.15438454079E+03  0.55929212207E+03  0.58685979569E+03  0.82369602685E+02 0.  0.
          5    1    5    5  501    0 -0.25348091547E+02  0.22336788730E+02  0.56307998760E+02  0.65834175017E+02  0.47000000000E+01 0. -1.
        -11    1    6    6    0    0  0.14059811825E+02 -0.58068031501E+02  0.93913054295E+02  0.11130694658E+03  0.00000000000E+00 0.  1.
         12    1    6    6    0    0  0.17203650966E+02 -0.96316509285E+02  0.46537906778E+03  0.47555284911E+03  0.00000000000E+00 0. -1.
         -5    1    3    3    0  503  0.32234115779E+02  0.80070015535E+02 -0.33752573419E+01  0.86508542757E+02  0.47000000000E+01 0.  1.
         13    1    4    4    0    0 -0.15004671998E+02  0.53061988488E+02  0.12890878513E+03  0.14020766630E+03  0.00000000000E+00 0. -1.
        -14    1    4    4    0    0 -0.23144815025E+02 -0.10842519674E+01 -0.32731608482E+01  0.23400248862E+02  0.00000000000E+00 0.  1.
</event>
<event>
12    1  0.8358445E-002  0.1810343E+03  0.7818608E-02  0.1168551E+00
         21   -1    0    0  503  502  0.00000000000E+00  0.00000000000E+00  0.10171217849E+04  0.10171217849E+04  0.00000000000E+00 0.  1.
         21   -1    0    0  501  503 -0.00000000000E+00 -0.00000000000E+00 -0.50847995385E+02  0.50847995385E+02  0.00000000000E+00 0.  1.
          6    2    1    2  501    0 -0.15757107864E+02 -0.17556066020E+02  0.15518756966E+03  0.23844624585E+03  0.17949074762E+03 0.  0.
         24    2    3    3    0    0 -0.62979881277E+02  0.21925984795E+02  0.50816483677E+02  0.11718522056E+03  0.81870914552E+02 0.  0.
         -6    2    1    2    0  502  0.15757107864E+02  0.17556066020E+02  0.81108621981E+03  0.82952353439E+03  0.17231348245E+03 0.  0.
        -24    2    5    5    0    0  0.39368877450E+02 -0.31450578209E+02  0.69295408457E+03  0.69938338602E+03  0.80079397684E+02 0.  0.
          5    1    3    3  501    0  0.47222773413E+02 -0.39482050814E+02  0.10437108599E+03  0.12126102529E+03  0.47000000000E+01 0. -1.
        -11    1    4    4    0    0 -0.17220122680E+02  0.25238612657E+02 -0.17260039543E+02  0.35091724936E+02  0.00000000000E+00 0.  1.
         12    1    4    4    0    0 -0.45759758598E+02 -0.33126278620E+01  0.68076523220E+02  0.82093495625E+02  0.00000000000E+00 0. -1.
         -5    1    5    5    0  502 -0.23611769586E+02  0.49006644229E+02  0.11813213524E+03  0.13014014837E+03  0.47000000000E+01 0.  1.
         11    1    6    6    0    0 -0.17515167255E+02  0.11292832405E+02  0.98117266430E+02  0.10030606721E+03  0.00000000000E+00 0. -1.
        -12    1    6    6    0    0  0.56884044705E+02 -0.42743410614E+02  0.59483681814E+03  0.59907731881E+03  0.00000000000E+00 0.  1.
</event>
<event>
12    1  0.8358445E-002  0.3967763E+03  0.7818608E-02  0.1044927E+00
         21   -1    0    0  503  502  0.00000000000E+00  0.00000000000E+00  0.17299294054E+04  0.17299294054E+04  0.00000000000E+00 0.  1.
         21   -1    0    0  501  503 -0.00000000000E+00 -0.00000000000E+00 -0.15948240053E+03  0.15948240053E+03  0.00000000000E+00 0. -1.
          6    2    1    2  501    0  0.11844781161E+03  0.33750967125E+03  0.16605188658E+03  0.43012172114E+03  0.17172304358E+03 0.  0.
         24    2    3    3    0    0 -0.38869367973E+01  0.15104568961E+03  0.56231470229E+02  0.18149102922E+03  0.83349306029E+02 0.  0.
         -6    2    1    2    0  502 -0.11844781161E+03 -0.33750967125E+03  0.14043951183E+04  0.14592900848E+04  0.17105332809E+03 0.  0.
        -24    2    5    5    0    0 -0.89729521491E+02 -0.30791131098E+03  0.10145948226E+04  0.10672860495E+04  0.82680681520E+02 0.  0.
          5    1    3    3  501    0  0.12233474841E+03  0.18646398164E+03  0.10982041635E+03  0.24863069192E+03  0.47000000000E+01 0. -1.
        -11    1    4    4    0    0  0.98916628548E+01  0.15459872595E+03  0.60988101043E+02  0.16648771585E+03  0.00000000000E+00 0.  1.
         12    1    4    4    0    0 -0.13778599652E+02 -0.35530363343E+01 -0.47566308139E+01  0.15003313376E+02  0.00000000000E+00 0. -1.
         -5    1    5    5    0  502 -0.28718290120E+02 -0.29598360270E+02  0.38980029567E+03  0.39200403522E+03  0.47000000000E+01 0.  1.
         13    1    6    6    0    0 -0.78733049017E+02 -0.16210185642E+03  0.46883096756E+03  0.50227321351E+03  0.00000000000E+00 0. -1.
        -14    1    6    6    0    0 -0.10996472474E+02 -0.14580945456E+03  0.54576385502E+03  0.56501283604E+03  0.00000000000E+00 0.  1.
</event>
<event>
12    1  0.8358445E-002  0.2077757E+03  0.7818608E-02  0.1143588E+00
         21   -1    0    0  503  502  0.00000000000E+00  0.00000000000E+00  0.64227803479E+02  0.64227803479E+02  0.00000000000E+00 0. -1.
         21   -1    0    0  501  503 -0.00000000000E+00 -0.00000000000E+00 -0.69334834376E+03  0.69334834376E+03  0.00000000000E+00 0.  1.
          6    2    1    2  501    0 -0.79109009308E+02  0.84931663087E+02 -0.38584003275E+03  0.43764468034E+03  0.17084704447E+03 0.  0.
         24    2    3    3    0    0 -0.60515553394E+02  0.57311479754E+02 -0.38693624567E+03  0.40400121421E+03  0.80935684095E+02 0.  0.
         -6    2    1    2    0  502  0.79109009308E+02 -0.84931663087E+02 -0.24328050753E+03  0.31993146690E+03  0.17233431295E+03 0.  0.
        -24    2    5    5    0    0  0.65833180810E+02 -0.52823699739E+02 -0.25584099101E+03  0.28268868668E+03  0.85638367260E+02 0.  0.
          5    1    3    3  501    0 -0.18593455914E+02  0.27620183333E+02  0.10962129152E+01  0.33643466125E+02  0.47000000000E+01 0. -1.
        -13    1    4    4    0    0 -0.23705993503E+02  0.72282002372E+02 -0.26908963300E+03  0.27963528494E+03  0.00000000000E+00 0.  1.
         14    1    4    4    0    0 -0.36809559891E+02 -0.14970522619E+02 -0.11784661267E+03  0.12436592927E+03  0.00000000000E+00 0. -1.
         -5    1    5    5    0  502  0.13275828497E+02 -0.32107963347E+02  0.12560483487E+02  0.37242780213E+02  0.47000000000E+01 0.  1.
         11    1    6    6    0    0 -0.12345324259E+02 -0.36706643223E+02 -0.10702838885E+03  0.11381942149E+03  0.00000000000E+00 0. -1.
        -12    1    6    6    0    0  0.78178505069E+02 -0.16117056516E+02 -0.14881260216E+03  0.16886926519E+03  0.00000000000E+00 0.  1.
</event>
<event>
12    1  0.8358445E-002  0.3518409E+03  0.7818608E-02  0.1061962E+00
         21   -1    0    0  503  502  0.00000000000E+00  0.00000000000E+00  0.65606438333E+03  0.65606438333E+03  0.00000000000E+00 0.  1.
         21   -1    0    0  501  503 -0.00000000000E+00 -0.00000000000E+00 -0.19411359830E+03  0.19411359830E+03  0.00000000000E+00 0. -1.
          6    2    1    2  501    0 -0.27952854125E+03 -0.12632372714E+03  0.30570506867E+03  0.46609827604E+03  0.17233143794E+03 0.  0.
         24    2    3    3    0    0 -0.10706454148E+03 -0.11689004685E+03  0.17309507274E+03  0.24829027214E+03  0.80994172254E+02 0.  0.
         -6    2    1    2    0  502  0.27952854125E+03  0.12632372714E+03  0.15624571636E+03  0.38407970560E+03  0.17032500393E+03 0.  0.
        -24    2    5    5    0    0  0.26230417192E+03  0.92457729958E+02  0.81879446604E+02  0.30043751086E+03  0.78781620454E+02 0.  0.
          5    1    3    3  501    0 -0.17246399977E+03 -0.94336802927E+01  0.13260999594E+03  0.21780800390E+03  0.47000000000E+01 0. -1.
        -11    1    4    4    0    0 -0.81428366151E+02 -0.41237285694E+02  0.12592004757E+03  0.15552154489E+03  0.00000000000E+00 0.  1.
         12    1    4    4    0    0 -0.25636175326E+02 -0.75652761154E+02  0.47175025167E+02  0.92768727247E+02  0.00000000000E+00 0. -1.
         -5    1    5    5    0  502  0.17224369332E+02  0.33865997182E+02  0.74366269752E+02  0.83642194739E+02  0.47000000000E+01 0.  1.
         11    1    6    6    0    0  0.93651713455E+02  0.51103059902E+02 -0.38977782171E+01  0.10675841344E+03  0.00000000000E+00 0. -1.
        -12    1    6    6    0    0  0.16865245846E+03  0.41354670056E+02  0.85777224822E+02  0.19367909742E+03  0.00000000000E+00 0.  1.
</event>
<event>
12    1  0.8358445E-002  0.1752457E+03  0.7818608E-02  0.1172656E+00
         21   -1    0    0  503  502  0.00000000000E+00  0.00000000000E+00  0.20321200010E+04  0.20321200010E+04  0.00000000000E+00 0. -1.
         21   -1    0    0  501  503 -0.00000000000E+00 -0.00000000000E+00 -0.15066405561E+02  0.15066405561E+02  0.00000000000E+00 0. -1.
          6    2    1    2  501    0 -0.18306210944E+02 -0.12278916074E+02  0.98148153629E+03  0.99700404046E+03  0.17385385092E+03 0.  0.
         24    2    3    3    0    0  0.42276659098E+02 -0.50465879640E+02  0.62947566531E+03  0.63775656095E+03  0.78483736593E+02 0.  0.
         -6    2    1    2    0  502  0.18306210944E+02  0.12278916074E+02  0.10355720592E+04  0.10501823661E+04  0.17316934843E+03 0.  0.
        -24    2    5    5    0    0  0.28635697660E+02  0.33044856448E+02  0.30651531617E+03  0.32074165771E+03  0.83735334379E+02 0.  0.
          5    1    3    3  501    0 -0.60582870042E+02  0.38186963566E+02  0.35200587098E+03  0.35924747951E+03  0.47000000000E+01 0. -1.
        -13    1    4    4    0    0  0.14893547628E+02 -0.54493493999E+02  0.56189647890E+03  0.56472914893E+03  0.00000000000E+00 0.  1.
         14    1    4    4    0    0  0.27383111470E+02  0.40276143589E+01  0.67579186405E+02  0.73027412020E+02  0.00000000000E+00 0. -1.
         -5    1    5    5    0  502 -0.10329486717E+02 -0.20765940374E+02  0.72905674302E+03  0.72944070843E+03  0.47000000000E+01 0.  1.
         13    1    6    6    0    0  0.35976030079E+02  0.47375989893E+02  0.29501995901E+03  0.30095769698E+03  0.00000000000E+00 0. -1.
        -14    1    6    6    0    0 -0.73403324190E+01 -0.14331133445E+02  0.11495357168E+02  0.19783960733E+02  0.00000000000E+00 0.  1.
</event>
<event>
12    1  0.8358445E-002  0.2015725E+03  0.7818608E-02  0.1148535E+00
         21   -1    0    0  503  502  0.00000000000E+00  0.00000000000E+00  0.10042078819E+04  0.10042078819E+04  0.00000000000E+00 0. -1.
         21   -1    0    0  501  503 -0.00000000000E+00 -0.00000000000E+00 -0.45814208090E+02  0.45814208090E+02  0.00000000000E+00 0. -1.
          6    2    1    2  501    0 -0.84643522371E+02 -0.61420346797E+02  0.29729616058E+03  0.35887709576E+03  0.17167055043E+03 0.  0.
         24    2    3    3    0    0 -0.10066551067E+03 -0.19547435582E+02  0.28367358070E+03  0.31178453281E+03  0.78887560717E+02 0.  0.
         -6    2    1    2    0  502  0.84643522371E+02  0.61420346797E+02  0.66109751326E+03  0.69114499426E+03  0.17232091043E+03 0.  0.
        -24    2    5    5    0    0  0.11926919373E+03  0.22656736888E+02  0.41795946611E+03  0.44246899111E+03  0.79688295778E+02 0.  0.
          5    1    3    3  501    0  0.16021988301E+02 -0.41872911214E+02  0.13622579884E+02  0.47092562952E+02  0.47000000000E+01 0. -1.
        -11    1    4    4    0    0 -0.30450139006E+01  0.11391866705E+02  0.18551394997E+01  0.11936845448E+02  0.00000000000E+00 0.  1.
         12    1    4    4    0    0 -0.97620496772E+02 -0.30939302288E+02  0.28181844120E+03  0.29984768736E+03  0.00000000000E+00 0. -1.
         -5    1    5    5    0  502 -0.34625671362E+02  0.38763609908E+02  0.24313804715E+03  0.24867600315E+03  0.47000000000E+01 0.  1.
         11    1    6    6    0    0  0.95369881591E+02  0.50768266790E+02  0.29916977979E+03  0.31808078906E+03  0.00000000000E+00 0. -1.
        -12    1    6    6    0    0  0.23899312142E+02 -0.28111529902E+02  0.11878968632E+03  0.12438820205E+03  0.00000000000E+00 0.  1.
</event>
<event>
12    1  0.8358445E-002  0.1777215E+03  0.7818608E-02  0.1170592E+00
         21   -1    0    0  501  502  0.00000000000E+00  0.00000000000E+00  0.38083859942E+03  0.38083859942E+03  0.00000000000E+00 0.  1.
         21   -1    0    0  502  503 -0.00000000000E+00 -0.00000000000E+00 -0.12710431387E+03  0.12710431387E+03  0.00000000000E+00 0.  1.
         -6    2    1    2    0  503  0.24820261939E+02 -0.26437133790E+02 -0.24106422573E+02  0.17934892963E+03  0.17398261840E+03 0.  0.
        -24    2    3    3    0    0  0.57263699610E+01  0.43432987258E+02  0.21238802798E+02  0.93764526904E+02  0.80134162915E+02 0.  0.
          6    2    1    2  501    0 -0.24820261939E+02  0.26437133790E+02  0.27784070812E+03  0.32859398366E+03  0.17164958364E+03 0.  0.
         24    2    5    5    0    0 -0.64289487349E+01  0.82784789782E+02  0.17900680313E+03  0.21325305635E+03  0.80862708801E+02 0.  0.
          5    1    5    5  501    0 -0.18391313204E+02 -0.56347655992E+02  0.98833904989E+02  0.11534092731E+03  0.47000000000E+01 0. -1.
        -11    1    6    6    0    0 -0.25833497549E+02  0.33947047627E+02  0.14381027411E+03  0.15000388854E+03  0.00000000000E+00 0.  1.
         12    1    6    6    0    0  0.19404548814E+02  0.48837742155E+02  0.35196529025E+02  0.63249167811E+02  0.00000000000E+00 0. -1.
         -5    1    3    3    0  503  0.19093891978E+02 -0.69870121049E+02 -0.45345225371E+02  0.85584402727E+02  0.47000000000E+01 0.  1.
         13    1    4    4    0    0  0.33386873674E+02  0.79761559293E+01 -0.13555109024E+02  0.36905871860E+02  0.00000000000E+00 0. -1.
        -14    1    4    4    0    0 -0.27660503713E+02  0.35456831329E+02  0.34793911822E+02  0.56858655044E+02  0.00000000000E+00 0.  1.
</event>
<event>
12    1  0.8358445E-002  0.1777480E+03  0.7818608E-02  0.1170036E+00
         21   -1    0    0  501  502  0.00000000000E+00  0.00000000000E+00  0.28960434662E+03  0.28960434662E+03  0.00000000000E+00 0. -1.
         21   -1    0    0  502  503 -0.00000000000E+00 -0.00000000000E+00 -0.12250477461E+03  0.12250477461E+03  0.00000000000E+00 0. -1.
         -6    2    1    2    0  503 -0.46472140439E+02 -0.30411775879E+02  0.15184037907E+02  0.17839532617E+03  0.16884845704E+03 0.  0.
        -24    2    3    3    0    0  0.23254675639E+02  0.13992310757E+02 -0.22564849175E+02  0.87397412647E+02  0.79953552890E+02 0.  0.
          6    2    1    2  501    0  0.46472140439E+02  0.30411775879E+02  0.15191553410E+03  0.23371379506E+03  0.16869876273E+03 0.  0.
         24    2    5    5    0    0  0.90624468595E+02  0.17188327010E+02  0.14290600810E+03  0.18651687524E+03  0.76538779079E+02 0.  0.
          5    1    5    5  501    0 -0.44152328156E+02  0.13223448869E+02  0.90095260023E+01  0.47196919819E+02  0.47000000000E+01 0. -1.
        -13    1    6    6    0    0  0.34354072605E+02 -0.75362343628E+01  0.49874063638E+01  0.35522828648E+02  0.00000000000E+00 0.  1.
         14    1    6    6    0    0  0.56270395991E+02  0.24724561373E+02  0.13791860174E+03  0.15099404659E+03  0.00000000000E+00 0. -1.
         -5    1    3    3    0  503 -0.69726816078E+02 -0.44404086637E+02  0.37748887082E+02  0.90997913527E+02  0.47000000000E+01 0.  1.
         11    1    4    4    0    0  0.87301239322E+01  0.31783884485E+02 -0.44674098125E+02  0.55517613602E+02  0.00000000000E+00 0. -1.
        -12    1    4    4    0    0  0.14524551707E+02 -0.17791573727E+02  0.22109248950E+02  0.31879799045E+02  0.00000000000E+00 0.  1.
</event>
<event>
12    1  0.8358445E-002  0.2450391E+03  0.7818608E-02  0.1116622E+00
         21   -1    0    0  503  502  0.00000000000E+00  0.00000000000E+00  0.63921155871E+03  0.63921155871E+03  0.00000000000E+00 0. -1.
         21   -1    0    0  501  503 -0.00000000000E+00 -0.00000000000E+00 -0.47017342552E+03  0.47017342552E+03  0.00000000000E+00 0. -1.
          6    2    1    2  501    0  0.44261421876E+02  0.16850444570E+03 -0.41192820666E+03  0.47885658116E+03  0.17107295575E+03 0.  0.
         24    2    3    3    0    0 -0.27439665614E+02  0.88303247999E+02 -0.30191421662E+03  0.32491358501E+03  0.76591413801E+02 0.  0.
         -6    2    1    2    0  502 -0.44261421876E+02 -0.16850444570E+03  0.58096633985E+03  0.63052840307E+03  0.17231180270E+03 0.  0.
        -24    2    5    5    0    0 -0.20316598060E+00 -0.76214717540E+02  0.45506515795E+03  0.46825788375E+03  0.79827459355E+02 0.  0.
          5    1    3    3  501    0  0.71701087490E+02  0.80201197699E+02 -0.11001399004E+03  0.15394299615E+03  0.47000000000E+01 0. -1.
        -11    1    4    4    0    0 -0.21251698240E+02  0.96669185505E+01 -0.15963325891E+02  0.28282711431E+02  0.00000000000E+00 0.  1.
         12    1    4    4    0    0 -0.61879673737E+01  0.78636329449E+02 -0.28595089073E+03  0.29663087358E+03  0.00000000000E+00 0. -1.
         -5    1    5    5    0  502 -0.44058255895E+02 -0.92289728158E+02  0.12590118189E+03  0.16227051931E+03  0.47000000000E+01 0.  1.
         11    1    6    6    0    0 -0.31378983317E+02 -0.49429152680E+02  0.16062587074E+03  0.17096359869E+03  0.00000000000E+00 0. -1.
        -12    1    6    6    0    0  0.31175817336E+02 -0.26785564860E+02  0.29443928722E+03  0.29729428506E+03  0.00000000000E+00 0.  1.
</event>
<event>
12    1  0.8358445E-002  0.1810805E+03  0.7818608E-02  0.1166802E+00
         21   -1    0    0  503  502  0.00000000000E+00  0.00000000000E+00  0.17748887037E+04  0.17748887037E+04  0.00000000000E+00 0. -1.
         21   -1    0    0  501  503 -0.00000000000E+00 -0.00000000000E+00 -0.19603208810E+02  0.19603208810E+02  0.00000000000E+00 0. -1.
          6    2    1    2  501    0 -0.48446637233E+02  0.27630432173E+02  0.66033475406E+03  0.68466883406E+03  0.17210144530E+03 0.  0.
         24    2    3    3    0    0 -0.77826157309E+02 -0.20150937333E+02  0.32325467941E+03  0.34292143876E+03  0.81477324219E+02 0.  0.
         -6    2    1    2    0  502  0.48446637233E+02 -0.27630432173E+02  0.10949507409E+04  0.11098230785E+04  0.17227775007E+03 0.  0.
        -24    2    5    5    0    0 -0.33352551005E+01 -0.19321795846E+01  0.95011285326E+03  0.95380427114E+03  0.83745426522E+02 0.  0.
          5    1    3    3  501    0  0.29379520076E+02  0.47781369506E+02  0.33708007464E+03  0.34174739530E+03  0.47000000000E+01 0. -1.
        -13    1    4    4    0    0 -0.28773543880E+02  0.31712586671E+02  0.11030153360E+03  0.11832173636E+03  0.00000000000E+00 0.  1.
         14    1    4    4    0    0 -0.49052613429E+02 -0.51863524004E+02  0.21295314582E+03  0.22459970240E+03  0.00000000000E+00 0. -1.
         -5    1    5    5    0  502  0.51781892334E+02 -0.25698252588E+02  0.14483788760E+03  0.15601880734E+03  0.47000000000E+01 0.  1.
         13    1    6    6    0    0 -0.31081582675E+02  0.21379026952E+02  0.25800945947E+03  0.26075277323E+03  0.00000000000E+00 0. -1.
        -14    1    6    6    0    0  0.27746327575E+02 -0.23311206536E+02  0.69210339380E+03  0.69305149790E+03  0.00000000000E+00 0.  1.
</event>
<event>
12    1  0.8358445E-002  0.3201103E+03  0.7818608E-02  0.1076136E+00
         21   -1    0    0  501  502  0.00000000000E+00  0.00000000000E+00  0.11944948007E+03  0.11944948007E+03  0.00000000000E+00 0.  1.
         21   -1    0    0  502  503 -0.00000000000E+00 -0.00000000000E+00 -0.10683459369E+04  0.10683459369E+04  0.00000000000E+00 0.  1.
         -6    2    1    2    0  503  0.26001373827E+03 -0.48981275898E+02 -0.74295883302E+03  0.80716318784E+03  0.17180883207E+03 0.  0.
        -24    2    3    3    0    0  0.18009016384E+03  0.35297061544E+02 -0.45953656303E+03  0.50082858478E+03  0.77311505639E+02 0.  0.
          6    2    1    2  501    0 -0.26001373827E+03  0.48981275898E+02 -0.20593762377E+03  0.38063222908E+03  0.18017846555E+03 0.  0.
         24    2    5    5    0    0 -0.25271622711E+03  0.88364289106E+02 -0.18678553683E+03  0.33598732083E+03  0.79529264744E+02 0.  0.
          5    1    5    5  501    0 -0.72975111578E+01 -0.39383013207E+02 -0.19152086939E+02  0.44644908248E+02  0.47000000000E+01 0. -1.
        -11    1    6    6    0    0 -0.24803434023E+03  0.72003161237E+02 -0.18717171642E+03  0.31896510873E+03  0.00000000000E+00 0.  1.
         12    1    6    6    0    0 -0.46818868789E+01  0.16361127868E+02  0.38617958195E+00  0.17022212093E+02  0.00000000000E+00 0. -1.
         -5    1    3    3    0  503  0.79923574430E+02 -0.84278337443E+02 -0.28342226999E+03  0.30633460307E+03  0.47000000000E+01 0.  1.
         13    1    4    4    0    0  0.11208701367E+03  0.22360871847E+02 -0.18300456630E+03  0.21576417337E+03  0.00000000000E+00 0. -1.
        -14    1    4    4    0    0  0.68003150172E+02  0.12936189698E+02 -0.27653199673E+03  0.28506441141E+03  0.00000000000E+00 0.  1.
</event>
<event>
12    1  0.8358445E-002  0.1824243E+03  0.7818608E-02  0.1167526E+00
         21   -1    0    0  501  502  0.00000000000E+00  0.00000000000E+00  0.47240959025E+02  0.47240959025E+02  0.00000000000E+00 0.  1.
         21   -1    0    0  502  503 -0.00000000000E+00 -0.00000000000E+00 -0.79869593065E+03  0.79869593065E+03  0.00000000000E+00 0.  1.
         -6    2    1    2    0  503 -0.44566527836E+02 -0.38896266834E+02 -0.55134876077E+03  0.58074440605E+03  0.17256741925E+03 0.  0.
        -24    2    3    3    0    0  0.39986038987E+02 -0.32098247127E+02 -0.31294201419E+03  0.32765308570E+03  0.82429724836E+02 0.  0.
          6    2    1    2  501    0  0.44566527836E+02  0.38896266834E+02 -0.20010621085E+03  0.26519248362E+03  0.16366264928E+03 0.  0.
         24    2    5    5    0    0  0.25137619680E+02  0.34251748009E+00 -0.20436993901E+03  0.22155599156E+03  0.81779998672E+02 0.  0.
          5    1    5    5  501    0  0.19428908156E+02  0.38553749354E+02  0.42637281569E+01  0.43636492059E+02  0.47000000000E+01 0. -1.
        -11    1    6    6    0    0  0.49840864682E+02 -0.17433363175E+02 -0.10343856834E+03  0.11613600374E+03  0.00000000000E+00 0.  1.
         12    1    6    6    0    0 -0.24703245003E+02  0.17775880655E+02 -0.10093137067E+03  0.10541998782E+03  0.00000000000E+00 0. -1.
         -5    1    3    3    0  503 -0.84552566822E+02 -0.67980197072E+01 -0.23840674658E+03  0.25309132036E+03  0.47000000000E+01 0.  1.
         13    1    4    4    0    0  0.43823721868E+02 -0.20829742026E+02 -0.74462553917E+02  0.88876704975E+02  0.00000000000E+00 0. -1.
        -14    1    4    4    0    0 -0.38376828816E+01 -0.11268505101E+02 -0.23847946028E+03  0.23877638072E+03  0.00000000000E+00 0.  1.
</event>
<event>
12    1  0.8358445E-002  0.1797210E+03  0.7818608E-02  0.1171025E+00
         21   -1    0    0  503  502  0.00000000000E+00  0.00000000000E+00  0.33988018420E+03  0.33988018420E+03  0.00000000000E+00 0. -1.
         21   -1    0    0  501  503 -0.00000000000E+00 -0.00000000000E+00 -0.98725022783E+02  0.98725022783E+02  0.00000000000E+00 0. -1.
          6    2    1    2  501    0 -0.33484677693E+01  0.32891003009E+02  0.18596771234E+03  0.25060181670E+03  0.16469441455E+03 0.  0.
         24    2    3    3    0    0 -0.45915538364E+02 -0.52399506635E+00  0.17129713823E+03  0.19433607810E+03  0.79468801765E+02 0.  0.
         -6    2    1    2    0  502  0.33484677693E+01 -0.32891003009E+02  0.55187449078E+02  0.18800339028E+03  0.17665387034E+03 0.  0.
        -24    2    5    5    0    0 -0.36707943437E+02  0.24583602010E+00 -0.25229842700E+02  0.92130573508E+02  0.80647157827E+02 0.  0.
          5    1    3    3  501    0  0.42567070594E+02  0.33414998075E+02  0.14670574118E+02  0.56265738601E+02  0.47000000000E+01 0. -1.
        -13    1    4    4    0    0 -0.54127072297E+02  0.28704950883E+02  0.11972642307E+03  0.13449212074E+03  0.00000000000E+00 0.  1.
         14    1    4    4    0    0  0.82115339338E+01 -0.29228945949E+02  0.51570715155E+02  0.59843957359E+02  0.00000000000E+00 0. -1.
         -5    1    5    5    0  502  0.40056411207E+02 -0.33136839029E+02  0.80417291778E+02  0.95872816776E+02  0.47000000000E+01 0.  1.
         13    1    6    6    0    0 -0.47813238632E+02 -0.24913595962E+02 -0.33423706292E+02  0.63434511068E+02  0.00000000000E+00 0. -1.
        -14    1    6    6    0    0  0.11105295194E+02  0.25159431982E+02  0.81938635918E+01  0.28696062440E+02  0.00000000000E+00 0.  1.
</event>
<event>
12    1  0.8358445E-002  0.1765731E+03  0.7818608E-02  0.1171447E+00
         21   -1    0    0  501  502  0.00000000000E+00  0.00000000000E+00  0.12939138131E+04  0.12939138131E+04  0.00000000000E+00 0. -1.
         21   -1    0    0  502  503 -0.00000000000E+00 -0.00000000000E+00 -0.25843555280E+02  0.25843555280E+02  0.00000000000E+00 0. -1.
         -6    2    1    2    0  503  0.20074738207E+02  0.31002182688E+02  0.45685216438E+03  0.48978766873E+03  0.17266710718E+03 0.  0.
        -24    2    3    3    0    0 -0.95572493277E+01 -0.54354392625E+02  0.23561903927E+03  0.25076887182E+03  0.65749177898E+02 0.  0.
          6    2    1    2  501    0 -0.20074738207E+02 -0.31002182688E+02  0.81121809346E+03  0.82996969966E+03  0.17149570478E+03 0.  0.
         24    2    5    5    0    0  0.54927086788E+02 -0.17439355123E+02  0.43313719173E+03  0.44425415383E+03  0.80204802636E+02 0.  0.
          5    1    5    5  501    0 -0.75001824995E+02 -0.13562827565E+02  0.37808090173E+03  0.38571554583E+03  0.47000000000E+01 0. -1.
        -13    1    6    6    0    0 -0.63775582063E+01 -0.34398289820E+02  0.16639334734E+03  0.17003135485E+03  0.00000000000E+00 0.  1.
         14    1    6    6    0    0  0.61304644994E+02  0.16958934697E+02  0.26674384439E+03  0.27422279898E+03  0.00000000000E+00 0. -1.
         -5    1    3    3    0  503  0.29631987535E+02  0.85356575313E+02  0.22123312511E+03  0.23901879692E+03  0.47000000000E+01 0.  1.
         11    1    4    4    0    0  0.52628149244E+01 -0.41240843150E+02  0.22399049844E+03  0.22781625876E+03  0.00000000000E+00 0. -1.
        -12    1    4    4    0    0 -0.14820064252E+02 -0.13113549476E+02  0.11628540829E+02  0.22952613056E+02  0.00000000000E+00 0.  1.
</event>
<event>
12    1  0.8358445E-002  0.2445432E+03  0.7818608E-02  0.1116862E+00
         21   -1    0    0  501  502  0.00000000000E+00  0.00000000000E+00  0.11902005072E+03  0.11902005072E+03  0.00000000000E+00 0. -1.
         21   -1    0    0  502  503 -0.00000000000E+00 -0.00000000000E+00 -0.59283620366E+03  0.59283620366E+03  0.00000000000E+00 0. -1.
         -6    2    1    2    0  503  0.17277526625E+03  0.68636541868E+00 -0.37631052788E+03  0.44859076221E+03  0.17254650045E+03 0.  0.
        -24    2    3    3    0    0  0.19249926410E+03 -0.18977795143E+02 -0.35860907112E+03  0.41525689245E+03  0.80135494327E+02 0.  0.
          6    2    1    2  501    0 -0.17277526625E+03 -0.68636541868E+00 -0.97505625058E+02  0.26326549217E+03  0.17305955253E+03 0.  0.
         24    2    5    5    0    0 -0.14421818649E+03  0.92183737736E+01 -0.13596907394E+03  0.21412144306E+03  0.80476950605E+02 0.  0.
          5    1    5    5  501    0 -0.28557079763E+02 -0.99047391923E+01  0.38463448883E+02  0.49144049111E+02  0.47000000000E+01 0. -1.
        -11    1    6    6    0    0 -0.40485661819E+02 -0.47670535460E+01  0.21492791125E+01  0.40821967287E+02  0.00000000000E+00 0.  1.
         12    1    6    6    0    0 -0.10373252467E+03  0.13985427320E+02 -0.13811835305E+03  0.17329947577E+03  0.00000000000E+00 0. -1.
         -5    1    3    3    0  503 -0.19723997844E+02  0.19664160562E+02 -0.17701456764E+02  0.33333869759E+02  0.47000000000E+01 0.  1.
         11    1    4    4    0    0  0.30477062338E+02  0.73528248276E+01 -0.15652680154E+02  0.35041714537E+02  0.00000000000E+00 0. -1.
        -12    1    4    4    0    0  0.16202220176E+03 -0.26330619971E+02 -0.34295639096E+03  0.38021517791E+03  0.00000000000E+00 0.  1.
</event>
<event>
12    1  0.8358445E-002  0.1888255E+03  0.7818608E-02  0.1159781E+00
         21   -1    0    0  503  502  0.00000000000E+00  0.00000000000E+00  0.40798303849E+03  0.40798303849E+03  0.00000000000E+00 0. -1.
         21   -1    0    0  501  503 -0.00000000000E+00 -0.00000000000E+00 -0.89346498101E+02  0.89346498101E+02  0.00000000000E+00 0. -1.
          6    2    1    2  501    0 -0.53408417952E+02 -0.48111925830E+02  0.11842602399E+03  0.22288960430E+03  0.17460766315E+03 0.  0.
         24    2    3    3    0    0 -0.31516530556E+02  0.64197350726E+00 -0.50378332325E+01  0.88273069375E+02  0.82298549106E+02 0.  0.
         -6    2    1    2    0  502  0.53408417952E+02  0.48111925830E+02  0.20021051640E+03  0.27443993230E+03  0.17339495104E+03 0.  0.
        -24    2    5    5    0    0  0.21899465760E+02  0.13099771801E+02  0.21016055692E+03  0.22606888409E+03  0.79300000318E+02 0.  0.
          5    1    3    3  501    0 -0.21891887396E+02 -0.48753899337E+02  0.12346385722E+03  0.13461653492E+03  0.47000000000E+01 0. -1.
        -13    1    4    4    0    0 -0.20759774153E+02 -0.37885530719E+02 -0.17147589979E+02  0.46479258845E+02  0.00000000000E+00 0.  1.
         14    1    4    4    0    0 -0.10756756403E+02  0.38527504226E+02  0.12109756746E+02  0.41793810530E+02  0.00000000000E+00 0. -1.
         -5    1    5    5    0  502  0.31508952191E+02  0.35012154029E+02 -0.99500405140E+01  0.48371048202E+02  0.47000000000E+01 0.  1.
         11    1    6    6    0    0 -0.25217820978E+02  0.48018671173E+01  0.29148717205E+02  0.38841268483E+02  0.00000000000E+00 0. -1.
        -12    1    6    6    0    0  0.47117286738E+02  0.82979046832E+01  0.18101183971E+03  0.18722761561E+03  0.00000000000E+00 0.  1.
</event>
<event>
12    1  0.8358445E-002  0.2674002E+03  0.7818608E-02  0.1102917E+00
         21   -1    0    0  503  502  0.00000000000E+00  0.00000000000E+00  0.11381495417E+04  0.11381495417E+04  0.00000000000E+00 0. -1.
         21   -1    0    0  501  503 -0.00000000000E+00 -0.00000000000E+00 -0.15092203383E+03  0.15092203383E+03  0.00000000000E+00 0. -1.
          6    2    1    2  501    0  0.19663848411E+03  0.57741766353E+02  0.90970772289E+00  0.26740179152E+03  0.17176171146E+03 0.  0.
         24    2    3    3    0    0  0.67184585354E+02  0.79393215395E+02 -0.27962378135E+02  0.13292954720E+03  0.77918667653E+02 0.  0.
         -6    2    1    2    0  502 -0.19663848411E+03 -0.57741766353E+02  0.98631780011E+03  0.10216697840E+04  0.17025140130E+03 0.  0.
        -24    2    5    5    0    0 -0.17440155945E+03 -0.68294251357E+02  0.97117689841E+03  0.99239227276E+03  0.81103922961E+02 0.  0.
          5    1    3    3  501    0  0.12945389876E+03 -0.21651449042E+02  0.28872085858E+02  0.13447224431E+03  0.47000000000E+01 0. -1.
        -11    1    4    4    0    0  0.22479275009E+02 -0.12299376579E+02  0.42069571689E+01  0.25967113004E+02  0.00000000000E+00 0.  1.
         12    1    4    4    0    0  0.44705310345E+02  0.91692591974E+02 -0.32169335304E+02  0.10696243420E+03  0.00000000000E+00 0. -1.
         -5    1    5    5    0  502 -0.22236924662E+02  0.10552485003E+02  0.15140901696E+02  0.29277511205E+02  0.47000000000E+01 0.  1.
         11    1    6    6    0    0 -0.74057962207E+02 -0.30180559903E+02  0.23051733086E+03  0.24399526182E+03  0.00000000000E+00 0. -1.
        -12    1    6    6    0    0 -0.10034359724E+03 -0.38113691453E+02  0.74065956755E+03  0.74839701094E+03  0.00000000000E+00 0.  1.
</event>
<event>
12    1  0.8358445E-002  0.1940384E+03  0.7818608E-02  0.1155002E+00
         21   -1    0    0  501  502  0.00000000000E+00  0.00000000000E+00  0.22888164255E+03  0.22888164255E+03  0.00000000000E+00 0.  1.
         21   -1    0    0  502  503 -0.00000000000E+00 -0.00000000000E+00 -0.28050284427E+03  0.28050284427E+03  0.00000000000E+00 0.  1.
         -6    2    1    2    0  503  0.68727648264E+02  0.61299724540E+02 -0.18998640809E+03  0.27156167405E+03  0.17079157383E+03 0.  0.
        -24    2    3    3    0    0  0.73788749810E+01  0.19091458170E+02 -0.22689359790E+02  0.88379791483E+02  0.82929180171E+02 0.  0.
          6    2    1    2  501    0 -0.68727648264E+02 -0.61299724540E+02  0.13836520637E+03  0.23782281276E+03  0.17009883619E+03 0.  0.
         24    2    5    5    0    0 -0.94010958529E+02 -0.40791599733E+02  0.15372278272E+03  0.20152165420E+03  0.80487690070E+02 0.  0.
          5    1    5    5  501    0  0.25283310264E+02 -0.20508124807E+02 -0.15357576357E+02  0.36301158557E+02  0.47000000000E+01 0. -1.
        -13    1    6    6    0    0 -0.52943194601E+02  0.20086952466E+02  0.60811846828E+02  0.83093611238E+02  0.00000000000E+00 0.  1.
         14    1    6    6    0    0 -0.41067763928E+02 -0.60878552200E+02  0.92910935894E+02  0.11842804297E+03  0.00000000000E+00 0. -1.
         -5    1    3    3    0  503  0.61348773283E+02  0.42208266370E+02 -0.16729704830E+03  0.18318188257E+03  0.47000000000E+01 0.  1.
         13    1    4    4    0    0  0.43952616536E+02  0.12414477192E+02 -0.23138086737E+02  0.51198855478E+02  0.00000000000E+00 0. -1.
        -14    1    4    4    0    0 -0.36573741555E+02  0.66769809782E+01  0.44872694724E+00  0.37180936005E+02  0.00000000000E+00 0.  1.
</event>
<event>
12    1  0.8358445E-002  0.1836860E+03  0.7818608E-02  0.1164482E+00
         21   -1    0    0  501  502  0.00000000000E+00  0.00000000000E+00  0.21504800979E+03  0.21504800979E+03  0.00000000000E+00 0. -1.
         21   -1    0    0  502  503 -0.00000000000E+00 -0.00000000000E+00 -0.16412152585E+03  0.16412152585E+03  0.00000000000E+00 0. -1.
         -6    2    1    2    0  503  0.32882483889E+02  0.56974998050E+02 -0.16302510718E+02  0.18356721201E+03  0.17059818674E+03 0.  0.
        -24    2    3    3    0    0  0.47177189667E+01  0.25618041441E+02 -0.74234862945E+02  0.11177055370E+03  0.79393330181E+02 0.  0.
          6    2    1    2  501    0 -0.32882483889E+02 -0.56974998050E+02  0.67228994657E+02  0.19560232363E+03  0.17150254557E+03 0.  0.
         24    2    5    5    0    0 -0.80293847243E+02 -0.51470549079E+02  0.14321139979E+02  0.12419176825E+03  0.78244366711E+02 0.  0.
          5    1    5    5  501    0  0.47411363355E+02 -0.55044489709E+01  0.52907854678E+02  0.71410555384E+02  0.47000000000E+01 0. -1.
        -11    1    6    6    0    0 -0.52165105774E+01 -0.33528120039E+02 -0.20355712095E+02  0.39568950338E+02  0.00000000000E+00 0.  1.
         12    1    6    6    0    0 -0.75077336666E+02 -0.17942429039E+02  0.34676852074E+02  0.84622817907E+02  0.00000000000E+00 0. -1.
         -5    1    3    3    0  503  0.28164764922E+02  0.31356956608E+02  0.57932352227E+02  0.71796658316E+02  0.47000000000E+01 0.  1.
         13    1    4    4    0    0  0.39643537193E+02  0.10705714688E+02 -0.20300285504E+02  0.45807466201E+02  0.00000000000E+00 0. -1.
        -14    1    4    4    0    0 -0.34925818227E+02  0.14912326753E+02 -0.53934577442E+02  0.65963087495E+02  0.00000000000E+00 0.  1.
</event>
<event>
12    1  0.8358445E-002  0.1828635E+03  0.7818608E-02  0.1166461E+00
         21   -1    0    0  501  502  0.00000000000E+00  0.00000000000E+00  0.19173585865E+03  0.19173585865E+03  0.00000000000E+00 0. -1.
         21   -1    0    0  502  503 -0.00000000000E+00 -0.00000000000E+00 -0.24648772130E+03  0.24648772130E+03  0.00000000000E+00 0. -1.
         -6    2    1    2    0  503  0.14127156683E+02 -0.37394559401E+02 -0.14999016488E+03  0.23204551895E+03  0.17248229961E+03 0.  0.
        -24    2    3    3    0    0  0.49246077832E+02  0.75574600800E+01 -0.28792492907E+02  0.98011984458E+02  0.79341351545E+02 0.  0.
          6    2    1    2  501    0 -0.14127156683E+02  0.37394559401E+02  0.95238302229E+02  0.20617806100E+03  0.17844082772E+03 0.  0.
         24    2    5    5    0    0 -0.51786855675E+02 -0.35930176074E+02  0.49395112367E+02  0.11174047411E+03  0.77930741398E+02 0.  0.
          5    1    5    5  501    0  0.37659698992E+02  0.73324735475E+02  0.45843189862E+02  0.94437586889E+02  0.47000000000E+01 0. -1.
        -11    1    6    6    0    0 -0.44248018883E+02 -0.72541586344E+00 -0.70287890005E+01  0.44808674139E+02  0.00000000000E+00 0.  1.
         12    1    6    6    0    0 -0.75388367918E+01 -0.35204760211E+02  0.56423901367E+02  0.66931799970E+02  0.00000000000E+00 0. -1.
         -5    1    3    3    0  503 -0.35118921149E+02 -0.44952019481E+02 -0.12119767197E+03  0.13403353449E+03  0.47000000000E+01 0.  1.
         11    1    4    4    0    0  0.22673131311E+02  0.11710256856E+01 -0.55398590260E+02  0.59870242921E+02  0.00000000000E+00 0. -1.
        -12    1    4    4    0    0  0.26572946521E+02  0.63864343945E+01  0.26606097354E+02  0.38141741537E+02  0.00000000000E+00 0.  1.
</event>
<event>
12    1  0.8358445E-002  0.1864692E+03  0.7818608E-02  0.1161940E+00
         21   -1    0    0  501  502  0.00000000000E+00  0.00000000000E+00  0.49685900744E+03  0.49685900744E+03  0.00000000000E+00 0. -1.
         21   -1    0    0  502  503 -0.00000000000E+00 -0.00000000000E+00 -0.10535812177E+03  0.10535812177E+03  0.00000000000E+00 0.  1.
         -6    2    1    2    0  503  0.47851017722E+02 -0.52036106926E+02  0.20638355974E+02  0.18760782030E+03  0.17254934418E+03 0.  0.
        -24    2    3    3    0    0  0.15047448624E+02 -0.95638436361E+02  0.32906751602E+02  0.13148437770E+03  0.82656827049E+02 0.  0.
          6    2    1    2  501    0 -0.47851017722E+02  0.52036106926E+02  0.37086252969E+03  0.41460930891E+03  0.17136040029E+03 0.  0.
         24    2    5    5    0    0  0.26290126256E+02  0.28385085724E+02  0.28598180047E+03  0.29935694136E+03  0.79574520467E+02 0.  0.
          5    1    5    5  501    0 -0.74141143978E+02  0.23651021201E+02  0.84880729216E+02  0.11525236755E+03  0.47000000000E+01 0. -1.
        -11    1    6    6    0    0 -0.11686149712E+02  0.87084493130E+01  0.54131016540E+01  0.15546859942E+02  0.00000000000E+00 0.  1.
         12    1    6    6    0    0  0.37976275968E+02  0.19676636411E+02  0.28056869882E+03  0.28381008142E+03  0.00000000000E+00 0. -1.
         -5    1    3    3    0  503  0.32803569098E+02  0.43602329435E+02 -0.12268395629E+02  0.56123442598E+02  0.47000000000E+01 0.  1.
         13    1    4    4    0    0 -0.23942130418E+02 -0.88298615542E+01  0.25433945685E+02  0.36028844793E+02  0.00000000000E+00 0. -1.
        -14    1    4    4    0    0  0.38989579042E+02 -0.86808574807E+02  0.74728059177E+01  0.95455532905E+02  0.00000000000E+00 0.  1.
</event>
<event>
12    1  0.8358445E-002  0.2272160E+03  0.7818608E-02  0.1128954E+00
         21   -1    0    0  503  502  0.00000000000E+00  0.00000000000E+00  0.17174075550E+04  0.17174075550E+04  0.00000000000E+00 0.  1.
         21   -1    0    0  501  503 -0.00000000000E+00 -0.00000000000E+00 -0.63814758517E+02  0.63814758517E+02  0.00000000000E+00 0. -1.
          6    2    1    2  501    0  0.10834893196E+03  0.10128435723E+03  0.17830165619E+03  0.28882274467E+03  0.17213101163E+03 0.  0.
         24    2    3    3    0    0  0.12169657282E+03  0.45426395770E+02  0.17397908239E+03  0.23103826562E+03  0.78970537580E+02 0.  0.
         -6    2    1    2    0  502 -0.10834893196E+03 -0.10128435723E+03  0.14752911403E+04  0.14923995688E+04  0.16963051728E+03 0.  0.
        -24    2    5    5    0    0 -0.71102881981E-01 -0.24352968563E+02  0.70000861207E+03  0.70580716144E+03  0.86940324512E+02 0.  0.
          5    1    3    3  501    0 -0.13347640855E+02  0.55857961456E+02  0.43225737998E+01  0.57784479046E+02  0.47000000000E+01 0. -1.
        -13    1    4    4    0    0  0.12080333045E+03  0.55079945924E+02  0.12932348693E+03  0.18534241112E+03  0.00000000000E+00 0.  1.
         14    1    4    4    0    0  0.89324236945E+00 -0.96535501539E+01  0.44655595461E+02  0.45695854500E+02  0.00000000000E+00 0. -1.
         -5    1    5    5    0  502 -0.10827782908E+03 -0.76931388662E+02  0.77528252820E+03  0.78659240739E+03  0.47000000000E+01 0.  1.
         11    1    6    6    0    0  0.39034477907E+02 -0.26619470327E+02  0.27818567534E+03  0.28216937579E+03  0.00000000000E+00 0. -1.
        -12    1    6    6    0    0 -0.39105580789E+02  0.22665017633E+01  0.42182293673E+03  0.42363778565E+03  0.00000000000E+00 0.  1.
</event>
<event>
12    1  0.8358445E-002  0.1730332E+03  0.7818608E-02  0.1175009E+00
         21   -1    0    0  503  502  0.00000000000E+00  0.00000000000E+00  0.34775464961E+03  0.34775464961E+03  0.00000000000E+00 0. -1.
         21   -1    0    0  501  503 -0.00000000000E+00 -0.00000000000E+00 -0.35212432367E+03  0.35212432367E+03  0.00000000000E+00 0. -1.
          6    2    1    2  501    0 -0.19358361066E+01 -0.12752983924E+02 -0.30667031300E+03  0.35211812638E+03  0.17255175453E+03 0.  0.
         24    2    3    3    0    0 -0.55634722483E+02 -0.28889045908E+02 -0.17217294589E+03  0.20632520936E+03  0.94851301535E+02 0.  0.
         -6    2    1    2    0  502  0.19358361066E+01  0.12752983924E+02  0.30230063894E+03  0.34776084689E+03  0.17142212305E+03 0.  0.
        -24    2    5    5    0    0  0.28765284875E+02 -0.29084971989E+00  0.30529605842E+03  0.31741247865E+03  0.81960186129E+02 0.  0.
          5    1    3    3  501    0  0.53698886376E+02  0.16136061984E+02 -0.13449736711E+03  0.14579291702E+03  0.47000000000E+01 0. -1.
        -11    1    4    4    0    0 -0.19546475740E+02 -0.46019843911E+02 -0.29254047395E+02  0.57928318087E+02  0.00000000000E+00 0.  1.
         12    1    4    4    0    0 -0.36088246743E+02  0.17130798003E+02 -0.14291889850E+03  0.14839689128E+03  0.00000000000E+00 0. -1.
         -5    1    5    5    0  502 -0.26829448768E+02  0.13043833644E+02 -0.29954194787E+01  0.30348368246E+02  0.47000000000E+01 0.  1.
         11    1    6    6    0    0  0.53807583655E+02  0.15091868362E+02  0.22712949715E+03  0.23390346091E+03  0.00000000000E+00 0. -1.
        -12    1    6    6    0    0 -0.25042298781E+02 -0.15382718082E+02  0.78166561267E+02  0.83509017741E+02  0.00000000000E+00 0.  1.
</event>
<event>
12    1  0.8358445E-002  0.2148889E+03  0.7818608E-02  0.1138253E+00
         21   -1    0    0  503  502  0.00000000000E+00  0.00000000000E+00  0.13814760377E+03  0.13814760377E+03  0.00000000000E+00 0.  1.
         21   -1    0    0  501  503 -0.00000000000E+00 -0.00000000000E+00 -0.41023413119E+03  0.41023413119E+03  0.00000000000E+00 0.  1.
          6    2    1    2  501    0  0.88555501537E+02  0.92910868489E+02 -0.25778333024E+03  0.33560316874E+03  0.17234481478E+03 0.  0.
         24    2    3    3    0    0  0.13072559623E+03  0.74318214557E+02 -0.20135434796E+03  0.26259410281E+03  0.76155832775E+02 0.  0.
         -6    2    1    2    0  502 -0.88555501537E+02 -0.92910868489E+02 -0.14303197177E+02  0.21277856622E+03  0.16910242594E+03 0.  0.
        -24    2    5    5    0    0 -0.65400314613E+02 -0.11950133636E+03  0.20971123509E+02  0.16268282426E+03  0.86418416707E+02 0.  0.
          5    1    3    3  501    0 -0.42170094691E+02  0.18592653932E+02 -0.56428982284E+02  0.73009065930E+02  0.47000000000E+01 0. -1.
        -13    1    4    4    0    0  0.58104605362E+02  0.20726332528E+01 -0.36954076826E+02  0.68891543509E+02  0.00000000000E+00 0.  1.
         14    1    4    4    0    0  0.72620990865E+02  0.72245581304E+02 -0.16440027113E+03  0.19370255930E+03  0.00000000000E+00 0. -1.
         -5    1    5    5    0  502 -0.23155186924E+02  0.26590467867E+02 -0.35274320687E+02  0.50095741962E+02  0.47000000000E+01 0.  1.
         11    1    6    6    0    0  0.17816691625E+02 -0.48348859527E+02  0.20235165556E+01  0.51566862783E+02  0.00000000000E+00 0. -1.
        -12    1    6    6    0    0 -0.83217006238E+02 -0.71152476829E+02  0.18947606954E+02  0.11111596148E+03  0.00000000000E+00 0.  1.
</event>
<event>
12    1  0.8358445E-002  0.1747509E+03  0.7818608E-02  0.1173041E+00
         21   -1    0    0  503  502  0.00000000000E+00  0.00000000000E+00  0.11322858553E+04  0.11322858553E+04  0.00000000000E+00 0.  1.
         21   -1    0    0  501  503 -0.00000000000E+00 -0.00000000000E+00 -0.17364857236E+03  0.17364857236E+03  0.00000000000E+00 0.  1.
          6    2    1    2  501    0  0.20580435139E+02  0.15977772283E+02 -0.12092578613E+03  0.21231919304E+03  0.17256172943E+03 0.  0.
         24    2    3    3    0    0  0.71641521041E+02  0.11798409081E+01 -0.11954403291E+03  0.15893181149E+03  0.76384850191E+02 0.  0.
         -6    2    1    2    0  502 -0.20580435139E+02 -0.15977772283E+02  0.10795630691E+04  0.10936152346E+04  0.17279762087E+03 0.  0.
        -24    2    5    5    0    0 -0.74859976769E+02 -0.17793338037E+02  0.54952106327E+03  0.56077737670E+03  0.81100235786E+02 0.  0.
          5    1    3    3  501    0 -0.51061085903E+02  0.14797931375E+02 -0.13817532177E+01  0.53387381547E+02  0.47000000000E+01 0. -1.
        -13    1    4    4    0    0  0.50344976249E+02 -0.31700215589E+02 -0.44559328748E+02  0.74330707520E+02  0.00000000000E+00 0.  1.
         14    1    4    4    0    0  0.21296544792E+02  0.32880056497E+02 -0.74984704162E+02  0.84601103974E+02  0.00000000000E+00 0. -1.
         -5    1    5    5    0  502  0.54279541630E+02  0.18155657544E+01  0.53004200582E+03  0.53283785793E+03  0.47000000000E+01 0.  1.
         13    1    6    6    0    0 -0.28825677151E+02 -0.33380081535E+02  0.10901880056E+03  0.11760207643E+03  0.00000000000E+00 0. -1.
        -14    1    6    6    0    0 -0.46034299617E+02  0.15586743498E+02  0.44050226271E+03  0.44317530027E+03  0.00000000000E+00 0.  1.
</event>
<event>
12    1  0.8358445E-002  0.2140949E+03  0.7818608E-02  0.1139136E+00
         21   -1    0    0  501  502  0.00000000000E+00  0.00000000000E+00  0.25172767220E+03  0.25172767220E+03  0.00000000000E+00 0. -1.
         21   -1    0    0  502  503 -0.00000000000E+00 -0.00000000000E+00 -0.21859168524E+03  0.21859168524E+03  0.00000000000E+00 0. -1.
         -6    2    1    2    0  503 -0.12368590003E+03 -0.32514195863E+02 -0.83969587174E+02  0.22628995879E+03  0.16673595617E+03 0.  0.
        -24    2    3    3    0    0  0.99518423433E+00 -0.57352505375E+00 -0.57941648600E+02  0.94893144477E+02  0.75140900338E+02 0.  0.
          6    2    1    2  501    0  0.12368590003E+03  0.32514195863E+02  0.11710557413E+03  0.24402939865E+03  0.17170106905E+03 0.  0.
         24    2    5    5    0    0  0.45854835504E+02 -0.57049695124E+02  0.43454187450E+02  0.10429399893E+03  0.60263074539E+02 0.  0.
          5    1    5    5  501    0  0.77831064530E+02  0.89563890988E+02  0.73651386676E+02  0.13973539972E+03  0.47000000000E+01 0. -1.
        -11    1    6    6    0    0  0.22333260840E+02 -0.12782651800E+02  0.47479567210E+02  0.54004444532E+02  0.00000000000E+00 0.  1.
         12    1    6    6    0    0  0.23521574663E+02 -0.44267043324E+02 -0.40253797594E+01  0.50289554397E+02  0.00000000000E+00 0. -1.
         -5    1    3    3    0  503 -0.12468108427E+03 -0.31940670810E+02 -0.26027938574E+02  0.13139681432E+03  0.47000000000E+01 0.  1.
         13    1    4    4    0    0 -0.92870579459E+01 -0.32812294868E+02 -0.49340817662E+02  0.59978433019E+02  0.00000000000E+00 0. -1.
        -14    1    4    4    0    0  0.10282242180E+02  0.32238769814E+02 -0.86008309378E+01  0.34914711458E+02  0.00000000000E+00 0.  1.
</event>
<event>
12    1  0.8358445E-002  0.1861810E+03  0.7818608E-02  0.1163793E+00
         21   -1    0    0  501  502  0.00000000000E+00  0.00000000000E+00  0.10181229796E+04  0.10181229796E+04  0.00000000000E+00 0. -1.
         21   -1    0    0  502  503 -0.00000000000E+00 -0.00000000000E+00 -0.72317984100E+02  0.72317984100E+02  0.00000000000E+00 0. -1.
         -6    2    1    2    0  503 -0.46406804992E+02 -0.55941094040E+01  0.73639254992E+02  0.20021513038E+03  0.18021784858E+03 0.  0.
        -24    2    3    3    0    0  0.25534792973E+02  0.42097977649E+02  0.16077034343E+02  0.96361252595E+02  0.81257335632E+02 0.  0.
          6    2    1    2  501    0  0.46406804992E+02  0.55941094040E+01  0.87216574048E+03  0.89022583329E+03  0.17217453291E+03 0.  0.
         24    2    5    5    0    0 -0.14831009982E+02 -0.42247413769E+02  0.32243616826E+03  0.33501094346E+03  0.79135622858E+02 0.  0.
          5    1    5    5  501    0  0.61237814974E+02  0.47841523173E+02  0.54972957221E+03  0.55521488983E+03  0.47000000000E+01 0. -1.
        -13    1    6    6    0    0 -0.20747754751E+02  0.14213576423E+02  0.42561051375E+02  0.49436203092E+02  0.00000000000E+00 0.  1.
         14    1    6    6    0    0  0.59167447688E+01 -0.56460990193E+02  0.27987511689E+03  0.28557474037E+03  0.00000000000E+00 0. -1.
         -5    1    3    3    0  503 -0.71941597965E+02 -0.47692087053E+02  0.57562220649E+02  0.10385387779E+03  0.47000000000E+01 0.  1.
         13    1    4    4    0    0 -0.28417352667E+02  0.37749980219E+01  0.22551284885E+01  0.28755558544E+02  0.00000000000E+00 0. -1.
        -14    1    4    4    0    0  0.53952145640E+02  0.38322979627E+02  0.13821905855E+02  0.67605694051E+02  0.00000000000E+00 0.  1.
</event>
<event>
12    1  0.8358445E-002  0.1794019E+03  0.7818608E-02  0.1168707E+00
         21   -1    0    0  501  502  0.00000000000E+00  0.00000000000E+00  0.76105034911E+02  0.76105034911E+02  0.00000000000E+00 0. -1.
         21   -1    0    0  502  503 -0.00000000000E+00 -0.00000000000E+00 -0.42942473795E+03  0.42942473795E+03  0.00000000000E+00 0. -1.
         -6    2    1    2    0  503 -0.49825211868E+02  0.11476370019E+01 -0.21519119344E+03  0.28016475957E+03  0.17234028537E+03 0.  0.
        -24    2    3    3    0    0 -0.89125520935E+02 -0.35481365937E+02 -0.16407114239E+03  0.20585764168E+03  0.79093255484E+02 0.  0.
          6    2    1    2  501    0  0.49825211868E+02 -0.11476370019E+01 -0.13812850960E+03  0.22536501330E+03  0.17095623781E+03 0.  0.
         24    2    5    5    0    0  0.47178032606E+02  0.39735676828E+02 -0.23755989333E+02  0.10378534271E+03  0.80014745881E+02 0.  0.
          5    1    5    5  501    0  0.26471792621E+01 -0.40883313830E+02 -0.11437252027E+03  0.12157967059E+03  0.47000000000E+01 0. -1.
        -13    1    6    6    0    0  0.31105297958E+02  0.15658824218E+02 -0.52493670929E+02  0.62994633299E+02  0.00000000000E+00 0.  1.
         14    1    6    6    0    0  0.16072734648E+02  0.24076852609E+02  0.28737681596E+02  0.40790709410E+02  0.00000000000E+00 0. -1.
         -5    1    3    3    0  503  0.39300309066E+02  0.36629002939E+02 -0.51120051046E+02  0.74307117882E+02  0.47000000000E+01 0.  1.
         13    1    4    4    0    0 -0.66912223317E+01  0.92060120554E+01 -0.77197697589E+02  0.78032093573E+02  0.00000000000E+00 0. -1.
        -14    1    4    4    0    0 -0.82434298603E+02 -0.44687377992E+02 -0.86873444803E+02  0.12782554811E+03  0.00000000000E+00 0.  1.
</event>
<event>
12    1  0.8358445E-002  0.1980603E+03  0.7818608E-02  0.1151943E+00
         21   -1    0    0  501  502  0.00000000000E+00  0.00000000000E+00  0.12874412855E+03  0.12874412855E+03  0.00000000000E+00 0.  1.
         21   -1    0    0  502  503 -0.00000000000E+00 -0.00000000000E+00 -0.73134098826E+03  0.73134098826E+03  0.00000000000E+00 0.  1.
         -6    2    1    2    0  503  0.27308409866E+02  0.88988523253E+02 -0.63046665497E+03  0.66007355952E+03  0.17188424718E+03 0.  0.
        -24    2    3    3    0    0 -0.17955125210E+02  0.61216722194E+02 -0.57339238130E+03  0.58197347465E+03  0.76448863073E+02 0.  0.
          6    2    1    2  501    0 -0.27308409866E+02 -0.88988523253E+02  0.27869795261E+02  0.20001155729E+03  0.17482331378E+03 0.  0.
         24    2    5    5    0    0 -0.60496888698E+02  0.85769240054E+00  0.10252480935E+02  0.10251141699E+03  0.82114968610E+02 0.  0.
          5    1    5    5  501    0  0.33188478832E+02 -0.89846215654E+02  0.17617314326E+02  0.97500140300E+02  0.47000000000E+01 0. -1.
        -13    1    6    6    0    0 -0.34523620292E+02 -0.18706315971E+02 -0.30968643533E+02  0.50008634230E+02  0.00000000000E+00 0.  1.
         14    1    6    6    0    0 -0.25973268406E+02  0.19564008371E+02  0.41221124468E+02  0.52502782761E+02  0.00000000000E+00 0. -1.
         -5    1    3    3    0  503  0.45263535076E+02  0.27771801060E+02 -0.57074273669E+02  0.78100084869E+02  0.47000000000E+01 0.  1.
         11    1    4    4    0    0 -0.31818502747E+02  0.54616753110E+02 -0.23864502590E+03  0.24687416880E+03  0.00000000000E+00 0. -1.
        -12    1    4    4    0    0  0.13863377537E+02  0.65999690836E+01 -0.33474735540E+03  0.33509930585E+03  0.00000000000E+00 0.  1.
</event>
<event>
12    1  0.8358445E-002  0.2541620E+03  0.7818608E-02  0.1111434E+00
         21   -1    0    0  501  502  0.00000000000E+00  0.00000000000E+00  0.92971471941E+03  0.92971471941E+03  0.00000000000E+00 0.  1.
         21   -1    0    0  502  503 -0.00000000000E+00 -0.00000000000E+00 -0.16382230950E+03  0.16382230950E+03  0.00000000000E+00 0. -1.
         -6    2    1    2    0  503 -0.72857723179E+02 -0.17183867182E+03 -0.36244081251E+02  0.25209704274E+03  0.16553703083E+03 0.  0.
        -24    2    3    3    0    0  0.11271749501E+02 -0.55885317289E+02 -0.43934532949E+02  0.10855547508E+03  0.81263933937E+02 0.  0.
          6    2    1    2  501    0  0.72857723179E+02  0.17183867182E+03  0.80213649116E+03  0.84143998616E+03  0.17251528309E+03 0.  0.
         24    2    5    5    0    0  0.10671868163E+03  0.12581494182E+03  0.47321013716E+03  0.50755469959E+03  0.80409343816E+02 0.  0.
          5    1    5    5  501    0 -0.33860958451E+02  0.46023729994E+02  0.32892635401E+03  0.33388528657E+03  0.47000000000E+01 0. -1.
        -11    1    6    6    0    0  0.61244976818E+02  0.20655534382E+02  0.22646205332E+03  0.23550511647E+03  0.00000000000E+00 0.  1.
         12    1    6    6    0    0  0.45473704812E+02  0.10515940744E+03  0.24674808383E+03  0.27204958312E+03  0.00000000000E+00 0. -1.
         -5    1    3    3    0  503 -0.84129472681E+02 -0.11595335453E+03  0.76904516980E+01  0.14354156766E+03  0.47000000000E+01 0.  1.
         13    1    4    4    0    0  0.45347411829E+02 -0.43767903556E+02 -0.25840699005E+02  0.68115775458E+02  0.00000000000E+00 0. -1.
        -14    1    4    4    0    0 -0.34075662327E+02 -0.12117413733E+02 -0.18093833944E+02  0.40439699621E+02  0.00000000000E+00 0.  1.
</event>
<event>
12    1  0.8358445E-002  0.2120981E+03  0.7818608E-02  0.1140198E+00
         21   -1    0    0  501  502  0.00000000000E+00  0.00000000000E+00  0.71858966730E+02  0.71858966730E+02  0.00000000000E+00 0. -1.
         21   -1    0    0  502  503 -0.00000000000E+00 -0.00000000000E+00 -0.65320608691E+03  0.65320608691E+03  0.00000000000E+00 0. -1.
         -6    2    1    2    0  503  0.10869912897E+03 -0.56449438655E+02 -0.21209433720E+03  0.29994936591E+03  0.17315765786E+03 0.  0.
        -24    2    3    3    0    0  0.93758839730E+02 -0.10497096587E+03 -0.16109485954E+03  0.22783426647E+03  0.78404563019E+02 0.  0.
          6    2    1    2  501    0 -0.10869912897E+03  0.56449438655E+02 -0.36925278298E+03  0.42511568773E+03  0.17138754462E+03 0.  0.
         24    2    5    5    0    0 -0.96318254099E+02  0.56928340649E+02 -0.38245396843E+03  0.40641069622E+03  0.79878495194E+02 0.  0.
          5    1    5    5  501    0 -0.12380874869E+02 -0.47890199472E+00  0.13201185455E+02  0.18704991501E+02  0.47000000000E+01 0. -1.
        -11    1    6    6    0    0 -0.14099379917E+02 -0.20070480822E+02 -0.79220223127E+02  0.82930455604E+02  0.00000000000E+00 0.  1.
         12    1    6    6    0    0 -0.82218874183E+02  0.76998821472E+02 -0.30323374531E+03  0.32348024062E+03  0.00000000000E+00 0. -1.
         -5    1    3    3    0  503  0.14940289238E+02  0.48521527220E+02 -0.50999477661E+02  0.72115099445E+02  0.47000000000E+01 0.  1.
         11    1    4    4    0    0  0.88319322560E+02 -0.11356331136E+03 -0.16308599455E+03  0.21747176838E+03  0.00000000000E+00 0. -1.
        -12    1    4    4    0    0  0.54395171706E+01  0.85923454829E+01  0.19911350117E+01  0.10362498086E+02  0.00000000000E+00 0.  1.
</event>
<event>
12    1  0.8358445E-002  0.1907812E+03  0.7818608E-02  0.1158944E+00
         21   -1    0    0  503  502  0.00000000000E+00  0.00000000000E+00  0.13919502346E+04  0.13919502346E+04  0.00000000000E+00 0.  1.
         21   -1    0    0  501  503 -0.00000000000E+00 -0.00000000000E+00 -0.85487374117E+02  0.85487374117E+02  0.00000000000E+00 0.  1.
          6    2    1    2  501    0 -0.23845825648E+02  0.64720505151E+02  0.36816779117E+02  0.19430116127E+03  0.17787663944E+03 0.  0.
         24    2    3    3    0    0 -0.80944697776E+02  0.14053723676E+02  0.21343744867E+02  0.11626970138E+03  0.79457767193E+02 0.  0.
         -6    2    1    2    0  502  0.23845825648E+02 -0.64720505151E+02  0.12696460814E+04  0.12831364475E+04  0.17228059569E+03 0.  0.
        -24    2    5    5    0    0  0.34088604728E+01 -0.10965614930E+03  0.98316005351E+03  0.99239048304E+03  0.78734291188E+02 0.  0.
          5    1    3    3  501    0  0.57098872127E+02  0.50666781475E+02  0.15473034249E+02  0.78031459887E+02  0.47000000000E+01 0. -1.
        -11    1    4    4    0    0 -0.29662180858E+02  0.36038126502E+02 -0.15758533465E+02  0.49263809354E+02  0.00000000000E+00 0.  1.
         12    1    4    4    0    0 -0.51282516917E+02 -0.21984402826E+02  0.37102278333E+02  0.67005892028E+02  0.00000000000E+00 0. -1.
         -5    1    5    5    0  502  0.20436965175E+02  0.44935644147E+02  0.28648602789E+03  0.29074596444E+03  0.47000000000E+01 0.  1.
         11    1    6    6    0    0 -0.12366832425E+02 -0.33728261927E+02  0.10835562407E+03  0.11415548811E+03  0.00000000000E+00 0. -1.
        -12    1    6    6    0    0  0.15775692898E+02 -0.75927887371E+02  0.87480442944E+03  0.87823499494E+03  0.00000000000E+00 0.  1.
</event>
<event>
12    1  0.8358445E-002  0.2247962E+03  0.7818608E-02  0.1130542E+00
         21   -1    0    0  501  502  0.00000000000E+00  0.00000000000E+00  0.91189831736E+03  0.91189831736E+03  0.00000000000E+00 0.  1.
         21   -1    0    0  502  503 -0.00000000000E+00 -0.00000000000E+00 -0.61850511752E+02  0.61850511752E+02  0.00000000000E+00 0.  1.
         -6    2    1    2    0  503 -0.96137248819E+02 -0.10605298601E+03  0.26408858246E+03  0.34614901442E+03  0.17200800663E+03 0.  0.
        -24    2    3    3    0    0 -0.20732642779E+02 -0.12003974705E+03  0.19533127872E+03  0.24304159027E+03  0.77945640071E+02 0.  0.
          6    2    1    2  501    0  0.96137248819E+02  0.10605298601E+03  0.58595922315E+03  0.62759981469E+03  0.17333121404E+03 0.  0.
         24    2    5    5    0    0  0.13319671437E+03  0.75762489332E+02  0.50359861118E+03  0.53222540209E+03  0.78555699605E+02 0.  0.
          5    1    5    5  501    0 -0.37059465548E+02  0.30290496674E+02  0.82360611969E+02  0.95374412603E+02  0.47000000000E+01 0. -1.
        -11    1    6    6    0    0  0.19523965656E+02  0.52711238601E+02  0.16532083763E+03  0.17461569020E+03  0.00000000000E+00 0.  1.
         12    1    6    6    0    0  0.11367274871E+03  0.23051250731E+02  0.33827777355E+03  0.35760971189E+03  0.00000000000E+00 0. -1.
         -5    1    3    3    0  503 -0.75404606040E+02  0.13986761046E+02  0.68757303736E+02  0.10310742414E+03  0.47000000000E+01 0.  1.
         13    1    4    4    0    0 -0.24047559789E+02 -0.51643221733E+01  0.63799011721E+02  0.68375940592E+02  0.00000000000E+00 0. -1.
        -14    1    4    4    0    0  0.33149170091E+01 -0.11487542488E+03  0.13153226700E+03  0.17466564968E+03  0.00000000000E+00 0.  1.
</event>
<event>
12    1  0.8358445E-002  0.2902726E+03  0.7818608E-02  0.1090219E+00
         21   -1    0    0  503  502  0.00000000000E+00  0.00000000000E+00  0.21637017545E+03  0.21637017545E+03  0.00000000000E+00 0. -1.
         21   -1    0    0  501  503 -0.00000000000E+00 -0.00000000000E+00 -0.39036807867E+03  0.39036807867E+03  0.00000000000E+00 0.  1.
          6    2    1    2  501    0  0.17745246651E+03 -0.15261264318E+03 -0.10288192068E+03  0.30788103125E+03  0.17154020833E+03 0.  0.
         24    2    3    3    0    0  0.18489944220E+03 -0.88953581314E+02 -0.52191170056E+02  0.22603009477E+03  0.79152650977E+02 0.  0.
         -6    2    1    2    0  502 -0.17745246651E+03  0.15261264318E+03 -0.71115982547E+02  0.29885722287E+03  0.17169204978E+03 0.  0.
        -24    2    5    5    0    0 -0.13016523948E+03  0.17556154651E+03 -0.73688343343E+02  0.24602313307E+03  0.85630391103E+02 0.  0.
          5    1    3    3  501    0 -0.74469756863E+01 -0.63659061861E+02 -0.50690750623E+02  0.81850936480E+02  0.47000000000E+01 0. -1.
        -11    1    4    4    0    0  0.14443424908E+03 -0.67660575643E+02 -0.39269421836E+01  0.15954506160E+03  0.00000000000E+00 0.  1.
         12    1    4    4    0    0  0.40465193117E+02 -0.21293005671E+02 -0.48264227872E+02  0.66485033177E+02  0.00000000000E+00 0. -1.
         -5    1    5    5    0  502 -0.47287227032E+02 -0.22948903332E+02  0.25723607965E+01  0.52834089797E+02  0.47000000000E+01 0.  1.
         13    1    6    6    0    0 -0.31066496377E+02  0.11303175907E+03 -0.43349079577E+02  0.12498179250E+03  0.00000000000E+00 0. -1.
        -14    1    6    6    0    0 -0.99098743105E+02  0.62529787434E+02 -0.30339263766E+02  0.12104134057E+03  0.00000000000E+00 0.  1.
</event>
<event>
12    1  0.8358445E-002  0.1755995E+03  0.7818608E-02  0.1172229E+00
         21   -1    0    0  503  502  0.00000000000E+00  0.00000000000E+00  0.23354422946E+03  0.23354422946E+03  0.00000000000E+00 0. -1.
         21   -1    0    0  501  503 -0.00000000000E+00 -0.00000000000E+00 -0.27011166565E+03  0.27011166565E+03  0.00000000000E+00 0. -1.
          6    2    1    2  501    0  0.30167950507E+02 -0.23183487995E+02 -0.19853778237E+03  0.26505175381E+03  0.17142812434E+03 0.  0.
         24    2    3    3    0    0 -0.32410707762E+02 -0.52661778828E+02 -0.14482502524E+03  0.17734651805E+03  0.81570721471E+02 0.  0.
         -6    2    1    2    0  502 -0.30167950507E+02  0.23183487995E+02  0.16197034617E+03  0.23860414130E+03  0.17102620809E+03 0.  0.
        -24    2    5    5    0    0 -0.39364448243E+02  0.42590507679E+02  0.18320010884E+03  0.20804271453E+03  0.79724400653E+02 0.  0.
          5    1    3    3  501    0  0.62578658269E+02  0.29478290833E+02 -0.53712757123E+02  0.87705235755E+02  0.47000000000E+01 0. -1.
        -13    1    4    4    0    0 -0.32326525826E+01 -0.65352819984E+02 -0.68876782720E+02  0.95002380604E+02  0.00000000000E+00 0.  1.
         14    1    4    4    0    0 -0.29178055179E+02  0.12691041156E+02 -0.75948242522E+02  0.82344137446E+02  0.00000000000E+00 0. -1.
         -5    1    5    5    0  502  0.91964977364E+01 -0.19407019684E+02 -0.21229762664E+02  0.30561426773E+02  0.47000000000E+01 0.  1.
         11    1    6    6    0    0  0.76099816122E+01  0.12298632784E+00  0.11395121411E+03  0.11420510559E+03  0.00000000000E+00 0. -1.
        -12    1    6    6    0    0 -0.46974429856E+02  0.42467521351E+02  0.69248894730E+02  0.93837608938E+02  0.00000000000E+00 0.  1.
</event>
<event>
12    1  0.8358445E-002  0.2449663E+03  0.7818608E-02  0.1118003E+00
         21   -1    0    0  503  502  0.00000000000E+00  0.00000000000E+00  0.20884285616E+04  0.20884285616E+04  0.00000000000E+00 0. -1.
         21   -1    0    0  501  503 -0.00000000000E+00 -0.00000000000E+00 -0.15038235915E+03  0.15038235915E+03  0.00000000000E+00 0.  1.
          6    2    1    2  501    0 -0.61458108451E+02 -0.16244378017E+03 -0.45329567077E+02  0.24036454587E+03  0.15986014028E+03 0.  0.
         24    2    3    3    0    0  0.21714743268E+02 -0.51427481721E+02 -0.18793618645E+02  0.99054290248E+02  0.79638158965E+02 0.  0.
         -6    2    1    2    0  502  0.61458108451E+02  0.16244378017E+03  0.19833757695E+04  0.19984463749E+04  0.17275239312E+03 0.  0.
        -24    2    5    5    0    0  0.57266966607E+02  0.13539780096E+03  0.94373188516E+03  0.95843168895E+03  0.79682879858E+02 0.  0.
          5    1    3    3  501    0 -0.83172851720E+02 -0.11101629845E+03 -0.26535948432E+02  0.14131025562E+03  0.47000000000E+01 0. -1.
        -13    1    4    4    0    0  0.12344498983E+02 -0.10953768786E+02 -0.46350793459E+02  0.49201298358E+02  0.00000000000E+00 0.  1.
         14    1    4    4    0    0  0.93702442853E+01 -0.40473712935E+02  0.27557174814E+02  0.49852991891E+02  0.00000000000E+00 0. -1.
         -5    1    5    5    0  502  0.41911418441E+01  0.27045979215E+02  0.10396438844E+04  0.10400146859E+04  0.47000000000E+01 0.  1.
         13    1    6    6    0    0  0.51468980226E+02  0.10445214628E+03  0.87640601571E+03  0.88410791828E+03  0.00000000000E+00 0. -1.
        -14    1    6    6    0    0  0.57979863811E+01  0.30945654674E+02  0.67325869445E+02  0.74323770664E+02  0.00000000000E+00 0.  1.
</event>
<event>
12    1  0.8358445E-002  0.1796260E+03  0.7818608E-02  0.1168882E+00
         21   -1    0    0  501  502  0.00000000000E+00  0.00000000000E+00  0.47709613739E+03  0.47709613739E+03  0.00000000000E+00 0.  1.
         21   -1    0    0  502  503 -0.00000000000E+00 -0.00000000000E+00 -0.14910484303E+03  0.14910484303E+03  0.00000000000E+00 0.  1.
         -6    2    1    2    0  503 -0.31822786512E+02  0.31912183578E+02 -0.68400954089E+02  0.19220871156E+03  0.17388047929E+03 0.  0.
        -24    2    3    3    0    0 -0.22272505919E+02  0.55156192830E+02 -0.10682165751E+03  0.14605968907E+03  0.79901790529E+02 0.  0.
          6    2    1    2  501    0  0.31822786512E+02 -0.31912183578E+02  0.39639224845E+03  0.43399226886E+03  0.17085490216E+03 0.  0.
         24    2    5    5    0    0  0.50108007719E+01 -0.25109890694E+02  0.39714853152E+03  0.40592421349E+03  0.79949335672E+02 0.  0.
          5    1    5    5  501    0  0.26811985741E+02 -0.68022928838E+01 -0.75628307014E+00  0.28068055364E+02  0.47000000000E+01 0. -1.
        -11    1    6    6    0    0 -0.36055987703E+02 -0.56041197143E+01  0.13409883976E+03  0.13897459923E+03  0.00000000000E+00 0.  1.
         12    1    6    6    0    0  0.41066788475E+02 -0.19505770980E+02  0.26304969177E+03  0.26694961427E+03  0.00000000000E+00 0. -1.
         -5    1    3    3    0  503 -0.95502805931E+01 -0.23244009252E+02  0.38420703425E+02  0.46149022494E+02  0.47000000000E+01 0.  1.
         11    1    4    4    0    0  0.38036912340E+01  0.69034011092E+02 -0.83600506926E+02  0.10848597842E+03  0.00000000000E+00 0. -1.
        -12    1    4    4    0    0 -0.26076197153E+02 -0.13877818263E+02 -0.23221150588E+02  0.37573710655E+02  0.00000000000E+00 0.  1.
</event>
<event>
12    1  0.8358445E-002  0.2049582E+03  0.7818608E-02  0.1145912E+00
         21   -1    0    0  501  502  0.00000000000E+00  0.00000000000E+00  0.70027199106E+03  0.70027199106E+03  0.00000000000E+00 0.  1.
         21   -1    0    0  502  503 -0.00000000000E+00 -0.00000000000E+00 -0.68295589800E+02  0.68295589800E+02  0.00000000000E+00 0.  1.
         -6    2    1    2    0  503  0.45417507559E+02  0.98146284209E+02  0.45426300263E+03  0.49836003495E+03  0.17410458288E+03 0.  0.
        -24    2    3    3    0    0  0.73976898540E+02  0.10120184735E+03  0.44345235151E+03  0.46731272497E+03  0.77568031039E+02 0.  0.
          6    2    1    2  501    0 -0.45417507559E+02 -0.98146284209E+02  0.17771339862E+03  0.27020754590E+03  0.17243730083E+03 0.  0.
         24    2    5    5    0    0 -0.48705240238E+02 -0.13538890594E+03  0.12946417773E+03  0.20898745626E+03  0.78818952533E+02 0.  0.
          5    1    5    5  501    0  0.32877326791E+01  0.37242621732E+02  0.48249220894E+02  0.61220089648E+02  0.47000000000E+01 0. -1.
        -13    1    6    6    0    0 -0.44183756638E+02 -0.86627347903E+02  0.36415901137E+02  0.10383939335E+03  0.00000000000E+00 0.  1.
         14    1    6    6    0    0 -0.45214835994E+01 -0.48761558039E+02  0.93048276594E+02  0.10514806291E+03  0.00000000000E+00 0. -1.
         -5    1    3    3    0  503 -0.28559390981E+02 -0.30555631401E+01  0.10810651127E+02  0.31047309982E+02  0.47000000000E+01 0.  1.
         11    1    4    4    0    0  0.57095467470E+02  0.14632334364E+02  0.16383559470E+03  0.17411519091E+03  0.00000000000E+00 0. -1.
        -12    1    4    4    0    0  0.16881431070E+02  0.86569512986E+02  0.27961675681E+03  0.29319753407E+03  0.00000000000E+00 0.  1.
</event>
<event>
12    1  0.8358445E-002  0.1762093E+03  0.7818608E-02  0.1172233E+00
         21   -1    0    0  503  502  0.00000000000E+00  0.00000000000E+00  0.22943698901E+04  0.22943698901E+04  0.00000000000E+00 0.  1.
         21   -1    0    0  501  503 -0.00000000000E+00 -0.00000000000E+00 -0.16095497380E+02  0.16095497380E+02  0.00000000000E+00 0.  1.
          6    2    1    2  501    0  0.23791835535E+02 -0.27595228963E+02  0.65150291478E+03  0.67417838472E+03  0.16950781207E+03 0.  0.
         24    2    3    3    0    0 -0.35914681830E+02 -0.54369109523E+02  0.46524745875E+03  0.47670713669E+03  0.80923617429E+02 0.  0.
         -6    2    1    2    0  502 -0.23791835535E+02  0.27595228963E+02  0.16267714779E+04  0.16362870028E+04  0.17240117712E+03 0.  0.
        -24    2    5    5    0    0 -0.30165520355E+02  0.78521697874E+02  0.86249618052E+03  0.87027593930E+03  0.80030828218E+02 0.  0.
          5    1    3    3  501    0  0.59706517365E+02  0.26773880560E+02  0.18625545604E+03  0.19747124803E+03  0.47000000000E+01 0. -1.
        -11    1    4    4    0    0  0.10468212956E+02 -0.86505414607E+01  0.10100923694E+02  0.16924656851E+02  0.00000000000E+00 0.  1.
         12    1    4    4    0    0 -0.46382894786E+02 -0.45718568062E+02  0.45514653505E+03  0.45978247984E+03  0.00000000000E+00 0. -1.
         -5    1    5    5    0  502  0.63736848192E+01 -0.50926468911E+02  0.76427529742E+03  0.76601106346E+03  0.47000000000E+01 0.  1.
         11    1    6    6    0    0  0.26461003008E+02  0.29969933590E+02  0.23707809590E+03  0.24042546695E+03  0.00000000000E+00 0. -1.
        -12    1    6    6    0    0 -0.56626523362E+02  0.48551764284E+02  0.62541808461E+03  0.62985047235E+03  0.00000000000E+00 0.  1.
</event>
<event>
12    1  0.8358445E-002  0.2063492E+03  0.7818608E-02  0.1144896E+00
         21   -1    0    0  501  502  0.00000000000E+00  0.00000000000E+00  0.27100832873E+03  0.27100832873E+03  0.00000000000E+00 0. -1.
         21   -1    0    0  502  503 -0.00000000000E+00 -0.00000000000E+00 -0.15561054675E+03  0.15561054675E+03  0.00000000000E+00 0.  1.
         -6    2    1    2    0  503  0.11427770087E+03  0.15344147091E+02  0.55752740673E+02  0.21182242222E+03  0.16871732187E+03 0.  0.
        -24    2    3    3    0    0  0.32831511567E+02 -0.47300236298E+02  0.44749355602E+02  0.10837695347E+03  0.80173803150E+02 0.  0.
          6    2    1    2  501    0 -0.11427770087E+03 -0.15344147091E+02  0.59645041308E+02  0.21479645325E+03  0.17112904373E+03 0.  0.
         24    2    5    5    0    0 -0.35595333819E+01  0.31718316254E+02  0.22897195638E+02  0.88916024947E+02  0.79768766195E+02 0.  0.
          5    1    5    5  501    0 -0.11071816749E+03 -0.47062463345E+02  0.36747845670E+02  0.12588042830E+03  0.47000000000E+01 0. -1.
        -13    1    6    6    0    0 -0.34921730642E+02  0.72588826264E+01 -0.10282597451E+02  0.37120755088E+02  0.00000000000E+00 0.  1.
         14    1    6    6    0    0  0.31362197260E+02  0.24459433627E+02  0.33179793088E+02  0.51795269858E+02  0.00000000000E+00 0. -1.
         -5    1    3    3    0  503  0.81446189305E+02  0.62644383389E+02  0.11003385071E+02  0.10344546875E+03  0.47000000000E+01 0.  1.
         11    1    4    4    0    0  0.41302202529E+02 -0.39081852252E+02  0.64115718788E+02  0.85697657523E+02  0.00000000000E+00 0. -1.
        -12    1    4    4    0    0 -0.84706909620E+01 -0.82183840459E+01 -0.19366363186E+02  0.22679295949E+02  0.00000000000E+00 0.  1.
</event>
<event>
12    1  0.8358445E-002  0.3309880E+03  0.7818608E-02  0.1071268E+00
         21   -1    0    0  501  502  0.00000000000E+00  0.00000000000E+00  0.11093739747E+03  0.11093739747E+03  0.00000000000E+00 0. -1.
         21   -1    0    0  502  503 -0.00000000000E+00 -0.00000000000E+00 -0.10338576584E+04  0.10338576584E+04  0.00000000000E+00 0. -1.
         -6    2    1    2    0  503 -0.97708686129E+02 -0.26488356160E+03 -0.59769703378E+03  0.68076577155E+03  0.16275749744E+03 0.  0.
        -24    2    3    3    0    0  0.59970141778E+01 -0.14821936392E+03 -0.33486099231E+03  0.37503667252E+03  0.80719746939E+02 0.  0.
          6    2    1    2  501    0  0.97708686129E+02  0.26488356160E+03 -0.32522322712E+03  0.46402928429E+03  0.17275051568E+03 0.  0.
         24    2    5    5    0    0  0.69144069218E+02  0.19697901544E+03 -0.31948987660E+03  0.38998925432E+03  0.80225945982E+02 0.  0.
          5    1    5    5  501    0  0.28564616911E+02  0.67904546164E+02 -0.57333505221E+01  0.74040029965E+02  0.47000000000E+01 0. -1.
        -11    1    6    6    0    0  0.51350180067E+02  0.38526317850E+02 -0.90950150120E+02  0.11132406733E+03  0.00000000000E+00 0.  1.
         12    1    6    6    0    0  0.17793889151E+02  0.15845269759E+03 -0.22853972648E+03  0.27866518699E+03  0.00000000000E+00 0. -1.
         -5    1    3    3    0  503 -0.10370570031E+03 -0.11666419768E+03 -0.26283604147E+03  0.30572909903E+03  0.47000000000E+01 0.  1.
         11    1    4    4    0    0 -0.30204391010E+02 -0.34213412754E+02 -0.13040929672E+03  0.13816456681E+03  0.00000000000E+00 0. -1.
        -12    1    4    4    0    0  0.36201405187E+02 -0.11400595116E+03 -0.20445169559E+03  0.23687210572E+03  0.00000000000E+00 0.  1.
</event>
<event>
12    1  0.8358445E-002  0.1936569E+03  0.7818608E-02  0.1155229E+00
         21   -1    0    0  503  502  0.00000000000E+00  0.00000000000E+00  0.59846683382E+02  0.59846683382E+02  0.00000000000E+00 0.  1.
         21   -1    0    0  501  503 -0.00000000000E+00 -0.00000000000E+00 -0.99925688386E+03  0.99925688386E+03  0.00000000000E+00 0.  1.
          6    2    1    2  501    0 -0.88435588873E+02  0.18678380412E+01 -0.14608925078E+03  0.24248790893E+03  0.17214521367E+03 0.  0.
         24    2    3    3    0    0 -0.31215593469E+02 -0.63698316258E+02 -0.66189919414E+02  0.12425491178E+03  0.77629175571E+02 0.  0.
         -6    2    1    2    0  502  0.88435588873E+02 -0.18678380412E+01 -0.79332094970E+03  0.81661565831E+03  0.17227496034E+03 0.  0.
        -24    2    5    5    0    0  0.33737654952E+02  0.53165549918E+02 -0.25198175654E+03  0.26972375873E+03  0.72741290460E+02 0.  0.
          5    1    3    3  501    0 -0.57219995403E+02  0.65566154299E+02 -0.79899331365E+02  0.11823299715E+03  0.47000000000E+01 0. -1.
        -11    1    4    4    0    0 -0.44733370650E+02 -0.84408861753E+01 -0.43640041953E+02  0.63061686235E+02  0.00000000000E+00 0.  1.
         12    1    4    4    0    0  0.13517777180E+02 -0.55257430082E+02 -0.22549877461E+02  0.61193225546E+02  0.00000000000E+00 0. -1.
         -5    1    5    5    0  502  0.54697933921E+02 -0.55033387959E+02 -0.54133919317E+03  0.54689189958E+03  0.47000000000E+01 0.  1.
         11    1    6    6    0    0  0.34742413093E+02  0.62056481204E+02 -0.25081162548E+03  0.26070004526E+03  0.00000000000E+00 0. -1.
        -12    1    6    6    0    0 -0.10047581407E+01 -0.88909312856E+01 -0.11701310598E+01  0.90237134675E+01  0.00000000000E+00 0.  1.
</event>
<event>
12    1  0.8358445E-002  0.2197746E+03  0.7818608E-02  0.1134246E+00
         21   -1    0    0  501  502  0.00000000000E+00  0.00000000000E+00  0.56622159030E+02  0.56622159030E+02  0.00000000000E+00 0.  1.
         21   -1    0    0  502  503 -0.00000000000E+00 -0.00000000000E+00 -0.13367792102E+04  0.13367792102E+04  0.00000000000E+00 0.  1.
         -6    2    1    2    0  503 -0.99546025033E+02  0.90894160112E+02 -0.10599621937E+04  0.10822958734E+04  0.17225953149E+03 0.  0.
        -24    2    3    3    0    0  0.47610168892E+01  0.96272430274E+02 -0.41932945354E+03  0.43318780653E+03  0.50233823350E+02 0.  0.
          6    2    1    2  501    0  0.99546025033E+02 -0.90894160112E+02 -0.22019485748E+03  0.31110549578E+03  0.17357907363E+03 0.  0.
         24    2    5    5    0    0 -0.33465223350E+01 -0.22391301416E+02 -0.38069208845E+02  0.90943374054E+02  0.79428351559E+02 0.  0.
          5    1    5    5  501    0  0.10289254737E+03 -0.68502858696E+02 -0.18212564863E+03  0.22016212173E+03  0.47000000000E+01 0. -1.
        -11    1    6    6    0    0  0.29399009064E+02 -0.36557279992E+02 -0.21342642045E+02  0.51538770103E+02  0.00000000000E+00 0.  1.
         12    1    6    6    0    0 -0.32745531399E+02  0.14165978576E+02 -0.16726566801E+02  0.39404603951E+02  0.00000000000E+00 0. -1.
         -5    1    3    3    0  503 -0.10430704192E+03 -0.53782701620E+01 -0.64063274014E+03  0.64910806690E+03  0.47000000000E+01 0.  1.
         11    1    4    4    0    0  0.19435321442E+02  0.44843458054E+02 -0.12847569527E+03  0.13745789073E+03  0.00000000000E+00 0. -1.
        -12    1    4    4    0    0 -0.14674304553E+02  0.51428972220E+02 -0.29085375827E+03  0.29572991580E+03  0.00000000000E+00 0.  1.
</event>
<event>
12    1  0.8358445E-002  0.2293509E+03  0.7818608E-02  0.1127427E+00
         21   -1    0    0  503  502  0.00000000000E+00  0.00000000000E+00  0.26744824819E+03  0.26744824819E+03  0.00000000000E+00 0. -1.
         21   -1    0    0  501  503 -0.00000000000E+00 -0.00000000000E+00 -0.22922319948E+03  0.22922319948E+03  0.00000000000E+00 0. -1.
          6    2    1    2  501    0 -0.14253088689E+03 -0.53481506153E+02  0.11487267494E+03  0.25485188444E+03  0.16905154934E+03 0.  0.
         24    2    3    3    0    0 -0.17113707347E+03 -0.31537028858E+02  0.97692081577E+02  0.21463824518E+03  0.79014880791E+02 0.  0.
         -6    2    1    2    0  502  0.14253088689E+03  0.53481506153E+02 -0.76647626232E+02  0.24181956323E+03  0.17154159068E+03 0.  0.
        -24    2    5    5    0    0  0.16519130976E+03  0.70847681363E+02 -0.51222478413E+02  0.20330194456E+03  0.80002347421E+02 0.  0.
          5    1    3    3  501    0  0.28606186576E+02 -0.21944477295E+02  0.17180593365E+02  0.40213639260E+02  0.47000000000E+01 0. -1.
        -13    1    4    4    0    0  0.20711768750E+01  0.37966843487E+01 -0.76989028872E+01  0.88304977978E+01  0.00000000000E+00 0.  1.
         14    1    4    4    0    0 -0.17320825034E+03 -0.35333713207E+02  0.10539098446E+03  0.20580774738E+03  0.00000000000E+00 0. -1.
         -5    1    5    5    0  502 -0.22660422870E+02 -0.17366175210E+02 -0.25425147820E+02  0.38517618666E+02  0.47000000000E+01 0.  1.
         11    1    6    6    0    0  0.96705456305E+02  0.81998778670E+02 -0.40428191077E+02  0.13307961383E+03  0.00000000000E+00 0. -1.
        -12    1    6    6    0    0  0.68485853457E+02 -0.11151097307E+02 -0.10794287335E+02  0.70222330736E+02  0.00000000000E+00 0.  1.
</event>
<event>
12    1  0.8358445E-002  0.2087771E+03  0.7818608E-02  0.1142826E+00
         21   -1    0    0  503  502  0.00000000000E+00  0.00000000000E+00  0.96569561791E+03  0.96569561791E+03  0.00000000000E+00 0.  1.
         21   -1    0    0  501  503 -0.00000000000E+00 -0.00000000000E+00 -0.51737554858E+02  0.51737554858E+02  0.00000000000E+00 0.  1.
          6    2    1    2  501    0  0.11523768069E+03 -0.22429396244E+02  0.26968064419E+03  0.34017306503E+03  0.17090132667E+03 0.  0.
         24    2    3    3    0    0  0.57298417981E+02  0.10677165962E+02  0.49739153104E+02  0.11028319547E+03  0.79317647950E+02 0.  0.
         -6    2    1    2    0  502 -0.11523768069E+03  0.22429396244E+02  0.64427741886E+03  0.67726010774E+03  0.17264142089E+03 0.  0.
        -24    2    5    5    0    0  0.46633118852E+01  0.26642047060E+02  0.19853136898E+03  0.21562645923E+03  0.79677602260E+02 0.  0.
          5    1    3    3  501    0  0.57939262707E+02 -0.33106562206E+02  0.21994149108E+03  0.22988986956E+03  0.47000000000E+01 0. -1.
        -11    1    4    4    0    0  0.27473861620E+02  0.15898170968E+00  0.68296540054E+02  0.73615594346E+02  0.00000000000E+00 0.  1.
         12    1    4    4    0    0  0.29824556361E+02  0.10518184252E+02 -0.18557386950E+02  0.36667601128E+02  0.00000000000E+00 0. -1.
         -5    1    5    5    0  502 -0.11990099257E+03 -0.42126508160E+01  0.44574604988E+03  0.46163364850E+03  0.47000000000E+01 0.  1.
         13    1    6    6    0    0  0.60526448768E+01 -0.25543996576E+02  0.33653089095E+02  0.42680917009E+02  0.00000000000E+00 0. -1.
        -14    1    6    6    0    0 -0.13893329916E+01  0.52186043636E+02  0.16487827989E+03  0.17294554222E+03  0.00000000000E+00 0.  1.
</event>
<event>
12    1  0.8358445E-002  0.1733114E+03  0.7818608E-02  0.1174461E+00
         21   -1    0    0  501  502  0.00000000000E+00  0.00000000000E+00  0.50593056377E+03  0.50593056377E+03  0.00000000000E+00 0.  1.
         21   -1    0    0  502  503 -0.00000000000E+00 -0.00000000000E+00 -0.10206350770E+03  0.10206350770E+03  0.00000000000E+00 0.  1.
         -6    2    1    2    0  503  0.22545437620E+02 -0.24803115524E+01  0.52777723933E+01  0.17339175969E+03  0.17182083327E+03 0.  0.
        -24    2    3    3    0    0 -0.11188321564E+02 -0.48607935010E+02 -0.38500185950E+02  0.10125076031E+03  0.79256181213E+02 0.  0.
          6    2    1    2  501    0 -0.22545437620E+02  0.24803115524E+01  0.39858928368E+03  0.43460231178E+03  0.17173032242E+03 0.  0.
         24    2    5    5    0    0  0.25270679582E+02 -0.31639387470E+02  0.12309168081E+03  0.15287273556E+03  0.81110130745E+02 0.  0.
          5    1    5    5  501    0 -0.47816117202E+02  0.34119699022E+02  0.27549760287E+03  0.28172957622E+03  0.47000000000E+01 0. -1.
        -13    1    6    6    0    0  0.22659715842E+02 -0.44574057158E+01  0.12342163149E+03  0.12556365042E+03  0.00000000000E+00 0.  1.
         14    1    6    6    0    0  0.26109637396E+01 -0.27181981754E+02 -0.32995068648E+00  0.27309085140E+02  0.00000000000E+00 0. -1.
         -5    1    3    3    0  503  0.33733759184E+02  0.46127623458E+02  0.43777958343E+02  0.72140999378E+02  0.47000000000E+01 0.  1.
         13    1    4    4    0    0 -0.27693137255E+00 -0.20395944314E+02  0.24191383309E+02  0.31643234061E+02  0.00000000000E+00 0. -1.
        -14    1    4    4    0    0 -0.10911390191E+02 -0.28211990696E+02 -0.62691569258E+02  0.69607526253E+02  0.00000000000E+00 0.  1.
</event>
<event>
12    1  0.8358445E-002  0.2211198E+03  0.7818608E-02  0.1133511E+00
         21   -1    0    0  503  502  0.00000000000E+00  0.00000000000E+00  0.81696667090E+03  0.81696667090E+03  0.00000000000E+00 0.  1.
         21   -1    0    0  501  503 -0.00000000000E+00 -0.00000000000E+00 -0.59312771684E+02  0.59312771684E+02  0.00000000000E+00 0. -1.
          6    2    1    2  501    0 -0.12113924418E+03 -0.68664701630E+02  0.35607994670E+03  0.41785212671E+03  0.16857613599E+03 0.  0.
         24    2    3    3    0    0 -0.75937846265E+02 -0.43529001126E+02  0.92641112618E+02  0.14934313410E+03  0.77843853449E+02 0.  0.
         -6    2    1    2    0  502  0.12113924418E+03  0.68664701630E+02  0.40157395251E+03  0.45842731587E+03  0.17176846878E+03 0.  0.
        -24    2    5    5    0    0  0.14276714750E+03  0.56190210440E+02  0.23907338600E+03  0.29395268788E+03  0.75579763606E+02 0.  0.
          5    1    3    3  501    0 -0.45201397916E+02 -0.25135700504E+02  0.26343883408E+03  0.26850899262E+03  0.47000000000E+01 0. -1.
        -11    1    4    4    0    0 -0.74336563995E+02 -0.23351638825E+02  0.10089894110E+03  0.12748262665E+03  0.00000000000E+00 0.  1.
         12    1    4    4    0    0 -0.16012822698E+01 -0.20177362301E+02 -0.82578284857E+01  0.21860507442E+02  0.00000000000E+00 0. -1.
         -5    1    5    5    0  502 -0.21627903324E+02  0.12474491190E+02  0.16250056652E+03  0.16447462799E+03  0.47000000000E+01 0.  1.
         11    1    6    6    0    0 -0.59965485188E+01  0.14551194877E+02  0.14659033680E+02  0.21507745929E+02  0.00000000000E+00 0. -1.
        -12    1    6    6    0    0  0.14876369602E+03  0.41639015563E+02  0.22441435232E+03  0.27244494196E+03  0.00000000000E+00 0.  1.
</event>
<event>
12    1  0.8358445E-002  0.1826168E+03  0.7818608E-02  0.1165412E+00
         21   -1    0    0  503  502  0.00000000000E+00  0.00000000000E+00  0.25788623068E+02  0.25788623068E+02  0.00000000000E+00 0.  1.
         21   -1    0    0  501  503 -0.00000000000E+00 -0.00000000000E+00 -0.14231601180E+04  0.14231601180E+04  0.00000000000E+00 0.  1.
          6    2    1    2  501    0 -0.38176773184E+02  0.47759338133E+02 -0.91971068192E+03  0.93756949205E+03  0.17155288861E+03 0.  0.
         24    2    3    3    0    0  0.33108341931E+01 -0.31507447219E+01 -0.77427017916E+03  0.77791960026E+03  0.75124598692E+02 0.  0.
         -6    2    1    2    0  502  0.38176773184E+02 -0.47759338133E+02 -0.47766081297E+03  0.51137924898E+03  0.17207691202E+03 0.  0.
        -24    2    5    5    0    0  0.51005365351E+02  0.27398688217E+02 -0.32944984321E+03  0.34464028155E+03  0.82990897484E+02 0.  0.
          5    1    3    3  501    0 -0.41487607377E+02  0.50910082855E+02 -0.14544050277E+03  0.15964989179E+03  0.47000000000E+01 0. -1.
        -11    1    4    4    0    0  0.70347196326E+01  0.34175887501E+02 -0.48029856277E+03  0.48156431343E+03  0.00000000000E+00 0.  1.
         12    1    4    4    0    0 -0.37238854395E+01 -0.37326632223E+02 -0.29397161638E+03  0.29635528683E+03  0.00000000000E+00 0. -1.
         -5    1    5    5    0  502 -0.12828592167E+02 -0.75158026351E+02 -0.14821096976E+03  0.16673896742E+03  0.47000000000E+01 0.  1.
         13    1    6    6    0    0 -0.92360319895E+01 -0.80617233176E+01 -0.17120615386E+03  0.17164452450E+03  0.00000000000E+00 0. -1.
        -14    1    6    6    0    0  0.60241397340E+02  0.35460411535E+02 -0.15824368935E+03  0.17299575705E+03  0.00000000000E+00 0.  1.
</event>
<event>
12    1  0.8358445E-002  0.1999054E+03  0.7818608E-02  0.1149988E+00
         21   -1    0    0  503  502  0.00000000000E+00  0.00000000000E+00  0.10579826103E+04  0.10579826103E+04  0.00000000000E+00 0. -1.
         21   -1    0    0  501  503 -0.00000000000E+00 -0.00000000000E+00 -0.11407809561E+03  0.11407809561E+03  0.00000000000E+00 0.  1.
          6    2    1    2  501    0  0.30558946502E+02 -0.95934006382E+02 -0.81256711038E+01  0.19926902798E+03  0.17177000957E+03 0.  0.
         24    2    3    3    0    0  0.17288898164E+01 -0.29536993913E+02 -0.64895122543E+02  0.10715716094E+03  0.79974102937E+02 0.  0.
         -6    2    1    2    0  502 -0.30558946502E+02  0.95934006382E+02  0.95203018580E+03  0.97279167795E+03  0.17269913495E+03 0.  0.
        -24    2    5    5    0    0  0.40578927811E+02  0.87304448507E+02  0.65440299417E+03  0.66662325758E+03  0.82913042740E+02 0.  0.
          5    1    3    3  501    0  0.28830056686E+02 -0.66397012469E+02  0.56769451440E+02  0.92111867043E+02  0.47000000000E+01 0. -1.
        -11    1    4    4    0    0  0.16239683291E+01 -0.57357028707E+02 -0.45744602324E+02  0.73382795374E+02  0.00000000000E+00 0.  1.
         12    1    4    4    0    0  0.10492148730E+00  0.27820034794E+02 -0.19150520219E+02  0.33774365562E+02  0.00000000000E+00 0. -1.
         -5    1    5    5    0  502 -0.71137874313E+02  0.86295578750E+01  0.29762719163E+03  0.30616842036E+03  0.47000000000E+01 0.  1.
         11    1    6    6    0    0  0.88875570997E+01  0.62660629020E+02  0.56605407706E+03  0.56958104011E+03  0.00000000000E+00 0. -1.
        -12    1    6    6    0    0  0.31691370711E+02  0.24643819487E+02  0.88348917119E+02  0.97042217475E+02  0.00000000000E+00 0.  1.
</event>
<event>
12    1  0.8358445E-002  0.2316461E+03  0.7818608E-02  0.1125526E+00
         21   -1    0    0  501  502  0.00000000000E+00  0.00000000000E+00  0.73913404533E+03  0.73913404533E+03  0.00000000000E+00 0. -1.
         21   -1    0    0  502  503 -0.00000000000E+00 -0.00000000000E+00 -0.74508357502E+02  0.74508357502E+02  0.00000000000E+00 0. -1.
         -6    2    1    2    0  503 -0.14676869935E+03  0.47928713513E+02  0.26581266677E+03  0.35243559028E+03  0.17238404449E+03 0.  0.
        -24    2    3    3    0    0 -0.14977782769E+03  0.12801566423E+02  0.26768738266E+03  0.31681851747E+03  0.78231454059E+02 0.  0.
          6    2    1    2  501    0  0.14676869935E+03 -0.47928713513E+02  0.39881302106E+03  0.46120681255E+03  0.17268956392E+03 0.  0.
         24    2    5    5    0    0  0.12635777823E+03  0.27371472285E+02  0.28913064114E+03  0.32652556609E+03  0.79416195146E+02 0.  0.
          5    1    5    5  501    0  0.20410921121E+02 -0.75300185798E+02  0.10968237992E+03  0.13468124645E+03  0.47000000000E+01 0. -1.
        -13    1    6    6    0    0  0.40494636480E+02 -0.17869173307E+02  0.15345642719E+03  0.15971223492E+03  0.00000000000E+00 0.  1.
         14    1    6    6    0    0  0.85863141750E+02  0.45240645592E+02  0.13567421395E+03  0.16681333117E+03  0.00000000000E+00 0. -1.
         -5    1    3    3    0  503  0.30091283422E+01  0.35127147089E+02 -0.18747158936E+01  0.35617072812E+02  0.47000000000E+01 0.  1.
         13    1    4    4    0    0 -0.31196978235E+01 -0.77042755492E+01  0.66447674853E+02  0.66965527472E+02  0.00000000000E+00 0. -1.
        -14    1    4    4    0    0 -0.14665812987E+03  0.20505841973E+02  0.20123970781E+03  0.24985299000E+03  0.00000000000E+00 0.  1.
</event>
<event>
12    1  0.8358445E-002  0.2006976E+03  0.7818608E-02  0.1150401E+00
         21   -1    0    0  501  502  0.00000000000E+00  0.00000000000E+00  0.10734560359E+03  0.10734560359E+03  0.00000000000E+00 0. -1.
         21   -1    0    0  502  503 -0.00000000000E+00 -0.00000000000E+00 -0.46968399993E+03  0.46968399993E+03  0.00000000000E+00 0. -1.
         -6    2    1    2    0  503  0.90392869183E+02 -0.13165049265E+02 -0.31985917313E+03  0.37761014706E+03  0.17870462559E+03 0.  0.
        -24    2    3    3    0    0  0.25016967484E+02  0.32616923276E+02 -0.26654386143E+03  0.28151326889E+03  0.80711697717E+02 0.  0.
          6    2    1    2  501    0 -0.90392869183E+02  0.13165049265E+02 -0.42479223213E+02  0.19941945645E+03  0.17210300952E+03 0.  0.
         24    2    5    5    0    0 -0.94030709517E+02 -0.30602466507E+01  0.22787641531E+02  0.13190391940E+03  0.89600378933E+02 0.  0.
          5    1    5    5  501    0  0.36378403342E+01  0.16225295916E+02 -0.65266864744E+02  0.67515537052E+02  0.47000000000E+01 0. -1.
        -13    1    6    6    0    0 -0.90160645676E+02 -0.28586645911E+02  0.38006138197E+02  0.10193431657E+03  0.00000000000E+00 0.  1.
         14    1    6    6    0    0 -0.38700638406E+01  0.25526399260E+02 -0.15218496666E+02  0.29969602835E+02  0.00000000000E+00 0. -1.
         -5    1    3    3    0  503  0.65375901699E+02 -0.45781972541E+02 -0.53315311696E+02  0.96096878170E+02  0.47000000000E+01 0.  1.
         11    1    4    4    0    0  0.44834337972E+02  0.33353987685E+02 -0.24848815268E+03  0.25469387189E+03  0.00000000000E+00 0. -1.
        -12    1    4    4    0    0 -0.19817370488E+02 -0.73706440900E+00 -0.18055708755E+02  0.26819397004E+02  0.00000000000E+00 0.  1.
</event>
<event>
12    1  0.8358445E-002  0.2163541E+03  0.7818608E-02  0.1137366E+00
         21   -1    0    0  501  502  0.00000000000E+00  0.00000000000E+00  0.29020355952E+03  0.29020355952E+03  0.00000000000E+00 0.  1.
         21   -1    0    0  502  503 -0.00000000000E+00 -0.00000000000E+00 -0.15847735967E+03  0.15847735967E+03  0.00000000000E+00 0.  1.
         -6    2    1    2    0  503  0.11063803724E+03  0.69873549054E+02  0.64168711589E+02  0.22566944852E+03  0.17229622255E+03 0.  0.
        -24    2    3    3    0    0  0.10557637257E+03  0.10533830654E+03  0.78769265071E+02  0.18669977268E+03  0.80060469216E+02 0.  0.
          6    2    1    2  501    0 -0.11063803724E+03 -0.69873549054E+02  0.67557488264E+02  0.22301147067E+03  0.16747242664E+03 0.  0.
         24    2    5    5    0    0 -0.96571804903E+02  0.16137081282E+02  0.32797505668E+02  0.12906449725E+03  0.77430285927E+02 0.  0.
          5    1    5    5  501    0 -0.14066232338E+02 -0.86010630336E+02  0.34759982596E+02  0.93946973411E+02  0.47000000000E+01 0. -1.
        -13    1    6    6    0    0 -0.35325570618E+02 -0.29887827708E+02  0.23476442807E+02  0.51887585716E+02  0.00000000000E+00 0.  1.
         14    1    6    6    0    0 -0.61246234286E+02  0.46024908990E+02  0.93210628616E+01  0.77176911538E+02  0.00000000000E+00 0. -1.
         -5    1    3    3    0  503  0.50616646758E+01 -0.35464757486E+02 -0.14600553482E+02  0.38969675837E+02  0.47000000000E+01 0.  1.
         13    1    4    4    0    0  0.14461863079E+02 -0.19627668077E+01  0.37142374968E+02  0.39906815903E+02  0.00000000000E+00 0. -1.
        -14    1    4    4    0    0  0.91114509487E+02  0.10730107335E+03  0.41626890103E+02  0.14679295678E+03  0.00000000000E+00 0.  1.
</event>
<event>
12    1  0.8358445E-002  0.2153001E+03  0.7818608E-02  0.1137544E+00
         21   -1    0    0  501  502  0.00000000000E+00  0.00000000000E+00  0.15899257465E+04  0.15899257465E+04  0.00000000000E+00 0.  1.
         21   -1    0    0  502  503 -0.00000000000E+00 -0.00000000000E+00 -0.29079853704E+02  0.29079853704E+02  0.00000000000E+00 0.  1.
         -6    2    1    2    0  503  0.10571258976E+03  0.75327112828E+02  0.78510597069E+03  0.81409184433E+03  0.17176967200E+03 0.  0.
        -24    2    3    3    0    0  0.10055501907E+03  0.11092918099E+03  0.53147583846E+03  0.55788013153E+03  0.79668558669E+02 0.  0.
          6    2    1    2  501    0 -0.10571258976E+03 -0.75327112828E+02  0.77573992212E+03  0.80491375589E+03  0.17106841350E+03 0.  0.
         24    2    5    5    0    0 -0.49409161453E+02 -0.83153119529E+02  0.69800216881E+03  0.70849502997E+03  0.73501519059E+02 0.  0.
          5    1    5    5  501    0 -0.56303428303E+02  0.78260067007E+01  0.77737753308E+02  0.96418725924E+02  0.47000000000E+01 0. -1.
        -13    1    6    6    0    0 -0.17829564259E+02  0.47471240966E+01  0.41959580904E+02  0.45837048099E+02  0.00000000000E+00 0.  1.
         14    1    6    6    0    0 -0.31579597194E+02 -0.87900243626E+02  0.65604258791E+03  0.66265798187E+03  0.00000000000E+00 0. -1.
         -5    1    3    3    0  503  0.51575706827E+01 -0.35602068166E+02  0.25363013224E+03  0.25621171279E+03  0.47000000000E+01 0.  1.
         13    1    4    4    0    0  0.69293164864E+02  0.52014240090E+02  0.17564229539E+03  0.19585004417E+03  0.00000000000E+00 0. -1.
        -14    1    4    4    0    0  0.31261854209E+02  0.58914940904E+02  0.35583354306E+03  0.36203008737E+03  0.00000000000E+00 0.  1.
</event>
<event>
12    1  0.8358445E-002  0.1759863E+03  0.7818608E-02  0.1172108E+00
         21   -1    0    0  503  502  0.00000000000E+00  0.00000000000E+00  0.17788680928E+04  0.17788680928E+04  0.00000000000E+00 0.  1.
         21   -1    0    0  501  503 -0.00000000000E+00 -0.00000000000E+00 -0.17270754844E+02  0.17270754844E+02  0.00000000000E+00 0.  1.
          6    2    1    2  501    0  0.34979564960E+02 -0.55949551016E+01  0.86443369172E+03  0.88187750559E+03  0.17090188412E+03 0.  0.
         24    2    3    3    0    0 -0.35630081024E+02 -0.53599010696E+01  0.30149561250E+03  0.31450888785E+03  0.81963436773E+02 0.  0.
         -6    2    1    2    0  502 -0.34979564960E+02  0.55949551016E+01  0.89716364624E+03  0.91426134206E+03  0.17238422191E+03 0.  0.
        -24    2    5    5    0    0 -0.15651587826E+02 -0.54996893242E+02  0.35155824578E+03  0.36494150281E+03  0.79495093104E+02 0.  0.
          5    1    3    3  501    0  0.70609645984E+02 -0.23505403197E+00  0.56293807921E+03  0.56736861773E+03  0.47000000000E+01 0. -1.
        -13    1    4    4    0    0  0.19418702163E+02  0.14508091893E+01  0.21234296946E+02  0.28811216701E+02  0.00000000000E+00 0.  1.
         14    1    4    4    0    0 -0.55048783187E+02 -0.68107102589E+01  0.28026131556E+03  0.28569767115E+03  0.00000000000E+00 0. -1.
         -5    1    5    5    0  502 -0.19327977135E+02  0.60591848343E+02  0.54560540046E+03  0.54931983925E+03  0.47000000000E+01 0.  1.
         11    1    6    6    0    0  0.29036254686E+02 -0.62268253950E+01  0.14645564886E+03  0.14943605496E+03  0.00000000000E+00 0. -1.
        -12    1    6    6    0    0 -0.44687842512E+02 -0.48770067847E+02  0.20510259692E+03  0.21550544784E+03  0.00000000000E+00 0.  1.
</event>
<event>
12    1  0.8358445E-002  0.1945421E+03  0.7818608E-02  0.1154447E+00
         21   -1    0    0  501  502  0.00000000000E+00  0.00000000000E+00  0.65127254909E+02  0.65127254909E+02  0.00000000000E+00 0. -1.
         21   -1    0    0  502  503 -0.00000000000E+00 -0.00000000000E+00 -0.58084698285E+03  0.58084698285E+03  0.00000000000E+00 0. -1.
         -6    2    1    2    0  503  0.17967591448E+02  0.87856051000E+02 -0.25795932296E+03  0.32303915395E+03  0.17253916263E+03 0.  0.
        -24    2    3    3    0    0  0.40631620569E+02  0.12426980379E+03 -0.20913567296E+03  0.25788197163E+03  0.75309155226E+02 0.  0.
          6    2    1    2  501    0 -0.17967591448E+02 -0.87856051000E+02 -0.25776040498E+03  0.32293508381E+03  0.17264159968E+03 0.  0.
         24    2    5    5    0    0 -0.71900516758E+02 -0.23993174456E+02 -0.13384430672E+03  0.17338737623E+03  0.80022041126E+02 0.  0.
          5    1    5    5  501    0  0.53932925310E+02 -0.63862876545E+02 -0.12391609826E+03  0.14954770758E+03  0.47000000000E+01 0. -1.
        -13    1    6    6    0    0 -0.67031598032E+02  0.96035948876E+01 -0.11771586350E+03  0.13580312474E+03  0.00000000000E+00 0.  1.
         14    1    6    6    0    0 -0.48689187261E+01 -0.33596769343E+02 -0.16128443221E+02  0.37584251497E+02  0.00000000000E+00 0. -1.
         -5    1    3    3    0  503 -0.22664029121E+02 -0.36413752793E+02 -0.48823650000E+02  0.65157182320E+02  0.47000000000E+01 0.  1.
         11    1    4    4    0    0  0.17892867324E+02  0.92017365415E+02 -0.19428575762E+03  0.21571811666E+03  0.00000000000E+00 0. -1.
        -12    1    4    4    0    0  0.22738753245E+02  0.32252438379E+02 -0.14849915340E+02  0.42163854972E+02  0.00000000000E+00 0.  1.
</event>
<event>
12    1  0.8358445E-002  0.2364398E+03  0.7818608E-02  0.1122471E+00
         21   -1    0    0  501  502  0.00000000000E+00  0.00000000000E+00  0.14049419878E+03  0.14049419878E+03  0.00000000000E+00 0.  1.
         21   -1    0    0  502  503 -0.00000000000E+00 -0.00000000000E+00 -0.43510215293E+03  0.43510215293E+03  0.00000000000E+00 0. -1.
         -6    2    1    2    0  503 -0.16033770345E+03 -0.25587617912E+02 -0.23502471613E+03  0.33337726353E+03  0.17187459762E+03 0.  0.
        -24    2    3    3    0    0 -0.16670465184E+03  0.23205315415E+02 -0.19292433993E+03  0.26844791692E+03  0.80718991295E+02 0.  0.
          6    2    1    2  501    0  0.16033770345E+03  0.25587617912E+02 -0.59583238014E+02  0.24221908818E+03  0.16957894647E+03 0.  0.
         24    2    5    5    0    0  0.92348111610E+02  0.81829476945E+02 -0.51150086953E+02  0.15345569852E+03  0.75551856347E+02 0.  0.
          5    1    5    5  501    0  0.67989591845E+02 -0.56241859033E+02 -0.84331510610E+01  0.88763389658E+02  0.47000000000E+01 0. -1.
        -11    1    6    6    0    0  0.80333655827E+02  0.24220349585E+02 -0.42234777513E+02  0.93935605732E+02  0.00000000000E+00 0.  1.
         12    1    6    6    0    0  0.12014455782E+02  0.57609127360E+02 -0.89153094404E+01  0.59520092787E+02  0.00000000000E+00 0. -1.
         -5    1    3    3    0  503  0.63669483860E+01 -0.48792933327E+02 -0.42100376205E+02  0.64929346609E+02  0.47000000000E+01 0.  1.
         11    1    4    4    0    0 -0.64815949368E+02 -0.27451200347E+02 -0.95590095952E+02  0.11871032869E+03  0.00000000000E+00 0. -1.
        -12    1    4    4    0    0 -0.10188870247E+03  0.50656515762E+02 -0.97334243976E+02  0.14973758824E+03  0.00000000000E+00 0.  1.
</event>
<event>
12    1  0.8358445E-002  0.1768051E+03  0.7818608E-02  0.1172627E+00
         21   -1    0    0  501  502  0.00000000000E+00  0.00000000000E+00  0.68000829194E+03  0.68000829194E+03  0.00000000000E+00 0.  1.
         21   -1    0    0  502  503 -0.00000000000E+00 -0.00000000000E+00 -0.13504842182E+03  0.13504842182E+03  0.00000000000E+00 0.  1.
         -6    2    1    2    0  503  0.10333904844E+02 -0.11393222836E+02 -0.63394798471E+02  0.18153051705E+03  0.16940434774E+03 0.  0.
        -24    2    3    3    0    0 -0.18761108263E+02  0.39232701681E+02 -0.55102214694E+02  0.12236666858E+03  0.10023055148E+03 0.  0.
          6    2    1    2  501    0 -0.10333904844E+02  0.11393222836E+02  0.60835466859E+03  0.63352619671E+03  0.17613473254E+03 0.  0.
         24    2    5    5    0    0  0.32292788485E+02  0.44062144849E+02  0.21062816658E+03  0.23216257871E+03  0.80937887302E+02 0.  0.
          5    1    5    5  501    0 -0.42626693330E+02 -0.32668922013E+02  0.39772650201E+03  0.40136361800E+03  0.47000000000E+01 0. -1.
        -11    1    6    6    0    0  0.32075155065E+02  0.46105541887E+02  0.21768433476E+03  0.22481326955E+03  0.00000000000E+00 0.  1.
         12    1    6    6    0    0  0.21763342045E+00 -0.20433970374E+01 -0.70561681820E+01  0.73493091628E+01  0.00000000000E+00 0. -1.
         -5    1    3    3    0  503  0.29095013107E+02 -0.50625924517E+02 -0.82925837768E+01  0.59163848477E+02  0.47000000000E+01 0.  1.
         11    1    4    4    0    0  0.22249099406E+02  0.10159383094E+02  0.20271242238E+02  0.31767259106E+02  0.00000000000E+00 0. -1.
        -12    1    4    4    0    0 -0.41010207669E+02  0.29073318587E+02 -0.75373456932E+02  0.90599409472E+02  0.00000000000E+00 0.  1.
</event>
<event>
12    1  0.8358445E-002  0.3355632E+03  0.7818608E-02  0.1068799E+00
         21   -1    0    0  501  502  0.00000000000E+00  0.00000000000E+00  0.14145275215E+03  0.14145275215E+03  0.00000000000E+00 0. -1.
         21   -1    0    0  502  503 -0.00000000000E+00 -0.00000000000E+00 -0.83108367415E+03  0.83108367415E+03  0.00000000000E+00 0.  1.
         -6    2    1    2    0  503  0.20244591782E+03 -0.20258645672E+03 -0.44720512851E+03  0.55856427642E+03  0.17313579018E+03 0.  0.
        -24    2    3    3    0    0  0.16064936824E+03 -0.10336643835E+03 -0.19568879690E+03  0.28493292100E+03  0.79998900897E+02 0.  0.
          6    2    1    2  501    0 -0.20244591782E+03  0.20258645672E+03 -0.24242579348E+03  0.41397214987E+03  0.17486295616E+03 0.  0.
         24    2    5    5    0    0 -0.19580947364E+03  0.18990691088E+03 -0.14969695226E+03  0.32002779789E+03  0.74850712371E+02 0.  0.
          5    1    5    5  501    0 -0.66364441851E+01  0.12679545839E+02 -0.92728841226E+02  0.93944351982E+02  0.47000000000E+01 0. -1.
        -11    1    6    6    0    0 -0.14435915583E+02 -0.31869533407E+01 -0.20527393979E+02  0.25296763308E+02  0.00000000000E+00 0.  1.
         12    1    6    6    0    0 -0.18137355806E+03  0.19309386422E+03 -0.12916955828E+03  0.29473103458E+03  0.00000000000E+00 0. -1.
         -5    1    3    3    0  503  0.41796549579E+02 -0.99220018371E+02 -0.25151633161E+03  0.27363135542E+03  0.47000000000E+01 0.  1.
         13    1    4    4    0    0  0.11004311960E+03 -0.10676925359E+03 -0.12441624333E+03  0.19745521844E+03  0.00000000000E+00 0. -1.
        -14    1    4    4    0    0  0.50606248641E+02  0.34028152459E+01 -0.71272553570E+02  0.87477702562E+02  0.00000000000E+00 0.  1.
</event>
<event>
12    1  0.8358445E-002  0.4267565E+03  0.7818608E-02  0.1034939E+00
         21   -1    0    0  503  502  0.00000000000E+00  0.00000000000E+00  0.18599166833E+03  0.18599166833E+03  0.00000000000E+00 0.  1.
         21   -1    0    0  501  503 -0.00000000000E+00 -0.00000000000E+00 -0.12199250445E+04  0.12199250445E+04  0.00000000000E+00 0. -1.
          6    2    1    2  501    0  0.27573097455E+03  0.27574966707E+03 -0.20407453994E+03  0.47304071150E+03  0.17336564732E+03 0.  0.
         24    2    3    3    0    0  0.17546607726E+03  0.22270205203E+03 -0.82518449133E+02  0.30671250492E+03  0.82938036997E+02 0.  0.
         -6    2    1    2    0  502 -0.27573097455E+03 -0.27574966707E+03 -0.82985883619E+03  0.93287600129E+03  0.17183275755E+03 0.  0.
        -24    2    5    5    0    0 -0.14650051460E+03 -0.22269241368E+03 -0.46130631568E+03  0.53870771960E+03  0.79675456584E+02 0.  0.
          5    1    3    3  501    0  0.10026489729E+03  0.53047615033E+02 -0.12155609081E+03  0.16632820657E+03  0.47000000000E+01 0. -1.
        -11    1    4    4    0    0  0.14402953393E+03  0.11904191311E+03 -0.57983702514E+02  0.19564660354E+03  0.00000000000E+00 0.  1.
         12    1    4    4    0    0  0.31436543331E+02  0.10366013892E+03 -0.24534746619E+02  0.11106590138E+03  0.00000000000E+00 0. -1.
         -5    1    5    5    0  502 -0.12923045995E+03 -0.53057253384E+02 -0.36855252051E+03  0.39416828169E+03  0.47000000000E+01 0.  1.
         11    1    6    6    0    0 -0.26891412659E+02 -0.45785474084E+01 -0.68829381996E+02  0.74037794383E+02  0.00000000000E+00 0. -1.
        -12    1    6    6    0    0 -0.11960910194E+03 -0.21811386627E+03 -0.39247693368E+03  0.46466992522E+03  0.00000000000E+00 0.  1.
</event>
<event>
12    1  0.8358445E-002  0.2993859E+03  0.7818608E-02  0.1085867E+00
         21   -1    0    0  503  502  0.00000000000E+00  0.00000000000E+00  0.61058238787E+02  0.61058238787E+02  0.00000000000E+00 0. -1.
         21   -1    0    0  501  503 -0.00000000000E+00 -0.00000000000E+00 -0.16399750310E+04  0.16399750310E+04  0.00000000000E+00 0. -1.
          6    2    1    2  501    0  0.23601451017E+03 -0.66482888390E+02 -0.10776230191E+04  0.11184378802E+04  0.17178212105E+03 0.  0.
         24    2    3    3    0    0  0.46892528985E+02 -0.54530126385E+02 -0.46152271149E+03  0.47383593223E+03  0.79654463124E+02 0.  0.
         -6    2    1    2    0  502 -0.23601451017E+03  0.66482888390E+02 -0.50129377319E+03  0.58259538967E+03  0.16732936850E+03 0.  0.
        -24    2    5    5    0    0 -0.10583813290E+03  0.48794975586E+02 -0.37424768385E+03  0.39977977142E+03  0.78612192138E+02 0.  0.
          5    1    3    3  501    0  0.18912198118E+03 -0.11952762005E+02 -0.61610030758E+03  0.64460194794E+03  0.47000000000E+01 0. -1.
        -11    1    4    4    0    0  0.19512038873E+02 -0.45534136913E+02 -0.10445251473E+03  0.11560452032E+03  0.00000000000E+00 0.  1.
         12    1    4    4    0    0  0.27380490112E+02 -0.89959894728E+01 -0.35707019676E+03  0.35823141191E+03  0.00000000000E+00 0. -1.
         -5    1    5    5    0  502 -0.13017637726E+03  0.17687912804E+02 -0.12704608934E+03  0.18281561825E+03  0.47000000000E+01 0.  1.
         11    1    6    6    0    0 -0.41423386500E+01 -0.15517428894E+02 -0.19974848298E+02  0.25630921433E+02  0.00000000000E+00 0. -1.
        -12    1    6    6    0    0 -0.10169579425E+03  0.64312404480E+02 -0.35427283555E+03  0.37414884999E+03  0.00000000000E+00 0.  1.
</event>
<event>
12    1  0.8358445E-002  0.2298324E+03  0.7818608E-02  0.1126909E+00
         21   -1    0    0  501  502  0.00000000000E+00  0.00000000000E+00  0.19527223185E+04  0.19527223185E+04  0.00000000000E+00 0. -1.
         21   -1    0    0  502  503 -0.00000000000E+00 -0.00000000000E+00 -0.27114748495E+02  0.27114748495E+02  0.00000000000E+00 0.  1.
         -6    2    1    2    0  503 -0.12690193869E+03  0.88193956108E+02  0.88395578000E+03  0.91313120993E+03  0.16896304219E+03 0.  0.
        -24    2    3    3    0    0 -0.69063048136E+02 -0.18390442664E+02  0.38224402244E+03  0.39695067079E+03  0.79695855272E+02 0.  0.
          6    2    1    2  501    0  0.12690193869E+03 -0.88193956108E+02  0.10416517900E+04  0.10667058571E+04  0.17011954012E+03 0.  0.
         24    2    5    5    0    0  0.13596164217E+03 -0.10145483552E+03  0.71138276161E+03  0.73601317455E+03  0.82893351976E+02 0.  0.
          5    1    5    5  501    0 -0.90597034841E+01  0.13260879407E+02  0.33026902840E+03  0.33069268251E+03  0.47000000000E+01 0. -1.
        -13    1    6    6    0    0  0.83063899319E+01 -0.32247253809E+02  0.25295244320E+03  0.25513490552E+03  0.00000000000E+00 0.  1.
         14    1    6    6    0    0  0.12765525224E+03 -0.69207581706E+02  0.45843031841E+03  0.48087826903E+03  0.00000000000E+00 0. -1.
         -5    1    3    3    0  503 -0.57838890552E+02  0.10658439877E+03  0.50171175756E+03  0.51618053914E+03  0.47000000000E+01 0.  1.
         11    1    4    4    0    0 -0.42774386431E+02 -0.28263044822E+02  0.35186744759E+03  0.35558282933E+03  0.00000000000E+00 0. -1.
        -12    1    4    4    0    0 -0.26288661705E+02  0.98726021584E+01  0.30376574852E+02  0.41367841464E+02  0.00000000000E+00 0.  1.
</event>
<event>
12    1  0.8358445E-002  0.1925991E+03  0.7818608E-02  0.1159074E+00
         21   -1    0    0  503  502  0.00000000000E+00  0.00000000000E+00  0.10638722857E+04  0.10638722857E+04  0.00000000000E+00 0.  1.
         21   -1    0    0  501  503 -0.00000000000E+00 -0.00000000000E+00 -0.55539606098E+02  0.55539606098E+02  0.00000000000E+00 0.  1.
          6    2    1    2  501    0 -0.78248558262E+02  0.38735467715E+02  0.13437538486E+03  0.22448410168E+03  0.15720399015E+03 0.  0.
         24    2    3    3    0    0 -0.11281746556E+03  0.37924847935E+02  0.11932034367E+03  0.18647869783E+03  0.79817828239E+02 0.  0.
         -6    2    1    2    0  502  0.78248558262E+02 -0.38735467715E+02  0.87395729479E+03  0.89492779017E+03  0.17167155610E+03 0.  0.
        -24    2    5    5    0    0  0.80512427367E+01  0.31495634915E+02  0.51808468999E+03  0.52543154969E+03  0.81300491247E+02 0.  0.
          5    1    3    3  501    0  0.34568907299E+02  0.81061978020E+00  0.15055041196E+02  0.38005403849E+02  0.47000000000E+01 0. -1.
        -13    1    4    4    0    0 -0.27078008718E+02  0.38998114953E+02  0.11739847466E+02  0.48907009155E+02  0.00000000000E+00 0.  1.
         14    1    4    4    0    0 -0.85739456843E+02 -0.10732670181E+01  0.10758049620E+03  0.13757168867E+03  0.00000000000E+00 0. -1.
         -5    1    5    5    0  502  0.70197315525E+02 -0.70231102630E+02  0.35587260480E+03  0.36949624048E+03  0.47000000000E+01 0.  1.
         13    1    6    6    0    0  0.28836140004E+01  0.53862940949E+02  0.45705792316E+03  0.46022980864E+03  0.00000000000E+00 0. -1.
        -14    1    6    6    0    0  0.51676287363E+01 -0.22367306034E+02  0.61026766830E+02  0.65201741048E+02  0.00000000000E+00 0.  1.
</event>
<event>
12    1  0.8358445E-002  0.1860723E+03  0.7818608E-02  0.1162186E+00
         21   -1    0    0  501  502  0.00000000000E+00  0.00000000000E+00  0.62065426556E+03  0.62065426556E+03  0.00000000000E+00 0. -1.
         21   -1    0    0  502  503 -0.00000000000E+00 -0.00000000000E+00 -0.10518678387E+03  0.10518678387E+03  0.00000000000E+00 0. -1.
         -6    2    1    2    0  503 -0.67289439755E+02 -0.20227909080E+02  0.83718587980E+01  0.18568472028E+03  0.17167320792E+03 0.  0.
        -24    2    3    3    0    0  0.14633115497E+02  0.86960742072E+01 -0.34379330927E+02  0.88743211674E+02  0.80022930760E+02 0.  0.
          6    2    1    2  501    0  0.67289439755E+02  0.20227909080E+02  0.50709562289E+03  0.54015632915E+03  0.17229582747E+03 0.  0.
         24    2    5    5    0    0  0.35016865648E+02  0.92509446272E+01  0.10251607036E+03  0.13411603914E+03  0.78522649068E+02 0.  0.
          5    1    5    5  501    0  0.32272574107E+02  0.10976964453E+02  0.40457955253E+03  0.40604029001E+03  0.47000000000E+01 0. -1.
        -11    1    6    6    0    0  0.49062498485E+02  0.24931373432E+02  0.39678571860E+02  0.67846084660E+02  0.00000000000E+00 0.  1.
         12    1    6    6    0    0 -0.14045632837E+02 -0.15680428804E+02  0.62837498499E+02  0.66269954481E+02  0.00000000000E+00 0. -1.
         -5    1    3    3    0  503 -0.81922555253E+02 -0.28923983287E+02  0.42751189725E+02  0.96941508608E+02  0.47000000000E+01 0.  1.
         13    1    4    4    0    0  0.20703877948E+01 -0.20853185454E+02  0.17787283531E+02  0.27486893324E+02  0.00000000000E+00 0. -1.
        -14    1    4    4    0    0  0.12562727703E+02  0.29549259661E+02 -0.52166614457E+02  0.61256318350E+02  0.00000000000E+00 0.  1.
</event>
<event>
12    1  0.8358445E-002  0.2066263E+03  0.7818608E-02  0.1144415E+00
         21   -1    0    0  501  502  0.00000000000E+00  0.00000000000E+00  0.17535185102E+03  0.17535185102E+03  0.00000000000E+00 0. -1.
         21   -1    0    0  502  503 -0.00000000000E+00 -0.00000000000E+00 -0.27166515714E+03  0.27166515714E+03  0.00000000000E+00 0. -1.
         -6    2    1    2    0  503  0.61318814098E+02 -0.96705432692E+02 -0.12117173536E+03  0.23890073717E+03  0.17111117759E+03 0.  0.
        -24    2    3    3    0    0  0.10898239525E+03 -0.73249612506E+02 -0.89421069789E+02  0.17683474621E+03  0.77664223029E+02 0.  0.
          6    2    1    2  501    0 -0.61318814098E+02  0.96705432692E+02  0.24858429244E+02  0.20811627099E+03  0.17199564841E+03 0.  0.
         24    2    5    5    0    0  0.78333872059E+01  0.66251765952E+02 -0.36969525481E+02  0.11037048464E+03  0.79776184535E+02 0.  0.
          5    1    5    5  501    0 -0.69152201304E+02  0.30453666740E+02  0.61827954725E+02  0.97745786347E+02  0.47000000000E+01 0. -1.
        -11    1    6    6    0    0  0.23433483554E+02  0.79895034824E+02 -0.30197664050E+02  0.88567734842E+02  0.00000000000E+00 0.  1.
         12    1    6    6    0    0 -0.15600096348E+02 -0.13643268872E+02 -0.67718614311E+01  0.21802749800E+02  0.00000000000E+00 0. -1.
         -5    1    3    3    0  503 -0.47663581156E+02 -0.23455820186E+02 -0.31750665569E+02  0.62065990956E+02  0.47000000000E+01 0.  1.
         11    1    4    4    0    0  0.98453590329E+02 -0.88652258531E+02 -0.85764870928E+02  0.15782251258E+03  0.00000000000E+00 0. -1.
        -12    1    4    4    0    0  0.10528804925E+02  0.15402646024E+02 -0.36561988610E+01  0.19012233636E+02  0.00000000000E+00 0.  1.
</event>
<event>
12    1  0.8358445E-002  0.1997660E+03  0.7818608E-02  0.1150021E+00
         21   -1    0    0  503  502  0.00000000000E+00  0.00000000000E+00  0.19125657099E+03  0.19125657099E+03  0.00000000000E+00 0.  1.
         21   -1    0    0  501  503 -0.00000000000E+00 -0.00000000000E+00 -0.58035511150E+03  0.58035511150E+03  0.00000000000E+00 0. -1.
          6    2    1    2  501    0  0.10490886122E+02 -0.10206442659E+03 -0.50341073880E+03  0.54145146760E+03  0.17093891877E+03 0.  0.
         24    2    3    3    0    0 -0.24991757629E+02 -0.16853184700E+02 -0.12339501935E+03  0.15035811457E+03  0.80452557644E+02 0.  0.
         -6    2    1    2    0  502 -0.10490886122E+02  0.10206442659E+03  0.11431219829E+03  0.23016021489E+03  0.17140373383E+03 0.  0.
        -24    2    5    5    0    0  0.27285972677E+02  0.10981085011E+03  0.36403522098E+02  0.14310304997E+03  0.79688891209E+02 0.  0.
          5    1    3    3  501    0  0.35482643751E+02 -0.85211241895E+02 -0.38001571945E+03  0.39109335303E+03  0.47000000000E+01 0. -1.
        -11    1    4    4    0    0 -0.24877450362E+02 -0.47951136415E+02 -0.68168860192E+02  0.86978115178E+02  0.00000000000E+00 0.  1.
         12    1    4    4    0    0 -0.11430726663E+00  0.31097951715E+02 -0.55226159161E+02  0.63379999390E+02  0.00000000000E+00 0. -1.
         -5    1    5    5    0  502 -0.37776858799E+02 -0.77464235149E+01  0.77908676194E+02  0.87057164922E+02  0.47000000000E+01 0.  1.
         13    1    6    6    0    0 -0.35414877541E+01  0.45072084304E+02 -0.22320904089E+02  0.50420806007E+02  0.00000000000E+00 0. -1.
        -14    1    6    6    0    0  0.30827460431E+02  0.64738765805E+02  0.58724426187E+02  0.92682243960E+02  0.00000000000E+00 0.  1.
</event>
<event>
12    1  0.8358445E-002  0.1810012E+03  0.7818608E-02  0.1167046E+00
         21   -1    0    0  501  502  0.00000000000E+00  0.00000000000E+00  0.12336485405E+03  0.12336485405E+03  0.00000000000E+00 0.  1.
         21   -1    0    0  502  503 -0.00000000000E+00 -0.00000000000E+00 -0.26461845547E+03  0.26461845547E+03  0.00000000000E+00 0.  1.
         -6    2    1    2    0  503 -0.50657593620E+01 -0.54860635875E+02 -0.77224143105E+02  0.19599059206E+03  0.17150333119E+03 0.  0.
        -24    2    3    3    0    0 -0.99200803569E+01  0.34476851264E+02 -0.24214472540E+02  0.91890322057E+02  0.81058184904E+02 0.  0.
          6    2    1    2  501    0  0.50657593620E+01  0.54860635875E+02 -0.64029458314E+02  0.19199271746E+03  0.17241253069E+03 0.  0.
         24    2    5    5    0    0  0.34237158386E+02  0.93567484488E+02 -0.24544649895E+02  0.12930036748E+03  0.78670757106E+02 0.  0.
          5    1    5    5  501    0 -0.29171399024E+02 -0.38706848613E+02 -0.39484808418E+02  0.62692349983E+02  0.47000000000E+01 0. -1.
        -13    1    6    6    0    0 -0.13755443545E+02  0.34252567577E+02  0.18932323771E+02  0.41483532831E+02  0.00000000000E+00 0.  1.
         14    1    6    6    0    0  0.47992601931E+02  0.59314916911E+02 -0.43476973666E+02  0.87816834647E+02  0.00000000000E+00 0. -1.
         -5    1    3    3    0  503  0.48543209949E+01 -0.89337487139E+02 -0.53009670565E+02  0.10410027000E+03  0.47000000000E+01 0.  1.
         11    1    4    4    0    0 -0.19512153571E+02 -0.45168557360E+01  0.22610206666E+02  0.30205091759E+02  0.00000000000E+00 0. -1.
        -12    1    4    4    0    0  0.95920732139E+01  0.38993707000E+02 -0.46824679206E+02  0.61685230298E+02  0.00000000000E+00 0.  1.
</event>
<event>
12    1  0.8358445E-002  0.2089128E+03  0.7818608E-02  0.1142463E+00
         21   -1    0    0  501  502  0.00000000000E+00  0.00000000000E+00  0.45658585789E+02  0.45658585789E+02  0.00000000000E+00 0. -1.
         21   -1    0    0  502  503 -0.00000000000E+00 -0.00000000000E+00 -0.10011816053E+04  0.10011816053E+04  0.00000000000E+00 0.  1.
         -6    2    1    2    0  503 -0.76608544428E+02 -0.91693581594E+02 -0.58984138944E+03  0.62568985225E+03  0.17116759192E+03 0.  0.
        -24    2    3    3    0    0  0.17671592113E+02 -0.75983428627E+02 -0.35899550335E+03  0.37579494198E+03  0.79109420424E+02 0.  0.
          6    2    1    2  501    0  0.76608544428E+02  0.91693581594E+02 -0.36568163009E+03  0.42115033886E+03  0.17137085911E+03 0.  0.
         24    2    5    5    0    0  0.32795127395E+02 -0.20272765567E+02 -0.14331353362E+03  0.16831494036E+03  0.79401793583E+02 0.  0.
          5    1    5    5  501    0  0.43813417033E+02  0.11196634716E+03 -0.22236809647E+03  0.25283539850E+03  0.47000000000E+01 0. -1.
        -11    1    6    6    0    0  0.43296065316E+02  0.18845478808E+02 -0.86382884235E+02  0.98446452613E+02  0.00000000000E+00 0.  1.
         12    1    6    6    0    0 -0.10500937921E+02 -0.39118244375E+02 -0.56930649383E+02  0.69868487743E+02  0.00000000000E+00 0. -1.
         -5    1    3    3    0  503 -0.94280136541E+02 -0.15710152967E+02 -0.23084588609E+03  0.24989491027E+03  0.47000000000E+01 0.  1.
         11    1    4    4    0    0  0.31223396797E+02  0.13937058419E+01 -0.12984790800E+03  0.13355643802E+03  0.00000000000E+00 0. -1.
        -12    1    4    4    0    0 -0.13551804685E+02 -0.77377134469E+02 -0.22914759535E+03  0.24223850396E+03  0.00000000000E+00 0.  1.
</event>
<event>
12    1  0.8358445E-002  0.2610888E+03  0.7818608E-02  0.1106556E+00
         21   -1    0    0  503  502  0.00000000000E+00  0.00000000000E+00  0.53853581263E+03  0.53853581263E+03  0.00000000000E+00 0.  1.
         21   -1    0    0  501  503 -0.00000000000E+00 -0.00000000000E+00 -0.14093496772E+03  0.14093496772E+03  0.00000000000E+00 0.  1.
          6    2    1    2  501    0 -0.16753630231E+03 -0.10164502833E+03  0.89431690145E+02  0.27557028323E+03  0.17187445833E+03 0.  0.
         24    2    3    3    0    0 -0.12405217861E+03 -0.97531872606E+02  0.17613677702E+01  0.17750926912E+03  0.81271329603E+02 0.  0.
         -6    2    1    2    0  502  0.16753630231E+03  0.10164502833E+03  0.30816915476E+03  0.40390049712E+03  0.17253190792E+03 0.  0.
        -24    2    5    5    0    0  0.16992212367E+03  0.10022879850E+03  0.32361224134E+03  0.38752134044E+03  0.80799544489E+02 0.  0.
          5    1    3    3  501    0 -0.43484123694E+02 -0.41131557253E+01  0.87670322374E+02  0.98061014112E+02  0.47000000000E+01 0. -1.
        -13    1    4    4    0    0 -0.46617242407E+02 -0.56987313437E+02  0.38040309360E+02  0.82872108206E+02  0.00000000000E+00 0.  1.
         14    1    4    4    0    0 -0.77434936205E+02 -0.40544559169E+02 -0.36278941590E+02  0.94637160915E+02  0.00000000000E+00 0. -1.
         -5    1    5    5    0  502 -0.23858213684E+01  0.14162298273E+01 -0.15443086576E+02  0.16379156679E+02  0.47000000000E+01 0.  1.
         13    1    6    6    0    0  0.19268770011E+02  0.24831296475E+01  0.94178896651E+02  0.96161925963E+02  0.00000000000E+00 0. -1.
        -14    1    6    6    0    0  0.15065335366E+03  0.97745668856E+02  0.22943334468E+03  0.29135941447E+03  0.00000000000E+00 0.  1.
</event>
<event>
12    1  0.8358445E-002  0.2704403E+03  0.7818608E-02  0.1101074E+00
         21   -1    0    0  501  502  0.00000000000E+00  0.00000000000E+00  0.66559760483E+03  0.66559760483E+03  0.00000000000E+00 0. -1.
         21   -1    0    0  502  503 -0.00000000000E+00 -0.00000000000E+00 -0.13134570251E+03  0.13134570251E+03  0.00000000000E+00 0. -1.
         -6    2    1    2    0  503  0.79003742009E+02  0.19279833023E+03  0.10569373503E+03  0.29036032218E+03  0.17240987118E+03 0.  0.
        -24    2    3    3    0    0 -0.19951492459E+02  0.12201056952E+03  0.43783155801E+02  0.15376582992E+03  0.80264092796E+02 0.  0.
          6    2    1    2  501    0 -0.79003742009E+02 -0.19279833023E+03  0.42855816729E+03  0.50658298516E+03  0.17190529575E+03 0.  0.
         24    2    5    5    0    0 -0.38995817943E+02 -0.37824374816E+02  0.24116432315E+03  0.26009545268E+03  0.80858250023E+02 0.  0.
          5    1    5    5  501    0 -0.40007924066E+02 -0.15497395541E+03  0.18739384414E+03  0.24648753248E+03  0.47000000000E+01 0. -1.
        -13    1    6    6    0    0 -0.13544417177E+02 -0.18639411401E+00 -0.11160110872E+01  0.13591595204E+02  0.00000000000E+00 0.  1.
         14    1    6    6    0    0 -0.25451400765E+02 -0.37637980702E+02  0.24228033424E+03  0.24650385748E+03  0.00000000000E+00 0. -1.
         -5    1    3    3    0  503  0.98955234468E+02  0.70787760706E+02  0.61910579227E+02  0.13659449226E+03  0.47000000000E+01 0.  1.
         13    1    4    4    0    0  0.25842146325E+02  0.80805733434E+02  0.16666390744E+02  0.86458959413E+02  0.00000000000E+00 0. -1.
        -14    1    4    4    0    0 -0.45793638784E+02  0.41204836091E+02  0.27116765056E+02  0.67306870508E+02  0.00000000000E+00 0.  1.
</event>
<event>
12    1  0.8358445E-002  0.2182082E+03  0.7818608E-02  0.1135267E+00
         21   -1    0    0  503  502  0.00000000000E+00  0.00000000000E+00  0.92811578301E+03  0.92811578301E+03  0.00000000000E+00 0.  1.
         21   -1    0    0  501  503 -0.00000000000E+00 -0.00000000000E+00 -0.54475950705E+02  0.54475950705E+02  0.00000000000E+00 0.  1.
          6    2    1    2  501    0 -0.40737315781E+02 -0.12858727574E+03  0.31750655980E+03  0.38525994064E+03  0.17152431304E+03 0.  0.
         24    2    3    3    0    0  0.65243705021E+01 -0.12060849781E+03  0.29879592141E+03  0.33359267947E+03  0.86116757900E+02 0.  0.
         -6    2    1    2    0  502  0.40737315781E+02  0.12858727574E+03  0.55613327250E+03  0.59733179308E+03  0.17125080397E+03 0.  0.
        -24    2    5    5    0    0 -0.27358910572E+02  0.10950102175E+03  0.27750399876E+03  0.30982919601E+03  0.79035926132E+02 0.  0.
          5    1    3    3  501    0 -0.47261686283E+02 -0.79787779242E+01  0.18710638396E+02  0.51667261169E+02  0.47000000000E+01 0. -1.
        -11    1    4    4    0    0 -0.25961234055E+02 -0.10907157636E+03  0.24843447348E+03  0.27256243698E+03  0.00000000000E+00 0.  1.
         12    1    4    4    0    0  0.32485604557E+02 -0.11536921449E+02  0.50361447933E+02  0.61030242486E+02  0.00000000000E+00 0. -1.
         -5    1    5    5    0  502  0.68096226353E+02  0.19086253982E+02  0.27862927374E+03  0.28750259707E+03  0.47000000000E+01 0.  1.
         11    1    6    6    0    0 -0.54387341597E+02  0.57424002792E+02  0.16213844366E+03  0.18040059294E+03  0.00000000000E+00 0. -1.
        -12    1    6    6    0    0  0.27028431025E+02  0.52077018962E+02  0.11536555511E+03  0.12942860307E+03  0.00000000000E+00 0.  1.
</event>
<event>
12    1  0.8358445E-002  0.2040796E+03  0.7818608E-02  0.1147861E+00
         21   -1    0    0  503  502  0.00000000000E+00  0.00000000000E+00  0.97423198927E+02  0.97423198927E+02  0.00000000000E+00 0.  1.
         21   -1    0    0  501  503 -0.00000000000E+00 -0.00000000000E+00 -0.79900265952E+03  0.79900265952E+03  0.00000000000E+00 0.  1.
          6    2    1    2  501    0 -0.81295467048E+02 -0.69404415674E+02 -0.35784275790E+02  0.20005548031E+03  0.16527478613E+03 0.  0.
         24    2    3    3    0    0  0.17524186944E+02 -0.15069128718E+02 -0.18807679394E+01  0.82203092687E+02  0.78864665034E+02 0.  0.
         -6    2    1    2    0  502  0.81295467048E+02  0.69404415674E+02 -0.66579518480E+03  0.69637037813E+03  0.17384633893E+03 0.  0.
        -24    2    5    5    0    0  0.31398296170E+01  0.26348118564E+02 -0.50739645996E+03  0.51450670827E+03  0.81005576344E+02 0.  0.
          5    1    3    3  501    0 -0.98819653993E+02 -0.54335286955E+02 -0.33903507850E+02  0.11785238762E+03  0.47000000000E+01 0. -1.
        -13    1    4    4    0    0 -0.47147609117E+01 -0.11605345937E+02 -0.37796312075E+02  0.39818013904E+02  0.00000000000E+00 0.  1.
         14    1    4    4    0    0  0.22238947856E+02 -0.34637827812E+01  0.35915544136E+02  0.42385078783E+02  0.00000000000E+00 0. -1.
         -5    1    5    5    0  502  0.78155637431E+02  0.43056297109E+02 -0.15839872484E+03  0.18186366986E+03  0.47000000000E+01 0.  1.
         11    1    6    6    0    0  0.83961392167E+01 -0.28499961071E+02 -0.15387057156E+03  0.15671278100E+03  0.00000000000E+00 0. -1.
        -12    1    6    6    0    0 -0.52563095996E+01  0.54848079636E+02 -0.35352588839E+03  0.35779392728E+03  0.00000000000E+00 0.  1.
</event>
<event>
12    1  0.8358445E-002  0.2429542E+03  0.7818608E-02  0.1117901E+00
         21   -1    0    0  501  502  0.00000000000E+00  0.00000000000E+00  0.36658550723E+03  0.36658550723E+03  0.00000000000E+00 0.  1.
         21   -1    0    0  502  503 -0.00000000000E+00 -0.00000000000E+00 -0.16146706649E+03  0.16146706649E+03  0.00000000000E+00 0.  1.
         -6    2    1    2    0  503  0.16177723803E+03 -0.57775297326E+02  0.85168448174E+02  0.25710100047E+03  0.17128163986E+03 0.  0.
        -24    2    3    3    0    0  0.30923754808E+02 -0.46556482222E+02  0.82144109210E+02  0.12564860411E+03  0.76916398690E+02 0.  0.
          6    2    1    2  501    0 -0.16177723803E+03  0.57775297326E+02  0.11994999257E+03  0.27095157325E+03  0.17180481543E+03 0.  0.
         24    2    5    5    0    0 -0.17792909717E+03  0.24757219309E+02  0.71102127335E+02  0.20963860588E+03  0.81370443247E+02 0.  0.
          5    1    5    5  501    0  0.16151859147E+02  0.33018078017E+02  0.48847865233E+02  0.61312967369E+02  0.47000000000E+01 0. -1.
        -13    1    6    6    0    0 -0.97879703096E+02  0.52257835117E+02  0.26989656251E+02  0.11419176482E+03  0.00000000000E+00 0.  1.
         14    1    6    6    0    0 -0.80049394076E+02 -0.27500615808E+02  0.44112471085E+02  0.95446841053E+02  0.00000000000E+00 0. -1.
         -5    1    3    3    0  503  0.13085348322E+03 -0.11218815104E+02  0.30243389633E+01  0.13145239636E+03  0.47000000000E+01 0.  1.
         13    1    4    4    0    0 -0.24946820773E+02 -0.15366976809E+02  0.37672777711E+02  0.47725528005E+02  0.00000000000E+00 0. -1.
        -14    1    4    4    0    0  0.55870575581E+02 -0.31189505414E+02  0.44471331499E+02  0.77923076101E+02  0.00000000000E+00 0.  1.
</event>
<event>
12    1  0.8358445E-002  0.1778244E+03  0.7818608E-02  0.1170363E+00
         21   -1    0    0  501  502  0.00000000000E+00  0.00000000000E+00  0.16108805618E+03  0.16108805618E+03  0.00000000000E+00 0.  1.
         21   -1    0    0  502  503 -0.00000000000E+00 -0.00000000000E+00 -0.35332668039E+03  0.35332668039E+03  0.00000000000E+00 0.  1.
         -6    2    1    2    0  503  0.18690263845E+02  0.34043191212E+02 -0.26891309201E+03  0.32239071072E+03  0.17353171028E+03 0.  0.
        -24    2    3    3    0    0 -0.88275695602E+01 -0.44671263666E+02 -0.11167170246E+03  0.14434537618E+03  0.79319422045E+02 0.  0.
          6    2    1    2  501    0 -0.18690263845E+02 -0.34043191212E+02  0.76674467793E+02  0.19202402585E+03  0.17171484404E+03 0.  0.
         24    2    5    5    0    0  0.20916065864E+02 -0.35073292896E+02  0.10919511482E+03  0.14055165515E+03  0.78508451635E+02 0.  0.
          5    1    5    5  501    0 -0.39606329709E+02  0.10301016837E+01 -0.32520647030E+02  0.51472370703E+02  0.47000000000E+01 0. -1.
        -13    1    6    6    0    0  0.46698803736E+02 -0.14309971024E+02  0.37482143825E+02  0.61566749523E+02  0.00000000000E+00 0.  1.
         14    1    6    6    0    0 -0.25782737873E+02 -0.20763321872E+02  0.71712970998E+02  0.78984905626E+02  0.00000000000E+00 0. -1.
         -5    1    3    3    0  503  0.27517833406E+02  0.78714454878E+02 -0.15724138955E+03  0.17804533454E+03  0.47000000000E+01 0.  1.
         11    1    4    4    0    0 -0.10249304636E+02 -0.34916650439E+01 -0.10127186136E+03  0.10184905436E+03  0.00000000000E+00 0. -1.
        -12    1    4    4    0    0  0.14217350759E+01 -0.41179598623E+02 -0.10399841091E+02  0.42496321818E+02  0.00000000000E+00 0.  1.
</event>
<event>
12    1  0.8358445E-002  0.1745532E+03  0.7818608E-02  0.1173226E+00
         21   -1    0    0  501  502  0.00000000000E+00  0.00000000000E+00  0.48638676511E+02  0.48638676511E+02  0.00000000000E+00 0.  1.
         21   -1    0    0  502  503 -0.00000000000E+00 -0.00000000000E+00 -0.86015319084E+03  0.86015319084E+03  0.00000000000E+00 0.  1.
         -6    2    1    2    0  503  0.95845216913E+01 -0.24737580901E+02 -0.16841903124E+03  0.24242813436E+03  0.17234447853E+03 0.  0.
        -24    2    3    3    0    0  0.50778414419E+02  0.19627373239E+02 -0.15121973755E+03  0.17931639490E+03  0.79519049944E+02 0.  0.
          6    2    1    2  501    0 -0.95845216913E+01  0.24737580901E+02 -0.64309548309E+03  0.66636373299E+03  0.17252539902E+03 0.  0.
         24    2    5    5    0    0  0.52605773053E+01  0.61003022672E+02 -0.59733099543E+03  0.60593164249E+03  0.81239121267E+02 0.  0.
          5    1    5    5  501    0 -0.14845098997E+02 -0.36265441771E+02 -0.45764487664E+02  0.60432090500E+02  0.47000000000E+01 0. -1.
        -13    1    6    6    0    0  0.42290451410E+02  0.43040253599E+02 -0.37495326796E+03  0.37977743333E+03  0.00000000000E+00 0.  1.
         14    1    6    6    0    0 -0.37029874104E+02  0.17962769073E+02 -0.22237772747E+03  0.22615420916E+03  0.00000000000E+00 0. -1.
         -5    1    3    3    0  503 -0.41193892728E+02 -0.44364954140E+02 -0.17199293682E+02  0.63111739455E+02  0.47000000000E+01 0.  1.
         13    1    4    4    0    0  0.26548222913E+02  0.12432522792E+02 -0.35848842610E+01  0.29533492140E+02  0.00000000000E+00 0. -1.
        -14    1    4    4    0    0  0.24230191506E+02  0.71948504477E+01 -0.14763485329E+03  0.14978290276E+03  0.00000000000E+00 0.  1.
</event>
<event>
12    1  0.8358445E-002  0.2952824E+03  0.7818608E-02  0.1088085E+00
         21   -1    0    0  503  502  0.00000000000E+00  0.00000000000E+00  0.42495517619E+02  0.42495517619E+02  0.00000000000E+00 0.  1.
         21   -1    0    0  501  503 -0.00000000000E+00 -0.00000000000E+00 -0.20271579959E+04  0.20271579959E+04  0.00000000000E+00 0. -1.
          6    2    1    2  501    0 -0.23307727217E+03  0.43942761695E+02 -0.10107906532E+04  0.10530381864E+04  0.17588546349E+03 0.  0.
         24    2    3    3    0    0 -0.24672314627E+03  0.11090108386E+02 -0.91389606482E+03  0.94971269114E+03  0.75847722500E+02 0.  0.
         -6    2    1    2    0  502  0.23307727217E+03 -0.43942761695E+02 -0.97387182509E+03  0.10166153271E+04  0.16977753260E+03 0.  0.
        -24    2    5    5    0    0  0.16757291355E+03 -0.97954684416E+02 -0.69663902441E+03  0.72663563033E+03  0.70835071650E+02 0.  0.
          5    1    3    3  501    0  0.13645874096E+02  0.32852653309E+02 -0.96894588373E+02  0.10332549523E+03  0.47000000000E+01 0. -1.
        -13    1    4    4    0    0 -0.21973062098E+03  0.14129598602E+01 -0.69402194990E+03  0.72797665429E+03  0.00000000000E+00 0.  1.
         14    1    4    4    0    0 -0.26992525295E+02  0.96771485261E+01 -0.21987411492E+03  0.22173603685E+03  0.00000000000E+00 0. -1.
         -5    1    5    5    0  502  0.65504358624E+02  0.54011922721E+02 -0.27723280068E+03  0.28997969682E+03  0.47000000000E+01 0.  1.
         11    1    6    6    0    0  0.69435572357E+02 -0.52129994418E+02 -0.43292997932E+03  0.44155090535E+03  0.00000000000E+00 0. -1.
        -12    1    6    6    0    0  0.98137341193E+02 -0.45824689998E+02 -0.26370904509E+03  0.28508472497E+03  0.00000000000E+00 0.  1.
</event>
<event>
12    1  0.8358445E-002  0.1860233E+03  0.7818608E-02  0.1162466E+00
         21   -1    0    0  501  502  0.00000000000E+00  0.00000000000E+00  0.10941256148E+03  0.10941256148E+03  0.00000000000E+00 0. -1.
         21   -1    0    0  502  503 -0.00000000000E+00 -0.00000000000E+00 -0.50111668369E+03  0.50111668369E+03  0.00000000000E+00 0. -1.
         -6    2    1    2    0  503  0.69318492610E+02 -0.85958738121E+01 -0.38206750279E+03  0.42425650756E+03  0.17070168439E+03 0.  0.
        -24    2    3    3    0    0  0.10898096658E+03 -0.47646178065E+01 -0.33170678568E+03  0.35986642920E+03  0.87033916016E+02 0.  0.
          6    2    1    2  501    0 -0.69318492610E+02  0.85958738121E+01 -0.96366194183E+01  0.18627273761E+03  0.17241150159E+03 0.  0.
         24    2    5    5    0    0 -0.44529327436E+01  0.17179503108E+02 -0.61940656050E+02  0.10237385921E+03  0.79553744359E+02 0.  0.
          5    1    5    5  501    0 -0.64865559866E+02 -0.85836292963E+01  0.52304036632E+02  0.83898878399E+02  0.47000000000E+01 0. -1.
        -11    1    6    6    0    0  0.58146204844E+01  0.46056500709E+02 -0.52984316535E+02  0.70443941312E+02  0.00000000000E+00 0.  1.
         12    1    6    6    0    0 -0.10267553228E+02 -0.28876997601E+02 -0.89563395152E+01  0.31929917902E+02  0.00000000000E+00 0. -1.
         -5    1    3    3    0  503 -0.39662473967E+02 -0.38312560055E+01 -0.50360717108E+02  0.64390078362E+02  0.47000000000E+01 0.  1.
         13    1    4    4    0    0  0.85775380030E+02  0.29650655340E+02 -0.16763366775E+03  0.19062429999E+03  0.00000000000E+00 0. -1.
        -14    1    4    4    0    0  0.23205586548E+02 -0.34415273146E+02 -0.16407311793E+03  0.16924212921E+03  0.00000000000E+00 0.  1.
</event>
<event>
12    1  0.8358445E-002  0.2830725E+03  0.7818608E-02  0.1094079E+00
         21   -1    0    0  501  502  0.00000000000E+00  0.00000000000E+00  0.45911029821E+03  0.45911029821E+03  0.00000000000E+00 0. -1.
         21   -1    0    0  502  503 -0.00000000000E+00 -0.00000000000E+00 -0.58094174396E+03  0.58094174396E+03  0.00000000000E+00 0.  1.
         -6    2    1    2    0  503 -0.22389773865E+03  0.17954456095E+02 -0.49599109711E+03  0.57087669675E+03  0.17158226777E+03 0.  0.
        -24    2    3    3    0    0 -0.37676313316E+02  0.49092143563E+01 -0.24005547695E+03  0.25405856398E+03  0.73996736058E+02 0.  0.
          6    2    1    2  501    0  0.22389773865E+03 -0.17954456095E+02  0.37415965136E+03  0.46917534543E+03  0.17227158845E+03 0.  0.
         24    2    5    5    0    0  0.63681837254E+02 -0.57103739425E+02  0.12680755213E+03  0.17184227893E+03  0.78316027067E+02 0.  0.
          5    1    5    5  501    0  0.16021590140E+03  0.39149283331E+02  0.24735209922E+03  0.29733306650E+03  0.47000000000E+01 0. -1.
        -13    1    6    6    0    0  0.67913757019E+02 -0.19015375813E+02  0.51443772810E+02  0.87294471020E+02  0.00000000000E+00 0.  1.
         14    1    6    6    0    0 -0.42319197649E+01 -0.38088363613E+02  0.75363779324E+02  0.84547807905E+02  0.00000000000E+00 0. -1.
         -5    1    3    3    0  503 -0.18622142533E+03  0.13045241738E+02 -0.25593562016E+03  0.31681813277E+03  0.47000000000E+01 0.  1.
         13    1    4    4    0    0 -0.50532786480E+02 -0.20466165571E+02 -0.16621864458E+03  0.17493159877E+03  0.00000000000E+00 0. -1.
        -14    1    4    4    0    0  0.12856473165E+02  0.25375379928E+02 -0.73836832370E+02  0.79126965209E+02  0.00000000000E+00 0.  1.
</event>
<event>
12    1  0.8358445E-002  0.1950149E+03  0.7818608E-02  0.1155341E+00
         21   -1    0    0  501  502  0.00000000000E+00  0.00000000000E+00  0.13474717323E+04  0.13474717323E+04  0.00000000000E+00 0.  1.
         21   -1    0    0  502  503 -0.00000000000E+00 -0.00000000000E+00 -0.10794613329E+03  0.10794613329E+03  0.00000000000E+00 0.  1.
         -6    2    1    2    0  503  0.11781723673E+01 -0.69650040304E+02 -0.65117537980E+01  0.19512358261E+03  0.18214909648E+03 0.  0.
        -24    2    3    3    0    0 -0.48219623707E+02 -0.78792055737E+02  0.38304458393E+02  0.12763801691E+03  0.79315267574E+02 0.  0.
          6    2    1    2  501    0 -0.11781723673E+01  0.69650040304E+02  0.12460373528E+04  0.12602942830E+04  0.17572728559E+03 0.  0.
         24    2    5    5    0    0 -0.10998129453E+01  0.61093230507E+01  0.10707111792E+04  0.10737499557E+04  0.80486052679E+02 0.  0.
          5    1    5    5  501    0 -0.78359421991E-01  0.63540717253E+02  0.17532617368E+03  0.18654432735E+03  0.47000000000E+01 0. -1.
        -11    1    6    6    0    0  0.26419475050E+02  0.32976714997E+02  0.55186414413E+03  0.55347943591E+03  0.00000000000E+00 0.  1.
         12    1    6    6    0    0 -0.27519287995E+02 -0.26867391946E+02  0.51884703503E+03  0.52027051975E+03  0.00000000000E+00 0. -1.
         -5    1    3    3    0  503  0.49397796074E+02  0.91420154336E+01 -0.44816212191E+02  0.67485565704E+02  0.47000000000E+01 0.  1.
         11    1    4    4    0    0  0.17641701231E+02  0.13597337004E+01  0.89271730242E+01  0.19818499344E+02  0.00000000000E+00 0. -1.
        -12    1    4    4    0    0 -0.65861324938E+02 -0.80151789438E+02  0.29377285369E+02  0.10781951757E+03  0.00000000000E+00 0.  1.
</event>
<event>
12    1  0.8358445E-002  0.3201923E+03  0.7818608E-02  0.1075895E+00
         21   -1    0    0  503  502  0.00000000000E+00  0.00000000000E+00  0.52213349427E+03  0.52213349427E+03  0.00000000000E+00 0.  1.
         21   -1    0    0  501  503 -0.00000000000E+00 -0.00000000000E+00 -0.37806559907E+03  0.37806559907E+03  0.00000000000E+00 0. -1.
          6    2    1    2  501    0 -0.24127384788E+03 -0.10222015878E+03 -0.24169499616E+03  0.39886473604E+03  0.17892617461E+03 0.  0.
         24    2    3    3    0    0 -0.47522096798E+02 -0.59305913188E+02 -0.13363436736E+03  0.17285464110E+03  0.79025576781E+02 0.  0.
         -6    2    1    2    0  502  0.24127384788E+03  0.10222015878E+03  0.38576289136E+03  0.50133435729E+03  0.18401385524E+03 0.  0.
        -24    2    5    5    0    0  0.20973973607E+03  0.12408747639E+03  0.38532719933E+03  0.46267094286E+03  0.78733043526E+02 0.  0.
          5    1    3    3  501    0 -0.19375175108E+03 -0.42914245589E+02 -0.10806062879E+03  0.22601009495E+03  0.47000000000E+01 0. -1.
        -13    1    4    4    0    0 -0.65485452758E+02 -0.63262890863E+02 -0.11484883996E+03  0.14656327618E+03  0.00000000000E+00 0.  1.
         14    1    4    4    0    0  0.17963355960E+02  0.39569776751E+01 -0.18785527404E+02  0.26291364923E+02  0.00000000000E+00 0. -1.
         -5    1    5    5    0  502  0.31534111816E+02 -0.21867317617E+02  0.43569202906E+00  0.38663414429E+02  0.47000000000E+01 0.  1.
         11    1    6    6    0    0 -0.42857154397E+01  0.10606213746E+02  0.69377848816E+01  0.13378788657E+02  0.00000000000E+00 0. -1.
        -12    1    6    6    0    0  0.21402545151E+03  0.11348126265E+03  0.37838941445E+03  0.44929215421E+03  0.00000000000E+00 0.  1.
</event>
<event>
12    1  0.8358445E-002  0.2226258E+03  0.7818608E-02  0.1132080E+00
         21   -1    0    0  501  502  0.00000000000E+00  0.00000000000E+00  0.10969312673E+03  0.10969312673E+03  0.00000000000E+00 0. -1.
         21   -1    0    0  502  503 -0.00000000000E+00 -0.00000000000E+00 -0.52627196943E+03  0.52627196943E+03  0.00000000000E+00 0.  1.
         -6    2    1    2    0  503 -0.13553626323E+03  0.38625783994E+02 -0.87162292383E+02  0.23837546264E+03  0.17135800575E+03 0.  0.
        -24    2    3    3    0    0 -0.72526933984E+01 -0.34987143955E+01 -0.54842222618E+02  0.99458852537E+02  0.82580575212E+02 0.  0.
          6    2    1    2  501    0  0.13553626323E+03 -0.38625783994E+02 -0.32941655032E+03  0.39758963352E+03  0.17233752702E+03 0.  0.
         24    2    5    5    0    0  0.13388263762E+03  0.16090921868E+02 -0.29117127893E+03  0.33064605159E+03  0.79766028688E+02 0.  0.
          5    1    5    5  501    0  0.16536256057E+01 -0.54716705863E+02 -0.38245271382E+02  0.66943581927E+02  0.47000000000E+01 0. -1.
        -13    1    6    6    0    0  0.65719543035E+02 -0.27598117444E+02 -0.17580398032E+03  0.18970438561E+03  0.00000000000E+00 0.  1.
         14    1    6    6    0    0  0.68163094586E+02  0.43689039313E+02 -0.11536729861E+03  0.14094166598E+03  0.00000000000E+00 0. -1.
         -5    1    3    3    0  503 -0.12828356983E+03  0.42124498390E+02 -0.32320069764E+02  0.13891661010E+03  0.47000000000E+01 0.  1.
         13    1    4    4    0    0  0.45804954654E+01  0.88201409995E+01 -0.73496459848E+02  0.74165392443E+02  0.00000000000E+00 0. -1.
        -14    1    4    4    0    0 -0.11833188864E+02 -0.12318855395E+02  0.18654237230E+02  0.25293460095E+02  0.00000000000E+00 0.  1.
</event>
<event>
12    1  0.8358445E-002  0.1821814E+03  0.7818608E-02  0.1166127E+00
         21   -1    0    0  501  502  0.00000000000E+00  0.00000000000E+00  0.20347136481E+03  0.20347136481E+03  0.00000000000E+00 0. -1.
         21   -1    0    0  502  503 -0.00000000000E+00 -0.00000000000E+00 -0.16272014435E+03  0.16272014435E+03  0.00000000000E+00 0. -1.
         -6    2    1    2    0  503 -0.17678385159E+02 -0.53462197477E+02  0.50078084695E+01  0.18225025594E+03  0.17326091823E+03 0.  0.
        -24    2    3    3    0    0 -0.68822009412E+02 -0.53510980873E+01  0.26666971203E+02  0.10861902944E+03  0.79510143836E+02 0.  0.
          6    2    1    2  501    0  0.17678385159E+02  0.53462197477E+02  0.35743411985E+02  0.18394125322E+03  0.17142363102E+03 0.  0.
         24    2    5    5    0    0 -0.65706566039E+01  0.97446350033E+02  0.44142904489E+02  0.13280160933E+03  0.78413689883E+02 0.  0.
          5    1    5    5  501    0  0.24249041763E+02 -0.43984152555E+02 -0.83994925042E+01  0.51139643886E+02  0.47000000000E+01 0. -1.
        -13    1    6    6    0    0 -0.40719085764E+02  0.34325229377E+02  0.14858304510E+02  0.55290456050E+02  0.00000000000E+00 0.  1.
         14    1    6    6    0    0  0.34148429160E+02  0.63121120655E+02  0.29284599979E+02  0.77511153280E+02  0.00000000000E+00 0. -1.
         -5    1    3    3    0  503  0.51143624253E+02 -0.48111099390E+02 -0.21659162734E+02  0.73631226505E+02  0.47000000000E+01 0.  1.
         11    1    4    4    0    0 -0.43675854654E+02 -0.37047082685E+02  0.35261936030E+02  0.67256752433E+02  0.00000000000E+00 0. -1.
        -12    1    4    4    0    0 -0.25146154758E+02  0.31695984598E+02 -0.85949648273E+01  0.41362277006E+02  0.00000000000E+00 0.  1.
</event>
<event>
12    1  0.8358445E-002  0.3374711E+03  0.7818608E-02  0.1067909E+00
         21   -1    0    0  503  502  0.00000000000E+00  0.00000000000E+00  0.66898841672E+03  0.66898841672E+03  0.00000000000E+00 0. -1.
         21   -1    0    0  501  503 -0.00000000000E+00 -0.00000000000E+00 -0.17034638797E+03  0.17034638797E+03  0.00000000000E+00 0.  1.
          6    2    1    2  501    0 -0.26469863620E+03  0.11788323040E+03  0.23321702359E+03  0.41021572935E+03  0.17298826692E+03 0.  0.
         24    2    3    3    0    0 -0.20682488397E+03  0.15315640135E+03  0.18420175515E+03  0.32644130409E+03  0.80001390683E+02 0.  0.
         -6    2    1    2    0  502  0.26469863620E+03 -0.11788323040E+03  0.26542500516E+03  0.42911907534E+03  0.17242657405E+03 0.  0.
        -24    2    5    5    0    0  0.15828457229E+03 -0.13617462984E+03  0.18024723389E+03  0.29151140473E+03  0.94298982647E+02 0.  0.
          5    1    3    3  501    0 -0.57873752234E+02 -0.35273170953E+02  0.49015268441E+02  0.83774425257E+02  0.47000000000E+01 0. -1.
        -13    1    4    4    0    0 -0.46880399250E+02  0.72954673957E+02  0.35172486210E+02  0.93580233341E+02  0.00000000000E+00 0.  1.
         14    1    4    4    0    0 -0.15994448472E+03  0.80201727397E+02  0.14902926894E+03  0.23286107075E+03  0.00000000000E+00 0. -1.
         -5    1    5    5    0  502  0.10641406391E+03  0.18291399435E+02  0.85177771267E+02  0.13760767061E+03  0.47000000000E+01 0.  1.
         11    1    6    6    0    0  0.73137697613E+02 -0.15315356616E+02  0.94955767422E+02  0.12083162139E+03  0.00000000000E+00 0. -1.
        -12    1    6    6    0    0  0.85146874675E+02 -0.12085927322E+03  0.85291466467E+02  0.17067978334E+03  0.00000000000E+00 0.  1.
</event>
<event>
12    1  0.8358445E-002  0.2116664E+03  0.7818608E-02  0.1140311E+00
         21   -1    0    0  501  502  0.00000000000E+00  0.00000000000E+00  0.68911809599E+02  0.68911809599E+02  0.00000000000E+00 0.  1.
         21   -1    0    0  502  503 -0.00000000000E+00 -0.00000000000E+00 -0.75854813941E+03  0.75854813941E+03  0.00000000000E+00 0.  1.
         -6    2    1    2    0  503 -0.93881604366E+02  0.80632140803E+02 -0.18796572858E+03  0.28307909899E+03  0.17171884986E+03 0.  0.
        -24    2    3    3    0    0  0.13810830289E+01  0.85552238449E+02 -0.10580833662E+03  0.15709848928E+03  0.78507568681E+02 0.  0.
          6    2    1    2  501    0  0.93881604366E+02 -0.80632140803E+02 -0.50167060123E+03  0.54438085002E+03  0.17135291056E+03 0.  0.
         24    2    5    5    0    0  0.79890479084E+02  0.40416804442E+01 -0.36618769587E+03  0.38393423822E+03  0.83145937033E+02 0.  0.
          5    1    5    5  501    0  0.13991125281E+02 -0.84673821247E+02 -0.13548290536E+03  0.16044661179E+03  0.47000000000E+01 0. -1.
        -13    1    6    6    0    0  0.36280412810E+02 -0.38644060031E+02 -0.14132956670E+03  0.15094263199E+03  0.00000000000E+00 0.  1.
         14    1    6    6    0    0  0.43610066275E+02  0.42685740475E+02 -0.22485812917E+03  0.23299160624E+03  0.00000000000E+00 0. -1.
         -5    1    3    3    0  503 -0.95262687395E+02 -0.49200976461E+01 -0.82157391956E+02  0.12598060971E+03  0.47000000000E+01 0.  1.
         13    1    4    4    0    0 -0.49838719542E+01  0.78350377632E+02 -0.35544338656E+02  0.86180163989E+02  0.00000000000E+00 0. -1.
        -14    1    4    4    0    0  0.63649549831E+01  0.72018608171E+01 -0.70263997969E+02  0.70918325289E+02  0.00000000000E+00 0.  1.
</event>
<event>
12    1  0.8358445E-002  0.1767470E+03  0.7818608E-02  0.1171022E+00
         21   -1    0    0  503  502  0.00000000000E+00  0.00000000000E+00  0.27556367826E+04  0.27556367826E+04  0.00000000000E+00 0.  1.
         21   -1    0    0  501  503 -0.00000000000E+00 -0.00000000000E+00 -0.17480306640E+02  0.17480306640E+02  0.00000000000E+00 0.  1.
          6    2    1    2  501    0  0.10630800593E+02  0.39971451493E+02  0.54615556239E+03  0.57400192417E+03  0.17170200863E+03 0.  0.
         24    2    3    3    0    0 -0.17281921464E+02  0.87662572715E+02  0.34342299090E+03  0.36382069609E+03  0.80266784902E+02 0.  0.
         -6    2    1    2    0  502 -0.10630800593E+02 -0.39971451493E+02  0.21920009136E+04  0.21991151651E+04  0.17183938223E+03 0.  0.
        -24    2    5    5    0    0 -0.34445752292E+02 -0.43399801543E+02  0.68085298520E+03  0.68776839582E+03  0.79965781457E+02 0.  0.
          5    1    3    3  501    0  0.27912722057E+02 -0.47691121221E+02  0.20273257149E+03  0.21018122809E+03  0.47000000000E+01 0. -1.
        -11    1    4    4    0    0 -0.39478349891E+02  0.51420814722E+02  0.28047426326E+03  0.28786881152E+03  0.00000000000E+00 0.  1.
         12    1    4    4    0    0  0.22196428428E+02  0.36241757993E+02  0.62948727642E+02  0.75951884566E+02  0.00000000000E+00 0. -1.
         -5    1    5    5    0  502  0.23814951698E+02  0.34283500500E+01  0.15111479284E+04  0.15113467693E+04  0.47000000000E+01 0.  1.
         11    1    6    6    0    0 -0.41307617129E+01  0.23075070834E+02  0.13073813618E+03  0.13282312426E+03  0.00000000000E+00 0. -1.
        -12    1    6    6    0    0 -0.30314990579E+02 -0.66474872377E+02  0.55011484902E+03  0.55494527156E+03  0.00000000000E+00 0.  1.
</event>
<event>
12    1  0.8358445E-002  0.1991853E+03  0.7818608E-02  0.1150456E+00
         21   -1    0    0  503  502  0.00000000000E+00  0.00000000000E+00  0.40003999260E+02  0.40003999260E+02  0.00000000000E+00 0.  1.
         21   -1    0    0  501  503 -0.00000000000E+00 -0.00000000000E+00 -0.10946524415E+04  0.10946524415E+04  0.00000000000E+00 0.  1.
          6    2    1    2  501    0  0.10705084323E+03 -0.94865849700E+01 -0.70195355830E+03  0.72966675050E+03  0.16770477167E+03 0.  0.
         24    2    3    3    0    0  0.66148349566E+02  0.59987283216E+02 -0.40510785238E+03  0.42203207191E+03  0.77618421524E+02 0.  0.
         -6    2    1    2    0  502 -0.10705084323E+03  0.94865849700E+01 -0.35269488393E+03  0.40498969026E+03  0.16755026031E+03 0.  0.
        -24    2    5    5    0    0 -0.19056290575E+01  0.84905616730E+01 -0.13420978416E+03  0.16247301671E+03  0.91156425629E+02 0.  0.
          5    1    3    3  501    0  0.40902493669E+02 -0.69473868186E+02 -0.29684570592E+03  0.30763467859E+03  0.47000000000E+01 0. -1.
        -11    1    4    4    0    0  0.82320025503E+02  0.37326803046E+02 -0.31652058412E+03  0.32917344515E+03  0.00000000000E+00 0.  1.
         12    1    4    4    0    0 -0.16171675938E+02  0.22660480170E+02 -0.88587268263E+02  0.92858626753E+02  0.00000000000E+00 0. -1.
         -5    1    5    5    0  502 -0.10514521418E+03  0.99602329700E+00 -0.21848509977E+03  0.24251667355E+03  0.47000000000E+01 0.  1.
         13    1    6    6    0    0  0.37507919204E+02  0.15136616094E+02 -0.10626711863E+03  0.11370427279E+03  0.00000000000E+00 0. -1.
        -14    1    6    6    0    0 -0.39413548262E+02 -0.66460544207E+01 -0.27942665537E+02  0.48768743917E+02  0.00000000000E+00 0.  1.
</event>
<event>
12    1  0.8358445E-002  0.2034242E+03  0.7818608E-02  0.1147018E+00
         21   -1    0    0  501  502  0.00000000000E+00  0.00000000000E+00  0.52661482490E+03  0.52661482490E+03  0.00000000000E+00 0. -1.
         21   -1    0    0  502  503 -0.00000000000E+00 -0.00000000000E+00 -0.88301564550E+02  0.88301564550E+02  0.00000000000E+00 0.  1.
         -6    2    1    2    0  503  0.90055382831E+02 -0.60032184010E+02  0.32218132014E+03  0.38067708316E+03  0.17146545861E+03 0.  0.
        -24    2    3    3    0    0 -0.15440586861E+02 -0.16671739652E+02  0.17561976400E+03  0.19490327581E+03  0.81416379121E+02 0.  0.
          6    2    1    2  501    0 -0.90055382831E+02  0.60032184010E+02  0.11613194021E+03  0.23423930629E+03  0.17224282273E+03 0.  0.
         24    2    5    5    0    0 -0.24457059099E+02 -0.73239739465E+01 -0.11689570076E+01  0.83834577052E+02  0.79844107577E+02 0.  0.
          5    1    5    5  501    0 -0.65598323732E+02  0.67356157957E+02  0.11730089721E+03  0.15040472924E+03  0.47000000000E+01 0. -1.
        -11    1    6    6    0    0 -0.42155064607E+01  0.35664520483E+02  0.35368520034E+01  0.36086532642E+02  0.00000000000E+00 0.  1.
         12    1    6    6    0    0 -0.20241552638E+02 -0.42988494430E+02 -0.47058090110E+01  0.47748044410E+02  0.00000000000E+00 0. -1.
         -5    1    3    3    0  503  0.10549596969E+03 -0.43360444358E+02  0.14656155615E+03  0.18577380735E+03  0.47000000000E+01 0.  1.
         11    1    4    4    0    0  0.30096898935E+02  0.71760310186E+01  0.88452558315E+02  0.93707917590E+02  0.00000000000E+00 0. -1.
        -12    1    4    4    0    0 -0.45537485796E+02 -0.23847770671E+02  0.87167205684E+02  0.10119535822E+03  0.00000000000E+00 0.  1.
</event>
<event>
12    1  0.8358445E-002  0.1802408E+03  0.7818608E-02  0.1167998E+00
         21   -1    0    0  503  502  0.00000000000E+00  0.00000000000E+00  0.16674577264E+03  0.16674577264E+03  0.00000000000E+00 0.  1.
         21   -1    0    0  501  503 -0.00000000000E+00 -0.00000000000E+00 -0.21682233445E+03  0.21682233445E+03  0.00000000000E+00 0.  1.
          6    2    1    2  501    0  0.13590347325E+02 -0.42988954017E+02 -0.88596288343E+02  0.19925722310E+03  0.17268871110E+03 0.  0.
         24    2    3    3    0    0  0.66796025397E+02  0.11021324176E+02 -0.56870714710E+02  0.11693738131E+03  0.76530349277E+02 0.  0.
         -6    2    1    2    0  502 -0.13590347325E+02  0.42988954017E+02  0.38519726541E+02  0.18431088399E+03  0.17451070144E+03 0.  0.
        -24    2    5    5    0    0 -0.75677149514E+02  0.37746226382E+02  0.31228666884E+02  0.12140216639E+03  0.81310809886E+02 0.  0.
          5    1    3    3  501    0 -0.53205678073E+02 -0.54010278193E+02 -0.31725573633E+02  0.82319841788E+02  0.47000000000E+01 0. -1.
        -11    1    4    4    0    0  0.29842801350E+02  0.30640124904E+01 -0.70609190864E+02  0.76717917069E+02  0.00000000000E+00 0.  1.
         12    1    4    4    0    0  0.36953224047E+02  0.79573116858E+01  0.13738476154E+02  0.40219464240E+02  0.00000000000E+00 0. -1.
         -5    1    5    5    0  502  0.62086802190E+02  0.52427276352E+01  0.72910596567E+01  0.62908717600E+02  0.47000000000E+01 0.  1.
         13    1    6    6    0    0 -0.23434777903E+02  0.56970739631E+02  0.14683933200E+02  0.63328286600E+02  0.00000000000E+00 0. -1.
        -14    1    6    6    0    0 -0.52242371611E+02 -0.19224513249E+02  0.16544733685E+02  0.58073879791E+02  0.00000000000E+00 0.  1.
</event>
<event>
12    1  0.8358445E-002  0.1858111E+03  0.7818608E-02  0.1162736E+00
         21   -1    0    0  501  502  0.00000000000E+00  0.00000000000E+00  0.18600686668E+03  0.18600686668E+03  0.00000000000E+00 0. -1.
         21   -1    0    0  502  503 -0.00000000000E+00 -0.00000000000E+00 -0.51764990616E+03  0.51764990616E+03  0.00000000000E+00 0. -1.
         -6    2    1    2    0  503  0.68540248655E+02 -0.15814805268E+02 -0.44869518462E+03  0.48564714100E+03  0.17198227558E+03 0.  0.
        -24    2    3    3    0    0  0.76906177705E+02 -0.46974934003E+02 -0.19238721317E+03  0.22727375108E+03  0.80742266163E+02 0.  0.
          6    2    1    2  501    0 -0.68540248655E+02  0.15814805268E+02  0.11705214514E+03  0.21800963183E+03  0.16993858049E+03 0.  0.
         24    2    5    5    0    0 -0.17072833072E+02 -0.47855606720E+02  0.35499521609E+02  0.10235611207E+03  0.81454999356E+02 0.  0.
          5    1    5    5  501    0 -0.51467415584E+02  0.63670411988E+02  0.81552623527E+02  0.11565351976E+03  0.47000000000E+01 0. -1.
        -13    1    6    6    0    0  0.10141144958E+02  0.14906699766E+02 -0.95934482147E+01  0.20422702260E+02  0.00000000000E+00 0.  1.
         14    1    6    6    0    0 -0.27213978029E+02 -0.62762306485E+02  0.45092969824E+02  0.81933409810E+02  0.00000000000E+00 0. -1.
         -5    1    3    3    0  503 -0.83659290499E+01  0.31160128735E+02 -0.25630797145E+03  0.25837338992E+03  0.47000000000E+01 0.  1.
         11    1    4    4    0    0  0.59714124284E+01 -0.17276931649E+02 -0.12091219910E+03  0.12228618084E+03  0.00000000000E+00 0. -1.
        -12    1    4    4    0    0  0.70934765277E+02 -0.29698002354E+02 -0.71475014077E+02  0.10498757025E+03  0.00000000000E+00 0.  1.
</event>
<event>
12    1  0.8358445E-002  0.1804629E+03  0.7818608E-02  0.1167606E+00
         21   -1    0    0  501  502  0.00000000000E+00  0.00000000000E+00  0.14219527070E+03  0.14219527070E+03  0.00000000000E+00 0. -1.
         21   -1    0    0  502  503 -0.00000000000E+00 -0.00000000000E+00 -0.22777419955E+03  0.22777419955E+03  0.00000000000E+00 0. -1.
         -6    2    1    2    0  503 -0.39049167683E+02  0.36529714137E+02 -0.45606137254E+02  0.18513253265E+03  0.17127427530E+03 0.  0.
        -24    2    3    3    0    0 -0.77620018220E+02  0.49266970049E+02  0.27217366617E+01  0.12182675411E+03  0.79888976713E+02 0.  0.
          6    2    1    2  501    0  0.39049167683E+02 -0.36529714137E+02 -0.39972791599E+02  0.18483693761E+03  0.17235896241E+03 0.  0.
         24    2    5    5    0    0  0.62489461207E+02 -0.72108676027E+02 -0.54754164508E+02  0.13949502681E+03  0.85768584303E+02 0.  0.
          5    1    5    5  501    0 -0.23440293524E+02  0.35578961889E+02  0.14781372909E+02  0.45341910797E+02  0.47000000000E+01 0. -1.
        -11    1    6    6    0    0  0.22702449316E+02 -0.26125876816E+02  0.22424046608E+02  0.41240762731E+02  0.00000000000E+00 0.  1.
         12    1    6    6    0    0  0.39787011890E+02 -0.45982799211E+02 -0.77178211117E+02  0.98254264078E+02  0.00000000000E+00 0. -1.
         -5    1    3    3    0  503  0.38570850537E+02 -0.12737255912E+02 -0.48327873916E+02  0.63305778540E+02  0.47000000000E+01 0.  1.
         13    1    4    4    0    0 -0.19295607386E+01 -0.15013853844E+02  0.15547015458E+02  0.21699048402E+02  0.00000000000E+00 0. -1.
        -14    1    4    4    0    0 -0.75690457481E+02  0.64280823893E+02 -0.12825278796E+02  0.10012770571E+03  0.00000000000E+00 0.  1.
</event>
<event>
12    1  0.8358445E-002  0.3087353E+03  0.7818608E-02  0.1080982E+00
         21   -1    0    0  503  502  0.00000000000E+00  0.00000000000E+00  0.31497921438E+03  0.31497921438E+03  0.00000000000E+00 0. -1.
         21   -1    0    0  501  503 -0.00000000000E+00 -0.00000000000E+00 -0.30270404365E+03  0.30270404365E+03  0.00000000000E+00 0.  1.
          6    2    1    2  501    0  0.13199905226E+03 -0.21989870533E+03  0.16144277071E+02  0.30915710438E+03  0.17186706230E+03 0.  0.
         24    2    3    3    0    0  0.10436258787E+03 -0.21048801968E+03  0.61171503974E+02  0.25528803783E+03  0.78951080966E+02 0.  0.
         -6    2    1    2    0  502 -0.13199905226E+03  0.21989870533E+03 -0.38691063364E+01  0.30852615364E+03  0.17144744703E+03 0.  0.
        -24    2    5    5    0    0 -0.34914362256E+02  0.35221772002E+02  0.28011527802E+02  0.97411323348E+02  0.79023631351E+02 0.  0.
          5    1    3    3  501    0  0.27636464393E+02 -0.94106856531E+01 -0.45027226903E+02  0.53869066552E+02  0.47000000000E+01 0. -1.
        -11    1    4    4    0    0  0.31637145062E+02 -0.10540038603E+03 -0.73273159475E+01  0.11028979954E+03  0.00000000000E+00 0.  1.
         12    1    4    4    0    0  0.72725442810E+02 -0.10508763365E+03  0.68498819922E+02  0.14499823829E+03  0.00000000000E+00 0. -1.
         -5    1    5    5    0  502 -0.97084690008E+02  0.18467693333E+03 -0.31880634138E+02  0.21111483030E+03  0.47000000000E+01 0.  1.
         13    1    6    6    0    0 -0.49395200285E+02  0.49745935260E+02  0.11413479958E+02  0.71026835850E+02  0.00000000000E+00 0. -1.
        -14    1    6    6    0    0  0.14480838029E+02 -0.14524163258E+02  0.16598047844E+02  0.26384487499E+02  0.00000000000E+00 0.  1.
</event>
<event>
12    1  0.8358445E-002  0.1830846E+03  0.7818608E-02  0.1165441E+00
         21   -1    0    0  503  502  0.00000000000E+00  0.00000000000E+00  0.18056156166E+03  0.18056156166E+03  0.00000000000E+00 0. -1.
         21   -1    0    0  501  503 -0.00000000000E+00 -0.00000000000E+00 -0.34999092748E+03  0.34999092748E+03  0.00000000000E+00 0. -1.
          6    2    1    2  501    0 -0.38207880502E+02 -0.45049601106E+02 -0.26817591334E+03  0.32471261779E+03  0.17329355143E+03 0.  0.
         24    2    3    3    0    0 -0.38769565350E+01 -0.87463826379E+02 -0.12539708303E+03  0.17178955469E+03  0.78244942013E+02 0.  0.
         -6    2    1    2    0  502  0.38207880502E+02  0.45049601106E+02  0.98746547525E+02  0.20583987135E+03  0.17067472952E+03 0.  0.
        -24    2    5    5    0    0  0.43353853511E+02 -0.45909425596E+01  0.12318830403E+03  0.15007111598E+03  0.73792602851E+02 0.  0.
          5    1    3    3  501    0 -0.34330923967E+02  0.42414225274E+02 -0.14277883031E+03  0.15292306311E+03  0.47000000000E+01 0. -1.
        -11    1    4    4    0    0 -0.31438319593E+02 -0.48134259729E+02 -0.29681881284E+02  0.64701537656E+02  0.00000000000E+00 0.  1.
         12    1    4    4    0    0  0.27561363058E+02 -0.39329566650E+02 -0.95715201745E+02  0.10708801703E+03  0.00000000000E+00 0. -1.
         -5    1    5    5    0  502 -0.51459730091E+01  0.49640543665E+02 -0.24441756503E+02  0.55768755361E+02  0.47000000000E+01 0.  1.
         11    1    6    6    0    0  0.34895527503E+02  0.31610907930E+02  0.82233551639E+02  0.94759191402E+02  0.00000000000E+00 0. -1.
        -12    1    6    6    0    0  0.84583260085E+01 -0.36201850490E+02  0.40954752389E+02  0.55311924582E+02  0.00000000000E+00 0.  1.
</event>
<event>
12    1  0.8358445E-002  0.2457573E+03  0.7818608E-02  0.1116266E+00
         21   -1    0    0  501  502  0.00000000000E+00  0.00000000000E+00  0.55740229393E+03  0.55740229393E+03  0.00000000000E+00 0.  1.
         21   -1    0    0  502  503 -0.00000000000E+00 -0.00000000000E+00 -0.11874817599E+03  0.11874817599E+03  0.00000000000E+00 0.  1.
         -6    2    1    2    0  503  0.35729344629E+02 -0.16922181060E+03  0.11670887451E+03  0.27206178872E+03  0.17459681624E+03 0.  0.
        -24    2    3    3    0    0  0.47959829489E+02 -0.14049978743E+03  0.14995308755E+03  0.22621631919E+03  0.81532564615E+02 0.  0.
          6    2    1    2  501    0 -0.35729344629E+02  0.16922181060E+03  0.32194524343E+03  0.40408868120E+03  0.17241321081E+03 0.  0.
         24    2    5    5    0    0 -0.42061186663E+02  0.16447731146E+02  0.12253415139E+03  0.15275844983E+03  0.79251841958E+02 0.  0.
          5    1    5    5  501    0  0.63318420340E+01  0.15277407945E+03  0.19941109204E+03  0.25133023137E+03  0.47000000000E+01 0. -1.
        -11    1    6    6    0    0 -0.75002151713E+01  0.13562216452E+02 -0.81782264324E+01  0.17523422334E+02  0.00000000000E+00 0.  1.
         12    1    6    6    0    0 -0.34560971492E+02  0.28855146948E+01  0.13071237782E+03  0.13523502750E+03  0.00000000000E+00 0. -1.
         -5    1    3    3    0  503 -0.12230484860E+02 -0.28722023172E+02 -0.33244213041E+02  0.45845469522E+02  0.47000000000E+01 0.  1.
         13    1    4    4    0    0  0.18147321557E+02 -0.48885260495E+02  0.52965879943E+01  0.52413240863E+02  0.00000000000E+00 0. -1.
        -14    1    4    4    0    0  0.29812507932E+02 -0.91614526932E+02  0.14465649955E+03  0.17380307833E+03  0.00000000000E+00 0.  1.
</event>
<event>
12    1  0.8358445E-002  0.2185857E+03  0.7818608E-02  0.1135138E+00
         21   -1    0    0  503  502  0.00000000000E+00  0.00000000000E+00  0.30353870027E+03  0.30353870027E+03  0.00000000000E+00 0.  1.
         21   -1    0    0  501  503 -0.00000000000E+00 -0.00000000000E+00 -0.26090142311E+03  0.26090142311E+03  0.00000000000E+00 0.  1.
          6    2    1    2  501    0 -0.34619939295E+01  0.13475839858E+03 -0.15703953304E+03  0.26914891376E+03  0.17206949599E+03 0.  0.
         24    2    3    3    0    0 -0.59509137427E+02  0.73134404821E+02 -0.13551710954E+03  0.18298567557E+03  0.78923329141E+02 0.  0.
         -6    2    1    2    0  502  0.34619939295E+01 -0.13475839858E+03  0.19967681020E+03  0.29529120962E+03  0.17074618169E+03 0.  0.
        -24    2    5    5    0    0 -0.49478067209E+02 -0.12051826299E+02  0.92064119298E+02  0.12364583626E+03  0.64955100728E+02 0.  0.
          5    1    3    3  501    0  0.56047143498E+02  0.61623993758E+02 -0.21522423501E+02  0.86163238184E+02  0.47000000000E+01 0. -1.
        -11    1    4    4    0    0 -0.22594534281E+02  0.81803626739E+02 -0.98081092717E+02  0.12970060553E+03  0.00000000000E+00 0.  1.
         12    1    4    4    0    0 -0.36914603146E+02 -0.86692219182E+01 -0.37436016819E+02  0.53285070042E+02  0.00000000000E+00 0. -1.
         -5    1    5    5    0  502  0.52940061138E+02 -0.12270657228E+03  0.10761269090E+03  0.17164537336E+03  0.47000000000E+01 0.  1.
         13    1    6    6    0    0 -0.13445264434E+02  0.65454795488E+00 -0.86005642313E+01  0.15974143915E+02  0.00000000000E+00 0. -1.
        -14    1    6    6    0    0 -0.36032802775E+02 -0.12706374254E+02  0.10066468353E+03  0.10767169235E+03  0.00000000000E+00 0.  1.
</event>
<event>
12    1  0.8358445E-002  0.2095654E+03  0.7818608E-02  0.1142348E+00
         21   -1    0    0  501  502  0.00000000000E+00  0.00000000000E+00  0.48974499395E+03  0.48974499395E+03  0.00000000000E+00 0. -1.
         21   -1    0    0  502  503 -0.00000000000E+00 -0.00000000000E+00 -0.88893734947E+02  0.88893734947E+02  0.00000000000E+00 0. -1.
         -6    2    1    2    0  503  0.11426385844E+03  0.27574120565E+02  0.18938273050E+03  0.28245971072E+03  0.17349670918E+03 0.  0.
        -24    2    3    3    0    0  0.13765328083E+01  0.31757656080E+01  0.12685781230E+03  0.15104326042E+03  0.81909594345E+02 0.  0.
          6    2    1    2  501    0 -0.11426385844E+03 -0.27574120565E+02  0.21146852850E+03  0.29617901818E+03  0.17084060053E+03 0.  0.
         24    2    5    5    0    0 -0.28790342900E+02  0.11950089178E+02  0.30416228181E+02  0.92046927444E+02  0.81091315438E+02 0.  0.
          5    1    5    5  501    0 -0.85473515545E+02 -0.39524209742E+02  0.18105230032E+03  0.20413209073E+03  0.47000000000E+01 0. -1.
        -13    1    6    6    0    0  0.12348873710E+02 -0.24923711275E+02 -0.21818140728E+01  0.27900651933E+02  0.00000000000E+00 0.  1.
         14    1    6    6    0    0 -0.41139216610E+02  0.36873800453E+02  0.32598042254E+02  0.64146275511E+02  0.00000000000E+00 0. -1.
         -5    1    3    3    0  503  0.11288732564E+03  0.24398354956E+02  0.62524918198E+02  0.13141645030E+03  0.47000000000E+01 0.  1.
         11    1    4    4    0    0 -0.10939211230E+02 -0.36493799264E+02  0.42917813404E+02  0.57388173298E+02  0.00000000000E+00 0. -1.
        -12    1    4    4    0    0  0.12315744038E+02  0.39669564872E+02  0.83939998899E+02  0.93655087120E+02  0.00000000000E+00 0.  1.
</event>
<event>
12    1  0.8358445E-002  0.1856043E+03  0.7818608E-02  0.1162988E+00
         21   -1    0    0  503  502  0.00000000000E+00  0.00000000000E+00  0.24589885861E+02  0.24589885861E+02  0.00000000000E+00 0. -1.
         21   -1    0    0  501  503 -0.00000000000E+00 -0.00000000000E+00 -0.20191538852E+04  0.20191538852E+04  0.00000000000E+00 0.  1.
          6    2    1    2  501    0  0.31910466896E+02 -0.58070469056E+02 -0.15740113966E+04  0.15849166618E+04  0.17337384705E+03 0.  0.
         24    2    3    3    0    0  0.58062771404E+02 -0.61741146780E+02 -0.15209012884E+04  0.15254171618E+04  0.81077331877E+02 0.  0.
         -6    2    1    2    0  502 -0.31910466896E+02  0.58070469056E+02 -0.42055260273E+03  0.45882710929E+03  0.17107707994E+03 0.  0.
        -24    2    5    5    0    0 -0.43138605639E+02  0.99008977924E+02 -0.36300325223E+03  0.38716086653E+03  0.80364534702E+02 0.  0.
          5    1    3    3  501    0 -0.26152304508E+02  0.36706777237E+01 -0.53110108177E+02  0.59499499969E+02  0.47000000000E+01 0. -1.
        -13    1    4    4    0    0  0.12110788138E+02 -0.63064361653E+02 -0.61340166446E+03  0.61675391110E+03  0.00000000000E+00 0.  1.
         14    1    4    4    0    0  0.45951983266E+02  0.13232148729E+01 -0.90749962399E+03  0.90866325072E+03  0.00000000000E+00 0. -1.
         -5    1    5    5    0  502  0.11228138743E+02 -0.40938508868E+02 -0.57549350504E+02  0.71666242760E+02  0.47000000000E+01 0.  1.
         13    1    6    6    0    0 -0.81144166979E+01  0.24500973117E+02 -0.15649439004E+02  0.30183544907E+02  0.00000000000E+00 0. -1.
        -14    1    6    6    0    0 -0.35024188941E+02  0.74508004807E+02 -0.34735381323E+03  0.35697732162E+03  0.00000000000E+00 0.  1.
</event>
<event>
12    1  0.8358445E-002  0.2823921E+03  0.7818608E-02  0.1094532E+00
         21   -1    0    0  503  502  0.00000000000E+00  0.00000000000E+00  0.63391637621E+02  0.63391637621E+02  0.00000000000E+00 0. -1.
         21   -1    0    0  501  503 -0.00000000000E+00 -0.00000000000E+00 -0.15798557652E+04  0.15798557652E+04  0.00000000000E+00 0. -1.
          6    2    1    2  501    0  0.18429700118E+03  0.12693287561E+03 -0.11306572394E+04  0.11651342072E+04  0.17051272107E+03 0.  0.
         24    2    3    3    0    0  0.14911663113E+02  0.61199476532E+02 -0.34739611773E+03  0.36106185513E+03  0.75590124999E+02 0.  0.
         -6    2    1    2    0  502 -0.18429700118E+03 -0.12693287561E+03 -0.38580688813E+03  0.47811319565E+03  0.17224381955E+03 0.  0.
        -24    2    5    5    0    0 -0.35644395369E+02 -0.36921328067E+02 -0.69637962107E+02  0.11730222618E+03  0.79225369129E+02 0.  0.
          5    1    3    3  501    0  0.16938533807E+03  0.65733399080E+02 -0.78326112172E+03  0.80407235203E+03  0.47000000000E+01 0. -1.
        -11    1    4    4    0    0 -0.66009896095E+01  0.62524585507E+02 -0.15213195490E+03  0.16461175097E+03  0.00000000000E+00 0.  1.
         12    1    4    4    0    0  0.21512652722E+02 -0.13251089749E+01 -0.19526416282E+03  0.19645010416E+03  0.00000000000E+00 0. -1.
         -5    1    5    5    0  502 -0.14865260581E+03 -0.90011547545E+02 -0.31616892603E+03  0.36081096947E+03  0.47000000000E+01 0.  1.
         11    1    6    6    0    0 -0.50556634209E+02 -0.48333814851E+02 -0.69386796133E+02  0.98522375114E+02  0.00000000000E+00 0. -1.
        -12    1    6    6    0    0  0.14912238840E+02  0.11412486784E+02 -0.25116597409E+00  0.18779851068E+02  0.00000000000E+00 0.  1.
</event>
<event>
12    1  0.8358445E-002  0.2299865E+03  0.7818608E-02  0.1128697E+00
         21   -1    0    0  501  502  0.00000000000E+00  0.00000000000E+00  0.93929502787E+02  0.93929502787E+02  0.00000000000E+00 0.  1.
         21   -1    0    0  502  503 -0.00000000000E+00 -0.00000000000E+00 -0.53968651928E+03  0.53968651928E+03  0.00000000000E+00 0.  1.
         -6    2    1    2    0  503  0.11912959647E+03 -0.95950577191E+02 -0.20133681157E+03  0.30566373236E+03  0.17174234064E+03 0.  0.
        -24    2    3    3    0    0  0.10220326778E+02 -0.16074196655E+02 -0.29366222266E+02  0.86946017534E+02  0.79588944441E+02 0.  0.
          6    2    1    2  501    0 -0.11912959647E+03  0.95950577191E+02 -0.24442020492E+03  0.32795228971E+03  0.15624689992E+03 0.  0.
         24    2    5    5    0    0 -0.63346269802E+02  0.12932548864E+02 -0.60933169861E+02  0.11892273535E+03  0.79055455699E+02 0.  0.
          5    1    5    5  501    0 -0.55783326663E+02  0.83018028327E+02 -0.18348703506E+03  0.20902955436E+03  0.47000000000E+01 0. -1.
        -11    1    6    6    0    0 -0.63599750070E+02  0.20839121203E+02 -0.76388937236E+02  0.10156016401E+03  0.00000000000E+00 0.  1.
         12    1    6    6    0    0  0.25348026847E+00 -0.79065723390E+01  0.15455767375E+02  0.17362571340E+02  0.00000000000E+00 0. -1.
         -5    1    3    3    0  503  0.10890926969E+03 -0.79876380536E+02 -0.17197058931E+03  0.21871771482E+03  0.47000000000E+01 0.  1.
         13    1    4    4    0    0  0.29171792438E+02 -0.33423375152E+02  0.43270729101E+01  0.44573972681E+02  0.00000000000E+00 0. -1.
        -14    1    4    4    0    0 -0.18951465660E+02  0.17349178497E+02 -0.33693295176E+02  0.42372044853E+02  0.00000000000E+00 0.  1.
</event>
<event>
12    1  0.8358445E-002  0.2358029E+03  0.7818608E-02  0.1122682E+00
         21   -1    0    0  501  502  0.00000000000E+00  0.00000000000E+00  0.26707695723E+03  0.26707695723E+03  0.00000000000E+00 0. -1.
         21   -1    0    0  502  503 -0.00000000000E+00 -0.00000000000E+00 -0.21134964180E+03  0.21134964180E+03  0.00000000000E+00 0. -1.
         -6    2    1    2    0  503  0.15575029439E+03 -0.41255094867E+02 -0.28213231859E+01  0.23546378129E+03  0.17168312491E+03 0.  0.
        -24    2    3    3    0    0  0.15473934801E+03 -0.80353692857E+02  0.15802161047E+02  0.19189031984E+03  0.78557016100E+02 0.  0.
          6    2    1    2  501    0 -0.15575029439E+03  0.41255094867E+02  0.58548638615E+02  0.24296281775E+03  0.17217099253E+03 0.  0.
         24    2    5    5    0    0 -0.66589509655E+02 -0.43819642793E+02  0.38442306206E+02  0.11800798140E+03  0.78062467794E+02 0.  0.
          5    1    5    5  501    0 -0.89160784739E+02  0.85074737660E+02  0.20106332410E+02  0.12495483635E+03  0.47000000000E+01 0. -1.
        -11    1    6    6    0    0 -0.26488015394E+02 -0.41538061443E+02  0.55639122064E+02  0.74315122364E+02  0.00000000000E+00 0.  1.
         12    1    6    6    0    0 -0.40101494261E+02 -0.22815813497E+01 -0.17196815858E+02  0.43692859040E+02  0.00000000000E+00 0. -1.
         -5    1    3    3    0  503  0.10109463882E+01  0.39098597990E+02 -0.18623484233E+02  0.43573461446E+02  0.47000000000E+01 0.  1.
         11    1    4    4    0    0  0.10257033661E+03 -0.10104386541E+02  0.54487671078E+00  0.10306827577E+03  0.00000000000E+00 0. -1.
        -12    1    4    4    0    0  0.52169011396E+02 -0.70249306316E+02  0.15257284336E+02  0.88822044073E+02  0.00000000000E+00 0.  1.
</event>
<event>
12    1  0.8358445E-002  0.2358974E+03  0.7818608E-02  0.1122835E+00
         21   -1    0    0  501  502  0.00000000000E+00  0.00000000000E+00  0.44404561944E+03  0.44404561944E+03  0.00000000000E+00 0.  1.
         21   -1    0    0  502  503 -0.00000000000E+00 -0.00000000000E+00 -0.13540743168E+03  0.13540743168E+03  0.00000000000E+00 0.  1.
         -6    2    1    2    0  503 -0.17489290468E+02 -0.16005277199E+03  0.72416877319E+02  0.24676256670E+03  0.17240880228E+03 0.  0.
        -24    2    3    3    0    0 -0.15211327083E+02 -0.14266336397E+03  0.11511357287E+03  0.20036560087E+03  0.79441925081E+02 0.  0.
          6    2    1    2  501    0  0.17489290468E+02  0.16005277199E+03  0.23622131044E+03  0.33269048442E+03  0.17017545597E+03 0.  0.
         24    2    5    5    0    0 -0.12254917231E+00  0.10139304825E+02  0.10047926280E+03  0.12963330521E+03  0.81276632833E+02 0.  0.
          5    1    5    5  501    0  0.17611839640E+02  0.14991346717E+03  0.13574204764E+03  0.20305717921E+03  0.47000000000E+01 0. -1.
        -13    1    6    6    0    0  0.46430509639E+01  0.23333408560E+02  0.11008820721E+03  0.11262956648E+03  0.00000000000E+00 0.  1.
         14    1    6    6    0    0 -0.47656001362E+01 -0.13194103735E+02 -0.96089444116E+01  0.17003738728E+02  0.00000000000E+00 0. -1.
         -5    1    3    3    0  503 -0.22779633848E+01 -0.17389408020E+02 -0.42696695547E+02  0.46396965839E+02  0.47000000000E+01 0.  1.
         13    1    4    4    0    0 -0.45430423362E+02 -0.56074040030E+02  0.54486557003E+02  0.90426800375E+02  0.00000000000E+00 0. -1.
        -14    1    4    4    0    0  0.30219096278E+02 -0.86589323943E+02  0.60627015863E+02  0.10993880049E+03  0.00000000000E+00 0.  1.
</event>
<event>
12    1  0.8358445E-002  0.1853823E+03  0.7818608E-02  0.1162938E+00
         21   -1    0    0  503  502  0.00000000000E+00  0.00000000000E+00  0.14930415246E+04  0.14930415246E+04  0.00000000000E+00 0.  1.
         21   -1    0    0  501  503 -0.00000000000E+00 -0.00000000000E+00 -0.46581916883E+02  0.46581916883E+02  0.00000000000E+00 0.  1.
          6    2    1    2  501    0 -0.97504335492E+01  0.69050932119E+02  0.17520901467E+03  0.25507799028E+03  0.17176577111E+03 0.  0.
         24    2    3    3    0    0 -0.13159761242E+02 -0.16846299681E+02  0.15148877928E+03  0.16577682840E+03  0.63844572658E+02 0.  0.
         -6    2    1    2    0  502  0.97504335492E+01 -0.69050932119E+02  0.12712505931E+04  0.12845454512E+04  0.17063365348E+03 0.  0.
        -24    2    5    5    0    0 -0.61542665799E+02 -0.40812005632E+02  0.74394685182E+03  0.75167448324E+03  0.78131241540E+02 0.  0.
          5    1    3    3  501    0  0.34093276925E+01  0.85897231800E+02  0.23720235388E+02  0.89301161879E+02  0.47000000000E+01 0. -1.
        -13    1    4    4    0    0 -0.33070883935E+02  0.82553814809E+01  0.62414019389E+02  0.71115008992E+02  0.00000000000E+00 0.  1.
         14    1    4    4    0    0  0.19911122693E+02 -0.25101681162E+02  0.89074759893E+02  0.94661819411E+02  0.00000000000E+00 0. -1.
         -5    1    5    5    0  502  0.71293099348E+02 -0.28238926487E+02  0.52730374126E+03  0.53287096799E+03  0.47000000000E+01 0.  1.
         11    1    6    6    0    0 -0.20886752545E+02 -0.59278904454E+02  0.43714636981E+03  0.44164147629E+03  0.00000000000E+00 0. -1.
        -12    1    6    6    0    0 -0.40655913254E+02  0.18466898822E+02  0.30680048201E+03  0.31003300695E+03  0.00000000000E+00 0.  1.
</event>
<event>
12    1  0.8358445E-002  0.2051254E+03  0.7818608E-02  0.1145763E+00
         21   -1    0    0  501  502  0.00000000000E+00  0.00000000000E+00  0.13568488852E+03  0.13568488852E+03  0.00000000000E+00 0. -1.
         21   -1    0    0  502  503 -0.00000000000E+00 -0.00000000000E+00 -0.30866209595E+03  0.30866209595E+03  0.00000000000E+00 0. -1.
         -6    2    1    2    0  503  0.10733914318E+03  0.33152938759E+02 -0.76389306245E+02  0.21761881545E+03  0.17000533440E+03 0.  0.
        -24    2    3    3    0    0  0.11579773061E+03  0.61500100809E+02 -0.21662108732E+02  0.15523079220E+03  0.80224529167E+02 0.  0.
          6    2    1    2  501    0 -0.10733914318E+03 -0.33152938759E+02 -0.96587901187E+02  0.22672816901E+03  0.17162642850E+03 0.  0.
         24    2    5    5    0    0 -0.29291442809E+02 -0.50461963670E+02 -0.10674031497E+03  0.14600514019E+03  0.80744087846E+02 0.  0.
          5    1    5    5  501    0 -0.78047700375E+02  0.17309024911E+02  0.10152413780E+02  0.80723028826E+02  0.47000000000E+01 0. -1.
        -11    1    6    6    0    0 -0.32844733699E+02  0.13273230852E+02 -0.32263856382E+02  0.47915671942E+02  0.00000000000E+00 0.  1.
         12    1    6    6    0    0  0.35532908901E+01 -0.63735194522E+02 -0.74476458586E+02  0.98089468244E+02  0.00000000000E+00 0. -1.
         -5    1    3    3    0  503 -0.84585874228E+01 -0.28347162050E+02 -0.54727197513E+02  0.62388023250E+02  0.47000000000E+01 0.  1.
         13    1    4    4    0    0  0.89294283458E+02  0.10404897833E+02  0.84057977780E+01  0.90290577545E+02  0.00000000000E+00 0. -1.
        -14    1    4    4    0    0  0.26503447149E+02  0.51095202976E+02 -0.30067906510E+02  0.64940214658E+02  0.00000000000E+00 0.  1.
</event>
<event>
12    1  0.8358445E-002  0.1818860E+03  0.7818608E-02  0.1166408E+00
         21   -1    0    0  501  502  0.00000000000E+00  0.00000000000E+00  0.12004614079E+04  0.12004614079E+04  0.00000000000E+00 0. -1.
         21   -1    0    0  502  503 -0.00000000000E+00 -0.00000000000E+00 -0.68481064920E+02  0.68481064920E+02  0.00000000000E+00 0. -1.
         -6    2    1    2    0  503 -0.55349654782E+02 -0.18308456643E+02  0.75035523813E+02  0.19675580467E+03  0.17228967749E+03 0.  0.
        -24    2    3    3    0    0 -0.74864059899E+02  0.25870799912E+02  0.54653538233E+01  0.11193412543E+03  0.78901537313E+02 0.  0.
          6    2    1    2  501    0  0.55349654782E+02  0.18308456643E+02  0.10569448191E+04  0.10721866681E+04  0.17044974839E+03 0.  0.
         24    2    5    5    0    0  0.34018118607E+02 -0.35137333974E+02  0.90576197978E+03  0.91035395237E+03  0.77121267844E+02 0.  0.
          5    1    5    5  501    0  0.21331536175E+02  0.53445790617E+02  0.15118283936E+03  0.16183271575E+03  0.47000000000E+01 0. -1.
        -11    1    6    6    0    0  0.18744492801E+02 -0.15730164417E+02  0.68703628436E+02  0.72931355693E+02  0.00000000000E+00 0.  1.
         12    1    6    6    0    0  0.15273625806E+02 -0.19407169557E+02  0.83705835134E+03  0.83742259668E+03  0.00000000000E+00 0. -1.
         -5    1    3    3    0  503  0.19514405117E+02 -0.44179256555E+02  0.69570169990E+02  0.84821679241E+02  0.47000000000E+01 0.  1.
         13    1    4    4    0    0 -0.78033781552E+02  0.64630569569E+00  0.22639262630E+02  0.81254076739E+02  0.00000000000E+00 0. -1.
        -14    1    4    4    0    0  0.31697216526E+01  0.25224494217E+02 -0.17173908807E+02  0.30680048689E+02  0.00000000000E+00 0.  1.
</event>
<event>
12    1  0.8358445E-002  0.2987260E+03  0.7818608E-02  0.1085891E+00
         21   -1    0    0  503  502  0.00000000000E+00  0.00000000000E+00  0.24310273978E+03  0.24310273978E+03  0.00000000000E+00 0.  1.
         21   -1    0    0  501  503 -0.00000000000E+00 -0.00000000000E+00 -0.40107354557E+03  0.40107354557E+03  0.00000000000E+00 0. -1.
          6    2    1    2  501    0 -0.17112302548E+03  0.17441772729E+03  0.14957707338E+02  0.29900750479E+03  0.17168902547E+03 0.  0.
         24    2    3    3    0    0 -0.18804681802E+03  0.12130052269E+03 -0.79661796934E+01  0.23854721389E+03  0.82255034262E+02 0.  0.
         -6    2    1    2    0  502  0.17112302548E+03 -0.17441772729E+03 -0.17292851314E+03  0.34516878056E+03  0.17185046691E+03 0.  0.
        -24    2    5    5    0    0  0.15968924609E+03 -0.17527420643E+03 -0.97017650845E+02  0.26825315223E+03  0.79533806349E+02 0.  0.
          5    1    3    3  501    0  0.16923792546E+02  0.53117204598E+02  0.22923887032E+02  0.60460290895E+02  0.47000000000E+01 0. -1.
        -13    1    4    4    0    0 -0.43004372477E+02 -0.13988696380E+01  0.18305417851E+02  0.46759183174E+02  0.00000000000E+00 0.  1.
         14    1    4    4    0    0 -0.14504244555E+03  0.12269939233E+03 -0.26271597544E+02  0.19178803072E+03  0.00000000000E+00 0. -1.
         -5    1    5    5    0  502  0.11433779387E+02  0.85647913587E+00 -0.75910862290E+02  0.76915628329E+02  0.47000000000E+01 0.  1.
         11    1    6    6    0    0  0.96442460623E+00 -0.13981087306E+02 -0.28589202471E+02  0.31839337541E+02  0.00000000000E+00 0. -1.
        -12    1    6    6    0    0  0.15872482149E+03 -0.16129311912E+03 -0.68428448374E+02  0.23641381469E+03  0.00000000000E+00 0.  1.
</event>
<event>
12    1  0.8358445E-002  0.1800909E+03  0.7818608E-02  0.1168842E+00
         21   -1    0    0  501  502  0.00000000000E+00  0.00000000000E+00  0.77129489243E+02  0.77129489243E+02  0.00000000000E+00 0. -1.
         21   -1    0    0  502  503 -0.00000000000E+00 -0.00000000000E+00 -0.41217594091E+03  0.41217594091E+03  0.00000000000E+00 0. -1.
         -6    2    1    2    0  503  0.58850347269E+02 -0.12390115007E+02 -0.18381365168E+03  0.25413723996E+03  0.16486782544E+03 0.  0.
        -24    2    3    3    0    0  0.54966961540E+02  0.51986538783E+02 -0.11216143357E+03  0.15762006740E+03  0.80869842291E+02 0.  0.
          6    2    1    2  501    0 -0.58850347269E+02  0.12390115007E+02 -0.15123279998E+03  0.23516819019E+03  0.16975228883E+03 0.  0.
         24    2    5    5    0    0 -0.72133358364E+02 -0.40148167294E+02 -0.44523665806E+02  0.11539490933E+03  0.67220023483E+02 0.  0.
          5    1    5    5  501    0  0.13283011095E+02  0.52538282301E+02 -0.10670913417E+03  0.11977328086E+03  0.47000000000E+01 0. -1.
        -13    1    6    6    0    0 -0.60585112150E+01 -0.15645769131E+02 -0.41607560145E+02  0.44862954775E+02  0.00000000000E+00 0.  1.
         14    1    6    6    0    0 -0.66074847149E+02 -0.24502398163E+02 -0.29161056605E+01  0.70531954557E+02  0.00000000000E+00 0. -1.
         -5    1    3    3    0  503  0.38833857288E+01 -0.64376653790E+02 -0.71652218117E+02  0.96517172560E+02  0.47000000000E+01 0.  1.
         13    1    4    4    0    0  0.53841174560E+02  0.85808402409E+01 -0.97649536196E+02  0.11183887882E+03  0.00000000000E+00 0. -1.
        -14    1    4    4    0    0  0.11257869800E+01  0.43405698542E+02 -0.14511897370E+02  0.45781188577E+02  0.00000000000E+00 0.  1.
</event>
<event>
12    1  0.8358445E-002  0.2036929E+03  0.7818608E-02  0.1146670E+00
         21   -1    0    0  503  502  0.00000000000E+00  0.00000000000E+00  0.74897539058E+02  0.74897539058E+02  0.00000000000E+00 0. -1.
         21   -1    0    0  501  503 -0.00000000000E+00 -0.00000000000E+00 -0.92024886944E+03  0.92024886944E+03  0.00000000000E+00 0. -1.
          6    2    1    2  501    0  0.10854427561E+03  0.12756102520E+02 -0.73661528032E+03  0.76424746864E+03  0.17183580592E+03 0.  0.
         24    2    3    3    0    0  0.93126274437E+02 -0.49805729667E+02 -0.57176113399E+03  0.58718624429E+03  0.81998642903E+02 0.  0.
         -6    2    1    2    0  502 -0.10854427561E+03 -0.12756102520E+02 -0.10873605006E+03  0.23089893986E+03  0.17189012166E+03 0.  0.
        -24    2    5    5    0    0 -0.21432320907E+02 -0.18114098829E+01 -0.11761109920E+03  0.14252962705E+03  0.77586715018E+02 0.  0.
          5    1    3    3  501    0  0.15418001174E+02  0.62561832187E+02 -0.16485414633E+03  0.17706122435E+03  0.47000000000E+01 0. -1.
        -11    1    4    4    0    0  0.32809875572E+02 -0.29801377349E+02 -0.81054904816E+02  0.92382398873E+02  0.00000000000E+00 0.  1.
         12    1    4    4    0    0  0.60316398865E+02 -0.20004352318E+02 -0.49070622918E+03  0.49480384541E+03  0.00000000000E+00 0. -1.
         -5    1    5    5    0  502 -0.87111954704E+02 -0.10944692638E+02  0.88750491372E+01  0.88369312809E+02  0.47000000000E+01 0.  1.
         11    1    6    6    0    0 -0.35780308940E+02 -0.25903430554E+02 -0.10024743589E+03  0.10954801059E+03  0.00000000000E+00 0. -1.
        -12    1    6    6    0    0  0.14347988033E+02  0.24092020671E+02 -0.17363663307E+02  0.32981616456E+02  0.00000000000E+00 0.  1.
</event>
<event>
12    1  0.8358445E-002  0.1981194E+03  0.7818608E-02  0.1153849E+00
         21   -1    0    0  503  502  0.00000000000E+00  0.00000000000E+00  0.11979639842E+03  0.11979639842E+03  0.00000000000E+00 0. -1.
         21   -1    0    0  501  503 -0.00000000000E+00 -0.00000000000E+00 -0.37510297181E+03  0.37510297181E+03  0.00000000000E+00 0. -1.
          6    2    1    2  501    0  0.85593220510E+02 -0.10587135407E+02 -0.22832914617E+03  0.29495172475E+03  0.16560203535E+03 0.  0.
         24    2    3    3    0    0  0.81607476300E-01  0.34589829111E+02 -0.12899432368E+03  0.15623369764E+03  0.81073853981E+02 0.  0.
         -6    2    1    2    0  502 -0.85593220510E+02  0.10587135407E+02 -0.26977427217E+02  0.19994764548E+03  0.17836197050E+03 0.  0.
        -24    2    5    5    0    0 -0.81480088389E+02  0.72984357405E+02 -0.14273377098E+02  0.13596472543E+03  0.79479280550E+02 0.  0.
          5    1    3    3  501    0  0.85511613033E+02 -0.45176964517E+02 -0.99334822488E+02  0.13871802711E+03  0.47000000000E+01 0. -1.
        -11    1    4    4    0    0 -0.31278745355E+02 -0.77566921162E+01 -0.29706706547E+02  0.43829380528E+02  0.00000000000E+00 0.  1.
         12    1    4    4    0    0  0.31360352831E+02  0.42346521227E+02 -0.99287617138E+02  0.11240431712E+03  0.00000000000E+00 0. -1.
         -5    1    5    5    0  502 -0.41131321208E+01 -0.62397221998E+02 -0.12704050119E+02  0.63982920052E+02  0.47000000000E+01 0.  1.
         11    1    6    6    0    0 -0.63254808168E+02  0.78270648549E+02  0.14318193881E+02  0.10164878679E+03  0.00000000000E+00 0. -1.
        -12    1    6    6    0    0 -0.18225280221E+02 -0.52862911438E+01 -0.28591570979E+02  0.34315938632E+02  0.00000000000E+00 0.  1.
</event>
<event>
12    1  0.8358445E-002  0.2345390E+03  0.7818608E-02  0.1123608E+00
         21   -1    0    0  503  502  0.00000000000E+00  0.00000000000E+00  0.43347678332E+02  0.43347678332E+02  0.00000000000E+00 0. -1.
         21   -1    0    0  501  503 -0.00000000000E+00 -0.00000000000E+00 -0.21440457472E+04  0.21440457472E+04  0.00000000000E+00 0.  1.
          6    2    1    2  501    0  0.98202476362E+02 -0.12305246255E+03 -0.17515392887E+04  0.17671724311E+04  0.17384730780E+03 0.  0.
         24    2    3    3    0    0  0.48089186775E+02 -0.38788875577E+02 -0.42368764964E+03  0.43569815073E+03  0.80650525997E+02 0.  0.
         -6    2    1    2    0  502 -0.98202476362E+02  0.12305246255E+03 -0.34915878016E+03  0.42022099444E+03  0.17288202769E+03 0.  0.
        -24    2    5    5    0    0  0.50248197898E+01  0.49508224231E+02 -0.92261861814E+02  0.13372012827E+03  0.83021132716E+02 0.  0.
          5    1    3    3  501    0  0.50113289587E+02 -0.84263586977E+02 -0.13278516391E+04  0.13314742804E+04  0.47000000000E+01 0. -1.
        -11    1    4    4    0    0  0.68502796051E+02 -0.35553486487E+02 -0.37404940081E+03  0.38192883854E+03  0.00000000000E+00 0.  1.
         12    1    4    4    0    0 -0.20413609276E+02 -0.32353890903E+01 -0.49638248831E+02  0.53769312189E+02  0.00000000000E+00 0. -1.
         -5    1    5    5    0  502 -0.10322729615E+03  0.73544238323E+02 -0.25689691835E+03  0.28650086617E+03  0.47000000000E+01 0.  1.
         13    1    6    6    0    0  0.25311160831E+02  0.39837829766E+02 -0.99485861242E+02  0.11011423219E+03  0.00000000000E+00 0. -1.
        -14    1    6    6    0    0 -0.20286341041E+02  0.96703944654E+01  0.72239994278E+01  0.23605896079E+02  0.00000000000E+00 0.  1.
</event>
<event>
12    1  0.8358445E-002  0.2189244E+03  0.7818608E-02  0.1134736E+00
         21   -1    0    0  501  502  0.00000000000E+00  0.00000000000E+00  0.51392336787E+02  0.51392336787E+02  0.00000000000E+00 0.  1.
         21   -1    0    0  502  503 -0.00000000000E+00 -0.00000000000E+00 -0.96472305775E+03  0.96472305775E+03  0.00000000000E+00 0. -1.
         -6    2    1    2    0  503  0.89693781023E+02  0.10086817427E+03 -0.55069154206E+03  0.59251764877E+03  0.17203670155E+03 0.  0.
        -24    2    3    3    0    0  0.88557786419E+01  0.94955248922E+02 -0.24818079323E+03  0.27930112866E+03  0.85559863428E+02 0.  0.
          6    2    1    2  501    0 -0.89693781023E+02 -0.10086817427E+03 -0.36263917891E+03  0.42359774577E+03  0.17236157694E+03 0.  0.
         24    2    5    5    0    0 -0.11126850249E+03 -0.12546228373E+03 -0.30149811721E+03  0.35409480877E+03  0.79753085385E+02 0.  0.
          5    1    5    5  501    0  0.21574721464E+02  0.24594109460E+02 -0.61141061693E+02  0.69502936998E+02  0.47000000000E+01 0. -1.
        -13    1    6    6    0    0 -0.96814115757E+00 -0.20624137879E+02 -0.56534633273E+01  0.21406868247E+02  0.00000000000E+00 0.  1.
         14    1    6    6    0    0 -0.11030036133E+03 -0.10483814585E+03 -0.29584465389E+03  0.33268794052E+03  0.00000000000E+00 0. -1.
         -5    1    3    3    0  503  0.80838002381E+02  0.59129253449E+01 -0.30251074883E+03  0.31321652011E+03  0.47000000000E+01 0.  1.
         11    1    4    4    0    0 -0.72595982840E+01  0.34141034123E+02 -0.19139063440E+03  0.19454738990E+03  0.00000000000E+00 0. -1.
        -12    1    4    4    0    0  0.16115376926E+02  0.60814214798E+02 -0.56790158827E+02  0.84753738765E+02  0.00000000000E+00 0.  1.
</event>
<event>
12    1  0.8358445E-002  0.1971356E+03  0.7818608E-02  0.1152396E+00
         21   -1    0    0  503  502  0.00000000000E+00  0.00000000000E+00  0.63871587455E+03  0.63871587455E+03  0.00000000000E+00 0. -1.
         21   -1    0    0  501  503 -0.00000000000E+00 -0.00000000000E+00 -0.98152400888E+02  0.98152400888E+02  0.00000000000E+00 0. -1.
          6    2    1    2  501    0 -0.25656392724E+02  0.91652001288E+02  0.42616249602E+02  0.20168935744E+03  0.17263867570E+03 0.  0.
         24    2    3    3    0    0 -0.21567001546E+02 -0.20378142214E+02  0.11584005347E+02  0.85273867248E+02  0.79101447647E+02 0.  0.
         -6    2    1    2    0  502  0.25656392724E+02 -0.91652001288E+02  0.49794722406E+03  0.53517891800E+03  0.17148380825E+03 0.  0.
        -24    2    5    5    0    0  0.75503943737E+02 -0.45518965810E+02  0.38473750471E+03  0.40307454313E+03  0.81690378980E+02 0.  0.
          5    1    3    3  501    0 -0.40893911786E+01  0.11203014350E+03  0.31032244255E+02  0.11641549019E+03  0.47000000000E+01 0. -1.
        -11    1    4    4    0    0 -0.26681835696E+02  0.65329278122E+01  0.38218856893E+02  0.47066766663E+02  0.00000000000E+00 0.  1.
         12    1    4    4    0    0  0.51148341500E+01 -0.26911070026E+02 -0.26634851545E+02  0.38207100586E+02  0.00000000000E+00 0. -1.
         -5    1    5    5    0  502 -0.49847551013E+02 -0.46133035479E+02  0.11320971935E+03  0.13210437487E+03  0.47000000000E+01 0.  1.
         13    1    6    6    0    0  0.17331577377E+02 -0.36357495776E+02  0.55288886209E+02  0.68404035054E+02  0.00000000000E+00 0. -1.
        -14    1    6    6    0    0  0.58172366360E+02 -0.91614700340E+01  0.32944861850E+03  0.33467050807E+03  0.00000000000E+00 0.  1.
</event>
<event>
12    1  0.8358445E-002  0.1802533E+03  0.7818608E-02  0.1168007E+00
         21   -1    0    0  503  502  0.00000000000E+00  0.00000000000E+00  0.46316442827E+02  0.46316442827E+02  0.00000000000E+00 0.  1.
         21   -1    0    0  501  503 -0.00000000000E+00 -0.00000000000E+00 -0.10207251627E+04  0.10207251627E+04  0.00000000000E+00 0. -1.
          6    2    1    2  501    0  0.50083580685E+02  0.21655879351E+02 -0.79060640160E+03  0.81089440317E+03  0.17179612533E+03 0.  0.
         24    2    3    3    0    0 -0.31243511778E+02  0.30725712016E+01 -0.53606459890E+03  0.54298946736E+03  0.80540112658E+02 0.  0.
         -6    2    1    2    0  502 -0.50083580685E+02 -0.21655879351E+02 -0.18380231832E+03  0.25614720241E+03  0.16985509976E+03 0.  0.
        -24    2    5    5    0    0 -0.95391145248E+02 -0.22315149625E+02 -0.16317118831E+03  0.20613776760E+03  0.79186526905E+02 0.  0.
          5    1    3    3  501    0  0.81327092463E+02  0.18583308150E+02 -0.25454180270E+03  0.26790493581E+03  0.47000000000E+01 0. -1.
        -11    1    4    4    0    0 -0.29497456184E+02 -0.29536384372E+02 -0.42975108508E+03  0.43177365952E+03  0.00000000000E+00 0.  1.
         12    1    4    4    0    0 -0.17460555941E+01  0.32608955573E+02 -0.10631351382E+03  0.11121580784E+03  0.00000000000E+00 0. -1.
         -5    1    5    5    0  502  0.45307564563E+02  0.65927027364E+00 -0.20631130015E+02  0.50009434806E+02  0.47000000000E+01 0.  1.
         13    1    6    6    0    0 -0.30643375545E+02 -0.47114536949E+01 -0.12532319197E+03  0.12910118786E+03  0.00000000000E+00 0. -1.
        -14    1    6    6    0    0 -0.64747769703E+02 -0.17603695930E+02 -0.37847996339E+02  0.77036579744E+02  0.00000000000E+00 0.  1.
</event>
<event>
12    1  0.8358445E-002  0.1843921E+03  0.7818608E-02  0.1164272E+00
         21   -1    0    0  503  502  0.00000000000E+00  0.00000000000E+00  0.83064429342E+02  0.83064429342E+02  0.00000000000E+00 0.  1.
         21   -1    0    0  501  503 -0.00000000000E+00 -0.00000000000E+00 -0.40837456057E+03  0.40837456057E+03  0.00000000000E+00 0.  1.
          6    2    1    2  501    0  0.55889969269E+02  0.13716866426E+02 -0.19147859980E+03  0.26582793381E+03  0.17518160612E+03 0.  0.
         24    2    3    3    0    0  0.72446742627E+02  0.45332115173E+02 -0.19743771243E+03  0.22934161143E+03  0.79450571185E+02 0.  0.
         -6    2    1    2    0  502 -0.55889969269E+02 -0.13716866426E+02 -0.13383153142E+03  0.22561105610E+03  0.17227196157E+03 0.  0.
        -24    2    5    5    0    0 -0.36301551425E+02 -0.63027494382E+02 -0.13434935069E+03  0.17234190668E+03  0.79760372886E+02 0.  0.
          5    1    3    3  501    0 -0.16556773358E+02 -0.31615248747E+02  0.59591126264E+01  0.36486322378E+02  0.47000000000E+01 0. -1.
        -13    1    4    4    0    0  0.35703842632E+02 -0.13278414561E+02 -0.11804926298E+03  0.12404317459E+03  0.00000000000E+00 0.  1.
         14    1    4    4    0    0  0.36742899995E+02  0.58610529734E+02 -0.79388449450E+02  0.10529843684E+03  0.00000000000E+00 0. -1.
         -5    1    5    5    0  502 -0.19588417845E+02  0.49310627956E+02  0.51781926918E+00  0.53269149419E+02  0.47000000000E+01 0.  1.
         11    1    6    6    0    0  0.24756729202E+02 -0.14399718783E+02 -0.48394851118E+02  0.56234412565E+02  0.00000000000E+00 0. -1.
        -12    1    6    6    0    0 -0.61058280626E+02 -0.48627775599E+02 -0.85954499576E+02  0.11610749412E+03  0.00000000000E+00 0.  1.
</event>
<event>
12    1  0.8358445E-002  0.1949833E+03  0.7818608E-02  0.1154667E+00
         21   -1    0    0  501  502  0.00000000000E+00  0.00000000000E+00  0.12143003453E+03  0.12143003453E+03  0.00000000000E+00 0.  1.
         21   -1    0    0  502  503 -0.00000000000E+00 -0.00000000000E+00 -0.50153673467E+03  0.50153673467E+03  0.00000000000E+00 0.  1.
         -6    2    1    2    0  503 -0.62461380160E+02  0.59763031256E+02 -0.38413412228E+03  0.43078706835E+03  0.17477251055E+03 0.  0.
        -24    2    3    3    0    0 -0.66932930523E+02  0.63950001469E+02 -0.14438238675E+03  0.19091103752E+03  0.83851838169E+02 0.  0.
          6    2    1    2  501    0  0.62461380160E+02 -0.59763031256E+02  0.40274221370E+01  0.19217970085E+03  0.17159188027E+03 0.  0.
         24    2    5    5    0    0  0.54146221336E+02 -0.10294540922E+03  0.24001679674E+02  0.14365217674E+03  0.80810251148E+02 0.  0.
          5    1    5    5  501    0  0.83151588235E+01  0.43182377959E+02 -0.19974257537E+02  0.48527524114E+02  0.47000000000E+01 0. -1.
        -11    1    6    6    0    0  0.24223523049E+02 -0.85817104824E+02 -0.16264659226E+02  0.90641567114E+02  0.00000000000E+00 0.  1.
         12    1    6    6    0    0  0.29922698287E+02 -0.17128304392E+02  0.40266338900E+02  0.53010609623E+02  0.00000000000E+00 0. -1.
         -5    1    3    3    0  503  0.44715503628E+01 -0.41869702124E+01 -0.23975173552E+03  0.23987603083E+03  0.47000000000E+01 0.  1.
         13    1    4    4    0    0  0.41215243016E+01 -0.13001889548E+02 -0.43117295397E+02  0.45223193792E+02  0.00000000000E+00 0. -1.
        -14    1    4    4    0    0 -0.71054454824E+02  0.76951891016E+02 -0.10126509136E+03  0.14568784372E+03  0.00000000000E+00 0.  1.
</event>
<event>
12    1  0.8358445E-002  0.2082186E+03  0.7818608E-02  0.1143166E+00
         21   -1    0    0  503  502  0.00000000000E+00  0.00000000000E+00  0.41273649682E+04  0.41273649682E+04  0.00000000000E+00 0. -1.
         21   -1    0    0  501  503 -0.00000000000E+00 -0.00000000000E+00 -0.16759469035E+02  0.16759469035E+02  0.00000000000E+00 0. -1.
          6    2    1    2  501    0 -0.97871665287E+02  0.61559863317E+02  0.78203796909E+03  0.80905070489E+03  0.17207898869E+03 0.  0.
         24    2    3    3    0    0  0.10695125067E+02 -0.43384103246E+00  0.23695110305E+03  0.24979070375E+03  0.78326218633E+02 0.  0.
         -6    2    1    2    0  502  0.97871665287E+02 -0.61559863317E+02  0.33285675300E+04  0.33350737323E+04  0.17316615795E+03 0.  0.
        -24    2    5    5    0    0  0.12275515478E+03 -0.66069045058E+02  0.31948489741E+04  0.31989037541E+04  0.80568689880E+02 0.  0.
          5    1    3    3  501    0 -0.10856679035E+03  0.61993704350E+02  0.54508686604E+03  0.55926000114E+03  0.47000000000E+01 0. -1.
        -13    1    4    4    0    0  0.15100606827E+02  0.36599196266E+02  0.15086171347E+03  0.15597046543E+03  0.00000000000E+00 0.  1.
         14    1    4    4    0    0 -0.44054817596E+01 -0.37033037299E+02  0.86089389576E+02  0.93820238322E+02  0.00000000000E+00 0. -1.
         -5    1    5    5    0  502 -0.24883489490E+02  0.45091817408E+01  0.13371855590E+03  0.13616997820E+03  0.47000000000E+01 0.  1.
         13    1    6    6    0    0  0.62462960402E+02 -0.69662013634E+02  0.23700965525E+04  0.23719426818E+04  0.00000000000E+00 0. -1.
        -14    1    6    6    0    0  0.60292194376E+02  0.35929685760E+01  0.82475242166E+03  0.82696107234E+03  0.00000000000E+00 0.  1.
</event>
<event>
12    1  0.8358445E-002  0.2146889E+03  0.7818608E-02  0.1139948E+00
         21   -1    0    0  503  502  0.00000000000E+00  0.00000000000E+00  0.33711046027E+03  0.33711046027E+03  0.00000000000E+00 0.  1.
         21   -1    0    0  501  503 -0.00000000000E+00 -0.00000000000E+00 -0.19002895874E+03  0.19002895874E+03  0.00000000000E+00 0.  1.
          6    2    1    2  501    0 -0.11094875190E+03  0.16166007696E+02  0.22261841830E+03  0.30927379596E+03  0.18308565031E+03 0.  0.
         24    2    3    3    0    0 -0.58270714878E+02  0.79778003522E+02  0.10429960387E+03  0.16490311526E+03  0.80960632390E+02 0.  0.
         -6    2    1    2    0  502  0.11094875190E+03 -0.16166007696E+02 -0.75536916776E+02  0.21786562305E+03  0.17084682776E+03 0.  0.
        -24    2    5    5    0    0  0.64274283915E+02  0.58878810711E+01 -0.11436247667E+03  0.15310148117E+03  0.78711096737E+02 0.  0.
          5    1    3    3  501    0 -0.52678037026E+02 -0.63611995826E+02  0.11831881443E+03  0.14437068070E+03  0.47000000000E+01 0. -1.
        -11    1    4    4    0    0 -0.54330999547E+02  0.41973377374E+02  0.10663148188E+03  0.12682229634E+03  0.00000000000E+00 0.  1.
         12    1    4    4    0    0 -0.39397153314E+01  0.37804626148E+02 -0.23318780080E+01  0.38080818926E+02  0.00000000000E+00 0. -1.
         -5    1    5    5    0  502  0.46674467989E+02 -0.22053888767E+02  0.38825559899E+02  0.64764141878E+02  0.47000000000E+01 0.  1.
         11    1    6    6    0    0  0.34604690268E+02 -0.32393501498E+02 -0.30833685486E+02  0.56546792027E+02  0.00000000000E+00 0. -1.
        -12    1    6    6    0    0  0.29669593647E+02  0.38281382569E+02 -0.83528791188E+02  0.96554689145E+02  0.00000000000E+00 0.  1.
</event>
<event>
12    1  0.8358445E-002  0.2045904E+03  0.7818608E-02  0.1146209E+00
         21   -1    0    0  503  502  0.00000000000E+00  0.00000000000E+00  0.20585201729E+03  0.20585201729E+03  0.00000000000E+00 0. -1.
         21   -1    0    0  501  503 -0.00000000000E+00 -0.00000000000E+00 -0.20331784301E+03  0.20331784301E+03  0.00000000000E+00 0. -1.
          6    2    1    2  501    0  0.27488566752E+02 -0.10742249251E+03 -0.15471635113E+02  0.20378869917E+03  0.17027991432E+03 0.  0.
         24    2    3    3    0    0  0.29799854993E+02 -0.18066076193E+01  0.19068521235E+02  0.92544959599E+02  0.85496583887E+02 0.  0.
         -6    2    1    2    0  502 -0.27488566752E+02  0.10742249251E+03  0.18005809393E+02  0.20538116112E+03  0.17193603163E+03 0.  0.
        -24    2    5    5    0    0 -0.13426375476E+01 -0.79856940625E+01  0.10868355163E+02  0.86740137886E+02  0.85674712671E+02 0.  0.
          5    1    3    3  501    0 -0.23112882411E+01 -0.10561588489E+03 -0.34540156349E+02  0.11124373958E+03  0.47000000000E+01 0. -1.
        -11    1    4    4    0    0 -0.17394884429E+02  0.23644755432E+01 -0.23171782207E+02  0.29070676627E+02  0.00000000000E+00 0.  1.
         12    1    4    4    0    0  0.47194739422E+02 -0.41710831625E+01  0.42240303442E+02  0.63474282972E+02  0.00000000000E+00 0. -1.
         -5    1    5    5    0  502 -0.26145929205E+02  0.11540818657E+03  0.71374542299E+01  0.11864102324E+03  0.47000000000E+01 0.  1.
         11    1    6    6    0    0 -0.33492460008E+02  0.20397372291E+02 -0.77732724061E+01  0.39977761789E+02  0.00000000000E+00 0. -1.
        -12    1    6    6    0    0  0.32149822460E+02 -0.28383066353E+02  0.18641627570E+02  0.46762376097E+02  0.00000000000E+00 0.  1.
</event>
<event>
12    1  0.8358445E-002  0.1829496E+03  0.7818608E-02  0.1165436E+00
         21   -1    0    0  501  502  0.00000000000E+00  0.00000000000E+00  0.39117930830E+03  0.39117930830E+03  0.00000000000E+00 0. -1.
         21   -1    0    0  502  503 -0.00000000000E+00 -0.00000000000E+00 -0.87385854441E+02  0.87385854441E+02  0.00000000000E+00 0.  1.
         -6    2    1    2    0  503 -0.45678849497E+02 -0.38317913174E+02  0.19487205724E+03  0.26729326442E+03  0.17296170312E+03 0.  0.
        -24    2    3    3    0    0 -0.95740504748E+02 -0.13209207597E+02  0.13152656985E+03  0.18260939822E+03  0.81891552220E+02 0.  0.
          6    2    1    2  501    0  0.45678849497E+02  0.38317913174E+02  0.10892139661E+03  0.21127189832E+03  0.17093017469E+03 0.  0.
         24    2    5    5    0    0 -0.34874480765E+01 -0.27990256674E+02  0.12644856225E+02  0.84365001602E+02  0.78498053119E+02 0.  0.
          5    1    5    5  501    0  0.49166297574E+02  0.66308169848E+02  0.96276540389E+02  0.12690689672E+03  0.47000000000E+01 0. -1.
        -13    1    6    6    0    0  0.36128304718E+02 -0.50260035919E+01 -0.12965945135E+01  0.36499263982E+02  0.00000000000E+00 0.  1.
         14    1    6    6    0    0 -0.39615752795E+02 -0.22964253082E+02  0.13941450739E+02  0.47865737619E+02  0.00000000000E+00 0. -1.
         -5    1    3    3    0  503  0.50061655250E+02 -0.25108705577E+02  0.63345487386E+02  0.84683866199E+02  0.47000000000E+01 0.  1.
         13    1    4    4    0    0 -0.15043581566E+02 -0.24442746797E+02  0.82897419406E+02  0.87725363274E+02  0.00000000000E+00 0. -1.
        -14    1    4    4    0    0 -0.80696923181E+02  0.11233539199E+02  0.48629150448E+02  0.94884034944E+02  0.00000000000E+00 0.  1.
</event>
<event>
12    1  0.8358445E-002  0.1849588E+03  0.7818608E-02  0.1163167E+00
         21   -1    0    0  501  502  0.00000000000E+00  0.00000000000E+00  0.57718981474E+03  0.57718981474E+03  0.00000000000E+00 0. -1.
         21   -1    0    0  502  503 -0.00000000000E+00 -0.00000000000E+00 -0.75405169790E+02  0.75405169790E+02  0.00000000000E+00 0. -1.
         -6    2    1    2    0  503 -0.33939454873E+02 -0.57185520364E+02  0.99629288429E+02  0.21008513947E+03  0.17259113643E+03 0.  0.
        -24    2    3    3    0    0 -0.16995232550E+02  0.26152874039E+02  0.13261876073E+02  0.88784625992E+02  0.82061085209E+02 0.  0.
          6    2    1    2  501    0  0.33939454873E+02  0.57185520364E+02  0.40215535653E+03  0.44250984507E+03  0.17223229042E+03 0.  0.
         24    2    5    5    0    0  0.10820870858E+02  0.49978721117E+02  0.11220239435E+03  0.15150947195E+03  0.88038508514E+02 0.  0.
          5    1    5    5  501    0  0.23118584015E+02  0.72067992476E+01  0.28995296217E+03  0.29100037312E+03  0.47000000000E+01 0. -1.
        -11    1    6    6    0    0 -0.13599428106E+02  0.61495739281E+01 -0.10961605459E+02  0.18518058714E+02  0.00000000000E+00 0.  1.
         12    1    6    6    0    0  0.24420298964E+02  0.43829147188E+02  0.12316399981E+03  0.13299141324E+03  0.00000000000E+00 0. -1.
         -5    1    3    3    0  503 -0.16944222323E+02 -0.83338394403E+02  0.86367412357E+02  0.12130051347E+03  0.47000000000E+01 0.  1.
         13    1    4    4    0    0 -0.25680164488E+02 -0.22541047091E+02  0.18821989652E+02  0.39010728608E+02  0.00000000000E+00 0. -1.
        -14    1    4    4    0    0  0.86849319378E+01  0.48693921130E+02 -0.55601135798E+01  0.49773897384E+02  0.00000000000E+00 0.  1.
</event>
<event>
12    1  0.8358445E-002  0.2154998E+03  0.7818608E-02  0.1137383E+00
         21   -1    0    0  503  502  0.00000000000E+00  0.00000000000E+00  0.11301840910E+03  0.11301840910E+03  0.00000000000E+00 0. -1.
         21   -1    0    0  501  503 -0.00000000000E+00 -0.00000000000E+00 -0.89084304234E+03  0.89084304234E+03  0.00000000000E+00 0. -1.
          6    2    1    2  501    0 -0.12908814011E+03  0.91771176201E+01 -0.75748948397E+03  0.78740434570E+03  0.17166047274E+03 0.  0.
         24    2    3    3    0    0 -0.82097551392E+02  0.62524501890E+02 -0.32307267005E+03  0.34718381341E+03  0.74238324866E+02 0.  0.
         -6    2    1    2    0  502  0.12908814011E+03 -0.91771176201E+01 -0.20335149274E+02  0.21645710575E+03  0.17231422730E+03 0.  0.
        -24    2    5    5    0    0  0.10796749746E+03  0.39054573922E+02  0.21853993070E+02  0.14882285890E+03  0.92132546186E+02 0.  0.
          5    1    3    3  501    0 -0.46990588713E+02 -0.53347384270E+02 -0.43441681392E+03  0.44022053229E+03  0.47000000000E+01 0. -1.
        -13    1    4    4    0    0  0.11716475735E+02  0.21019600641E+02 -0.50344665005E+02  0.55800400619E+02  0.00000000000E+00 0.  1.
         14    1    4    4    0    0 -0.93814027127E+02  0.41504901249E+02 -0.27272800505E+03  0.29138341279E+03  0.00000000000E+00 0. -1.
         -5    1    5    5    0  502  0.21120642649E+02 -0.48231691542E+02 -0.42189142344E+02  0.67634246847E+02  0.47000000000E+01 0.  1.
         11    1    6    6    0    0  0.12486861292E+03  0.35471578089E+02  0.21239168668E+02  0.13153518780E+03  0.00000000000E+00 0. -1.
        -12    1    6    6    0    0 -0.16901115461E+02  0.35829958329E+01  0.61482440243E+00  0.17287671099E+02  0.00000000000E+00 0.  1.
</event>
<event>
12    1  0.8358445E-002  0.2057817E+03  0.7818608E-02  0.1145086E+00
         21   -1    0    0  501  502  0.00000000000E+00  0.00000000000E+00  0.15736768230E+03  0.15736768230E+03  0.00000000000E+00 0. -1.
         21   -1    0    0  502  503 -0.00000000000E+00 -0.00000000000E+00 -0.27655939874E+03  0.27655939874E+03  0.00000000000E+00 0. -1.
         -6    2    1    2    0  503  0.11159564266E+03 -0.12251573523E+02 -0.21836735535E+02  0.20627800605E+03  0.17166853016E+03 0.  0.
        -24    2    3    3    0    0  0.11330714337E+03 -0.28859887226E+02 -0.68004197238E+02  0.15695975548E+03  0.79626579542E+02 0.  0.
          6    2    1    2  501    0 -0.11159564266E+03  0.12251573523E+02 -0.97354980907E+02  0.22764907500E+03  0.17245990991E+03 0.  0.
         24    2    5    5    0    0 -0.10427338028E+03  0.64098931110E+02 -0.43882790541E+02  0.15266154832E+03  0.79988988139E+02 0.  0.
          5    1    5    5  501    0 -0.73222623736E+01 -0.51847357587E+02 -0.53472190366E+02  0.74987526680E+02  0.47000000000E+01 0. -1.
        -13    1    6    6    0    0 -0.68710817333E+02  0.15314514352E+00 -0.39738848952E+02  0.79374907798E+02  0.00000000000E+00 0.  1.
         14    1    6    6    0    0 -0.35562562950E+02  0.63945785967E+02 -0.41439415893E+01  0.73286640518E+02  0.00000000000E+00 0. -1.
         -5    1    3    3    0  503 -0.17115007127E+01  0.16608313702E+02  0.46167461703E+02  0.49318250565E+02  0.47000000000E+01 0.  1.
         13    1    4    4    0    0  0.12577357788E+03 -0.28250440871E+02 -0.60525253325E+02  0.14240922228E+03  0.00000000000E+00 0. -1.
        -14    1    4    4    0    0 -0.12466434509E+02 -0.60944635470E+00 -0.74789439127E+01  0.14550533196E+02  0.00000000000E+00 0.  1.
</event>
<event>
12    1  0.8358445E-002  0.1893782E+03  0.7818608E-02  0.1159204E+00
         21   -1    0    0  503  502  0.00000000000E+00  0.00000000000E+00  0.15756669679E+04  0.15756669679E+04  0.00000000000E+00 0. -1.
         21   -1    0    0  501  503 -0.00000000000E+00 -0.00000000000E+00 -0.50394924988E+02  0.50394924988E+02  0.00000000000E+00 0. -1.
          6    2    1    2  501    0 -0.76505770258E+02 -0.20134181172E+02  0.15882060553E+03  0.24654979350E+03  0.17118498124E+03 0.  0.
         24    2    3    3    0    0 -0.87225569393E+02  0.15163328992E+02  0.44200472060E+02  0.12604795404E+03  0.78078028192E+02 0.  0.
         -6    2    1    2    0  502  0.76505770258E+02  0.20134181172E+02  0.13664514374E+04  0.13795120994E+04  0.17206273124E+03 0.  0.
        -24    2    5    5    0    0  0.83818583176E+02  0.61727917897E+02  0.12207535223E+04  0.12277442219E+04  0.79251634309E+02 0.  0.
          5    1    3    3  501    0  0.10719799135E+02 -0.35297510164E+02  0.11462013347E+03  0.12050183946E+03  0.47000000000E+01 0. -1.
        -13    1    4    4    0    0  0.57058382497E+01 -0.66119408050E+01 -0.12334050729E+02  0.15113012893E+02  0.00000000000E+00 0.  1.
         14    1    4    4    0    0 -0.92931407643E+02  0.21775269797E+02  0.56534522788E+02  0.11093494115E+03  0.00000000000E+00 0. -1.
         -5    1    5    5    0  502 -0.73128129183E+01 -0.41593736725E+02  0.14569791514E+03  0.15176787751E+03  0.47000000000E+01 0.  1.
         13    1    6    6    0    0  0.97385253676E+02  0.62777676873E+02  0.10274822863E+04  0.10339945710E+04  0.00000000000E+00 0. -1.
        -14    1    6    6    0    0 -0.13566670500E+02 -0.10497589763E+01  0.19327123599E+03  0.19374965085E+03  0.00000000000E+00 0.  1.
</event>
<event>
12    1  0.8358445E-002  0.1722657E+03  0.7818608E-02  0.1175815E+00
         21   -1    0    0  501  502  0.00000000000E+00  0.00000000000E+00  0.29865563149E+03  0.29865563149E+03  0.00000000000E+00 0.  1.
         21   -1    0    0  502  503 -0.00000000000E+00 -0.00000000000E+00 -0.14411789468E+03  0.14411789468E+03  0.00000000000E+00 0.  1.
         -6    2    1    2    0  503 -0.10000231033E+02  0.13926974190E+02 -0.47237092904E+02  0.17746513281E+03  0.17020154285E+03 0.  0.
        -24    2    3    3    0    0  0.15069305093E+02 -0.38491037045E+02 -0.69035925965E+02  0.11522841803E+03  0.82480211931E+02 0.  0.
          6    2    1    2  501    0  0.10000231033E+02 -0.13926974190E+02  0.20177482972E+03  0.26530839336E+03  0.17141031606E+03 0.  0.
         24    2    5    5    0    0  0.70187773847E+02 -0.27627776710E+02  0.13798336994E+03  0.17641692785E+03  0.79961893491E+02 0.  0.
          5    1    5    5  501    0 -0.60187542814E+02  0.13700802520E+02  0.63791459781E+02  0.88891465511E+02  0.47000000000E+01 0. -1.
        -13    1    6    6    0    0  0.35175555958E+02 -0.36487021998E+02  0.12985911772E+03  0.13939875525E+03  0.00000000000E+00 0.  1.
         14    1    6    6    0    0  0.35012217888E+02  0.88592452884E+01  0.81242522162E+01  0.37018172600E+02  0.00000000000E+00 0. -1.
         -5    1    3    3    0  503 -0.25069536126E+02  0.52418011235E+02  0.21798833061E+02  0.62236714777E+02  0.47000000000E+01 0.  1.
         13    1    4    4    0    0 -0.10493689052E+00  0.63995484968E+01  0.16359378520E+02  0.17566857951E+02  0.00000000000E+00 0. -1.
        -14    1    4    4    0    0  0.15174241984E+02 -0.44890585542E+02 -0.85395304484E+02  0.97661560084E+02  0.00000000000E+00 0.  1.
</event>
<event>
12    1  0.8358445E-002  0.2257810E+03  0.7818608E-02  0.1129812E+00
         21   -1    0    0  503  502  0.00000000000E+00  0.00000000000E+00  0.11230313452E+03  0.11230313452E+03  0.00000000000E+00 0.  1.
         21   -1    0    0  501  503 -0.00000000000E+00 -0.00000000000E+00 -0.47881260282E+03  0.47881260282E+03  0.00000000000E+00 0. -1.
          6    2    1    2  501    0 -0.12354003741E+03 -0.79061038960E+02 -0.25346483513E+03  0.33944290612E+03  0.17165160978E+03 0.  0.
         24    2    3    3    0    0 -0.69303046978E+02  0.24137789888E+02 -0.12861838329E+03  0.16856173119E+03  0.80528401703E+02 0.  0.
         -6    2    1    2    0  502  0.12354003741E+03  0.79061038960E+02 -0.11304463316E+03  0.25167283123E+03  0.17043279076E+03 0.  0.
        -24    2    5    5    0    0  0.50469935209E+02  0.10852730696E+03 -0.88175935800E+02  0.16891992860E+03  0.80209450238E+02 0.  0.
          5    1    3    3  501    0 -0.54236990431E+02 -0.10319882885E+03 -0.12484645184E+03  0.17088117493E+03  0.47000000000E+01 0. -1.
        -13    1    4    4    0    0 -0.84095860378E+02  0.98508173976E+01 -0.83214193212E+02  0.11871711877E+03  0.00000000000E+00 0.  1.
         14    1    4    4    0    0  0.14792813399E+02  0.14286972490E+02 -0.45404190079E+02  0.49844612426E+02  0.00000000000E+00 0. -1.
         -5    1    5    5    0  502  0.73070102200E+02 -0.29466267999E+02 -0.24868697365E+02  0.82752902631E+02  0.47000000000E+01 0.  1.
         13    1    6    6    0    0 -0.19730859014E+02  0.45823515086E+02 -0.32908335469E+02  0.59766712103E+02  0.00000000000E+00 0. -1.
        -14    1    6    6    0    0  0.70200794223E+02  0.62703791873E+02 -0.55267600331E+02  0.10915321649E+03  0.00000000000E+00 0.  1.
</event>
<event>
12    1  0.8358445E-002  0.1938467E+03  0.7818608E-02  0.1155057E+00
         21   -1    0    0  503  502  0.00000000000E+00  0.00000000000E+00  0.51976542135E+03  0.51976542135E+03  0.00000000000E+00 0.  1.
         21   -1    0    0  501  503 -0.00000000000E+00 -0.00000000000E+00 -0.83626764316E+02  0.83626764316E+02  0.00000000000E+00 0. -1.
          6    2    1    2  501    0  0.16043633217E+02 -0.88966319490E+02  0.10688993872E+03  0.22136394365E+03  0.17147633184E+03 0.  0.
         24    2    3    3    0    0  0.18500481210E+02 -0.67844663997E+02  0.14333643367E+03  0.17890693684E+03  0.80729131012E+02 0.  0.
         -6    2    1    2    0  502 -0.16043633217E+02  0.88966319490E+02  0.32924871831E+03  0.38202824201E+03  0.17137227025E+03 0.  0.
        -24    2    5    5    0    0  0.27109985329E+02  0.76469077785E+02  0.10755690771E+03  0.15578111002E+03  0.78209939790E+02 0.  0.
          5    1    3    3  501    0 -0.24568479926E+01 -0.21121655493E+02 -0.36446494957E+02  0.42457006812E+02  0.47000000000E+01 0. -1.
        -11    1    4    4    0    0  0.23239898432E+02 -0.85431793681E+02  0.11346322142E+03  0.14391868143E+03  0.00000000000E+00 0.  1.
         12    1    4    4    0    0 -0.47394172218E+01  0.17587129684E+02  0.29873212254E+02  0.34988255408E+02  0.00000000000E+00 0. -1.
         -5    1    5    5    0  502 -0.43153618547E+02  0.12497241705E+02  0.22169181060E+03  0.22624713199E+03  0.47000000000E+01 0.  1.
         13    1    6    6    0    0  0.13867730903E+02  0.89990614917E+02  0.74319434168E+02  0.11753298698E+03  0.00000000000E+00 0. -1.
        -14    1    6    6    0    0  0.13242254426E+02 -0.13521537133E+02  0.33237473545E+02  0.38248123044E+02  0.00000000000E+00 0.  1.
</event>
<event>
12    1  0.8358445E-002  0.1897515E+03  0.7818608E-02  0.1158815E+00
         21   -1    0    0  501  502  0.00000000000E+00  0.00000000000E+00  0.54173027914E+03  0.54173027914E+03  0.00000000000E+00 0. -1.
         21   -1    0    0  502  503 -0.00000000000E+00 -0.00000000000E+00 -0.91866954841E+02  0.91866954841E+02  0.00000000000E+00 0.  1.
         -6    2    1    2    0  503 -0.21822503073E+02 -0.77051901404E+02  0.57933443605E+02  0.19839835553E+03  0.17202443559E+03 0.  0.
        -24    2    3    3    0    0 -0.11435251933E+01 -0.10276097099E+02  0.86532641547E+02  0.12272384007E+03  0.86407968659E+02 0.  0.
          6    2    1    2  501    0  0.21822503073E+02  0.77051901404E+02  0.39192988069E+03  0.43519887845E+03  0.17139374339E+03 0.  0.
         24    2    5    5    0    0 -0.50376974568E+02  0.31962758616E+02  0.24567895436E+03  0.26591444673E+03  0.82418971481E+02 0.  0.
          5    1    5    5  501    0  0.72199477641E+02  0.45089142788E+02  0.14625092633E+03  0.16928443172E+03  0.47000000000E+01 0. -1.
        -11    1    6    6    0    0 -0.18369790510E+01 -0.25898198408E+02  0.71422645821E+02  0.75995299255E+02  0.00000000000E+00 0.  1.
         12    1    6    6    0    0 -0.48539995517E+02  0.57860957024E+02  0.17425630854E+03  0.18991914748E+03  0.00000000000E+00 0. -1.
         -5    1    3    3    0  503 -0.20678977880E+02 -0.66775804305E+02 -0.28599197942E+02  0.75674515458E+02  0.47000000000E+01 0.  1.
         11    1    4    4    0    0 -0.40089142228E+02  0.12380956749E+02  0.40783703715E+02  0.58512715741E+02  0.00000000000E+00 0. -1.
        -12    1    4    4    0    0  0.38945617035E+02 -0.22657053847E+02  0.45748937832E+02  0.64211124332E+02  0.00000000000E+00 0.  1.
</event>
<event>
12    1  0.8358445E-002  0.1996371E+03  0.7818608E-02  0.1151832E+00
         21   -1    0    0  501  502  0.00000000000E+00  0.00000000000E+00  0.22968323498E+02  0.22968323498E+02  0.00000000000E+00 0.  1.
         21   -1    0    0  502  503 -0.00000000000E+00 -0.00000000000E+00 -0.19173486383E+04  0.19173486383E+04  0.00000000000E+00 0.  1.
         -6    2    1    2    0  503 -0.13558867748E+02  0.96378078341E+02 -0.13170482813E+04  0.13320927662E+04  0.17430543765E+03 0.  0.
        -24    2    3    3    0    0 -0.26777830588E+02 -0.97937626017E+01 -0.76569850339E+03  0.77043818517E+03  0.80422814381E+02 0.  0.
          6    2    1    2  501    0  0.13558867748E+02 -0.96378078341E+02 -0.57733203347E+03  0.60822419558E+03  0.16477808814E+03 0.  0.
         24    2    5    5    0    0  0.68215054929E+02 -0.50341369051E+02 -0.39847709323E+03  0.41556424372E+03  0.81988411822E+02 0.  0.
          5    1    5    5  501    0 -0.54656187181E+02 -0.46036709290E+02 -0.17885494024E+03  0.19265995185E+03  0.47000000000E+01 0. -1.
        -11    1    6    6    0    0  0.66575720355E+02 -0.46735483162E+02 -0.18550441219E+03  0.20255473056E+03  0.00000000000E+00 0.  1.
         12    1    6    6    0    0  0.16393345743E+01 -0.36058858890E+01 -0.21297268104E+03  0.21300951317E+03  0.00000000000E+00 0. -1.
         -5    1    3    3    0  503  0.13218962840E+02  0.10617184094E+03 -0.55134977792E+03  0.56165458103E+03  0.47000000000E+01 0.  1.
         13    1    4    4    0    0  0.14413351633E+02  0.14568212996E+01 -0.28189324820E+02  0.31693927926E+02  0.00000000000E+00 0. -1.
        -14    1    4    4    0    0 -0.41191182221E+02 -0.11250583901E+02 -0.73750917858E+03  0.73874425725E+03  0.00000000000E+00 0.  1.
</event>
<event>
12    1  0.8358445E-002  0.2077936E+03  0.7818608E-02  0.1143422E+00
         21   -1    0    0  501  502  0.00000000000E+00  0.00000000000E+00  0.53126738285E+03  0.53126738285E+03  0.00000000000E+00 0. -1.
         21   -1    0    0  502  503 -0.00000000000E+00 -0.00000000000E+00 -0.82615577635E+02  0.82615577635E+02  0.00000000000E+00 0.  1.
         -6    2    1    2    0  503  0.22149723396E+02 -0.11385184706E+03  0.18230136893E+03  0.27606537745E+03  0.17182971277E+03 0.  0.
        -24    2    3    3    0    0 -0.36993122121E+02 -0.43845665846E+02  0.14943245322E+03  0.17859129268E+03  0.79207690579E+02 0.  0.
          6    2    1    2  501    0 -0.22149723396E+02  0.11385184706E+03  0.26635043629E+03  0.33781758304E+03  0.17241029891E+03 0.  0.
         24    2    5    5    0    0 -0.57532407414E+02  0.19735738909E+02  0.12887272165E+03  0.16742982478E+03  0.87892494252E+02 0.  0.
          5    1    5    5  501    0  0.35382684018E+02  0.94116108149E+02  0.13747771464E+03  0.17038775826E+03  0.47000000000E+01 0. -1.
        -11    1    6    6    0    0  0.19531988728E+02  0.17759336887E+02  0.16414405211E+02  0.31085773736E+02  0.00000000000E+00 0.  1.
         12    1    6    6    0    0 -0.77064396142E+02  0.19764020217E+01  0.11245831644E+03  0.13634405104E+03  0.00000000000E+00 0. -1.
         -5    1    3    3    0  503  0.59142845517E+02 -0.70006181212E+02  0.32868915709E+02  0.97474084779E+02  0.47000000000E+01 0.  1.
         11    1    4    4    0    0 -0.20921403311E+02 -0.62136418416E+02  0.13552400757E+03  0.15055031132E+03  0.00000000000E+00 0. -1.
        -12    1    4    4    0    0 -0.16071718810E+02  0.18290752569E+02  0.13908445645E+02  0.28040981355E+02  0.00000000000E+00 0.  1.
</event>
<event>
12    1  0.8358445E-002  0.2787331E+03  0.7818608E-02  0.1096440E+00
         21   -1    0    0  503  502  0.00000000000E+00  0.00000000000E+00  0.31072416632E+03  0.31072416632E+03  0.00000000000E+00 0. -1.
         21   -1    0    0  501  503 -0.00000000000E+00 -0.00000000000E+00 -0.55306198147E+03  0.55306198147E+03  0.00000000000E+00 0. -1.
          6    2    1    2  501    0 -0.17445537481E+03  0.13171360284E+03 -0.44109545656E+03  0.52178286296E+03  0.17294219643E+03 0.  0.
         24    2    3    3    0    0 -0.36038390766E+02  0.24534379948E+02 -0.78958081658E+02  0.11952397171E+03  0.78427672059E+02 0.  0.
         -6    2    1    2    0  502  0.17445537481E+03 -0.13171360284E+03  0.19875764141E+03  0.34200328483E+03  0.17227447821E+03 0.  0.
        -24    2    5    5    0    0  0.15189986456E+02 -0.23505681133E+02  0.64577551429E+02  0.10726767868E+03  0.80949626349E+02 0.  0.
          5    1    3    3  501    0 -0.13841698404E+03  0.10717922289E+03 -0.36213737490E+03  0.40225889125E+03  0.47000000000E+01 0. -1.
        -13    1    4    4    0    0 -0.36501339793E+02  0.45585429954E+02 -0.28775826742E+02  0.65103206031E+02  0.00000000000E+00 0.  1.
         14    1    4    4    0    0  0.46294902667E+00 -0.21051050006E+02 -0.50182254916E+02  0.54420765675E+02  0.00000000000E+00 0. -1.
         -5    1    5    5    0  502  0.15926538835E+03 -0.10820792171E+03  0.13418008998E+03  0.23473560615E+03  0.47000000000E+01 0.  1.
         11    1    6    6    0    0  0.33547380035E+00 -0.13777586723E+02  0.81548828562E+02  0.82705174435E+02  0.00000000000E+00 0. -1.
        -12    1    6    6    0    0  0.14854512655E+02 -0.97280944100E+01 -0.16971277133E+02  0.24562504241E+02  0.00000000000E+00 0.  1.
</event>
<event>
12    1  0.8358445E-002  0.1884509E+03  0.7818608E-02  0.1161300E+00
         21   -1    0    0  501  502  0.00000000000E+00  0.00000000000E+00  0.74865711504E+02  0.74865711504E+02  0.00000000000E+00 0. -1.
         21   -1    0    0  502  503 -0.00000000000E+00 -0.00000000000E+00 -0.60531672034E+03  0.60531672034E+03  0.00000000000E+00 0.  1.
         -6    2    1    2    0  503 -0.51287753344E+01  0.60441341287E+02 -0.43580587648E+03  0.47480573860E+03  0.17842160004E+03 0.  0.
        -24    2    3    3    0    0  0.41338897722E+02  0.34359728706E+02 -0.11613466347E+03  0.15068960266E+03  0.79565073161E+02 0.  0.
          6    2    1    2  501    0  0.51287753344E+01 -0.60441341287E+02 -0.94645132353E+02  0.20537669324E+03  0.17187909988E+03 0.  0.
         24    2    5    5    0    0  0.32915303301E+02  0.11118046521E+02 -0.92743952151E+02  0.12844463486E+03  0.81789702377E+02 0.  0.
          5    1    5    5  501    0 -0.27786527966E+02 -0.71559387808E+02 -0.19011802015E+01  0.76932058376E+02  0.47000000000E+01 0. -1.
        -11    1    6    6    0    0  0.28242266622E+02 -0.20790690957E+02 -0.89388082662E+02  0.96021392286E+02  0.00000000000E+00 0.  1.
         12    1    6    6    0    0  0.46730366784E+01  0.31908737478E+02 -0.33558694890E+01  0.32423242578E+02  0.00000000000E+00 0. -1.
         -5    1    3    3    0  503 -0.46467673056E+02  0.26081612581E+02 -0.31967121301E+03  0.32411613595E+03  0.47000000000E+01 0.  1.
         11    1    4    4    0    0  0.31511101642E+02 -0.20996380978E+02 -0.61958854823E+02  0.72613340591E+02  0.00000000000E+00 0. -1.
        -12    1    4    4    0    0  0.98277960805E+01  0.55356109685E+02 -0.54175808652E+02  0.78076262067E+02  0.00000000000E+00 0.  1.
</event>
<event>
12    1  0.8358445E-002  0.2546532E+03  0.7818608E-02  0.1111026E+00
         21   -1    0    0  501  502  0.00000000000E+00  0.00000000000E+00  0.56593308302E+03  0.56593308302E+03  0.00000000000E+00 0.  1.
         21   -1    0    0  502  503 -0.00000000000E+00 -0.00000000000E+00 -0.19750770461E+03  0.19750770461E+03  0.00000000000E+00 0. -1.
         -6    2    1    2    0  503 -0.76259857602E+02 -0.16861232067E+03 -0.64958555021E+02  0.26280767688E+03  0.17493593282E+03 0.  0.
        -24    2    3    3    0    0 -0.92275791878E+02 -0.68705661621E+02  0.13820144216E+00  0.14240199439E+03  0.83922697767E+02 0.  0.
          6    2    1    2  501    0  0.76259857602E+02  0.16861232067E+03  0.43338393343E+03  0.50063311075E+03  0.16901537580E+03 0.  0.
         24    2    5    5    0    0  0.79622359696E+02  0.19313260617E+03  0.40270811519E+03  0.46093869495E+03  0.81552012442E+02 0.  0.
          5    1    5    5  501    0 -0.33625020943E+01 -0.24520285492E+02  0.30675818239E+02  0.39694415799E+02  0.47000000000E+01 0. -1.
        -11    1    6    6    0    0 -0.29660409391E+01  0.28464591966E+02  0.12104271127E+03  0.12437993547E+03  0.00000000000E+00 0.  1.
         12    1    6    6    0    0  0.82588400635E+02  0.16466801420E+03  0.28166540392E+03  0.33655875949E+03  0.00000000000E+00 0. -1.
         -5    1    3    3    0  503  0.16015934277E+02 -0.99906659051E+02 -0.65096756463E+02  0.12040568249E+03  0.47000000000E+01 0.  1.
         11    1    4    4    0    0 -0.90461970918E+02 -0.72499762945E+02 -0.23589170613E+02  0.11830482991E+03  0.00000000000E+00 0. -1.
        -12    1    4    4    0    0 -0.18138209604E+01  0.37941013231E+01  0.23727372055E+02  0.24097164480E+02  0.00000000000E+00 0.  1.
</event>
<event>
12    1  0.8358445E-002  0.1729098E+03  0.7818608E-02  0.1174851E+00
         21   -1    0    0  503  502  0.00000000000E+00  0.00000000000E+00  0.11266141585E+04  0.11266141585E+04  0.00000000000E+00 0.  1.
         21   -1    0    0  501  503 -0.00000000000E+00 -0.00000000000E+00 -0.27163583000E+02  0.27163583000E+02  0.00000000000E+00 0.  1.
          6    2    1    2  501    0 -0.12830210427E+02 -0.12630783209E+02  0.46200581086E+03  0.49330231063E+03  0.17196990850E+03 0.  0.
         24    2    3    3    0    0 -0.69076181677E+02  0.16251786164E+02  0.24710774040E+03  0.26924632928E+03  0.79973189487E+02 0.  0.
         -6    2    1    2    0  502  0.12830210427E+02  0.12630783209E+02  0.63744476466E+03  0.66047543088E+03  0.17195294653E+03 0.  0.
        -24    2    5    5    0    0 -0.41183518116E+02  0.50002001871E+02  0.44954846910E+03  0.46137445464E+03  0.81094259768E+02 0.  0.
          5    1    3    3  501    0  0.56245971250E+02 -0.28882569373E+02  0.21489807046E+03  0.22405598136E+03  0.47000000000E+01 0. -1.
        -13    1    4    4    0    0 -0.43494411918E+02  0.34160305111E+02  0.69035235786E+02  0.88456509615E+02  0.00000000000E+00 0.  1.
         14    1    4    4    0    0 -0.25581769759E+02 -0.17908518947E+02  0.17807250461E+03  0.18078981966E+03  0.00000000000E+00 0. -1.
         -5    1    5    5    0  502  0.54013728542E+02 -0.37371218662E+02  0.18789629556E+03  0.19910097624E+03  0.47000000000E+01 0.  1.
         11    1    6    6    0    0 -0.43237075105E+02  0.27246492531E+02  0.11263259766E+03  0.12368475280E+03  0.00000000000E+00 0. -1.
        -12    1    6    6    0    0  0.20535569893E+01  0.22755509340E+02  0.33691587143E+03  0.33768970184E+03  0.00000000000E+00 0.  1.
</event>
<event>
12    1  0.8358445E-002  0.2021455E+03  0.7818608E-02  0.1147969E+00
         21   -1    0    0  501  502  0.00000000000E+00  0.00000000000E+00  0.45520611063E+03  0.45520611063E+03  0.00000000000E+00 0. -1.
         21   -1    0    0  502  503 -0.00000000000E+00 -0.00000000000E+00 -0.10671776873E+03  0.10671776873E+03  0.00000000000E+00 0. -1.
         -6    2    1    2    0  503  0.10567815891E+03 -0.33959617271E+00  0.62122492284E+02  0.21147581413E+03  0.17232187127E+03 0.  0.
        -24    2    3    3    0    0  0.13885329429E+03 -0.21034332476E+02  0.57610425198E+02  0.17183605546E+03  0.80535634275E+02 0.  0.
          6    2    1    2  501    0 -0.10567815891E+03  0.33959617271E+00  0.28636584962E+03  0.35044806523E+03  0.17216404386E+03 0.  0.
         24    2    5    5    0    0 -0.89469874921E+02 -0.33961725018E+02  0.28713872332E+03  0.31221226474E+03  0.76613279156E+02 0.  0.
          5    1    5    5  501    0 -0.16208283990E+02  0.34301321190E+02 -0.77287369283E+00  0.38235800489E+02  0.47000000000E+01 0. -1.
        -11    1    6    6    0    0 -0.40599213099E+01 -0.21887630867E+02  0.15289453441E+02  0.27005901809E+02  0.00000000000E+00 0.  1.
         12    1    6    6    0    0 -0.85409953611E+02 -0.12074094151E+02  0.27184926988E+03  0.28520636293E+03  0.00000000000E+00 0. -1.
         -5    1    3    3    0  503 -0.33175135375E+02  0.20694736304E+02  0.45120670855E+01  0.39639758667E+02  0.47000000000E+01 0.  1.
         13    1    4    4    0    0  0.18996566715E+02 -0.45209108448E+01  0.46384724133E+02  0.50327436004E+02  0.00000000000E+00 0. -1.
        -14    1    4    4    0    0  0.11985672757E+03 -0.16513421631E+02  0.11225701065E+02  0.12150861946E+03  0.00000000000E+00 0.  1.
</event>
<event>
12    1  0.8358445E-002  0.2329846E+03  0.7818608E-02  0.1124781E+00
         21   -1    0    0  503  502  0.00000000000E+00  0.00000000000E+00  0.49417709102E+03  0.49417709102E+03  0.00000000000E+00 0.  1.
         21   -1    0    0  501  503 -0.00000000000E+00 -0.00000000000E+00 -0.20026305907E+03  0.20026305907E+03  0.00000000000E+00 0. -1.
          6    2    1    2  501    0 -0.81716054504E+02  0.13412674172E+03 -0.86914660081E+02  0.24866846173E+03  0.17208820214E+03 0.  0.
         24    2    3    3    0    0 -0.91175449522E+02  0.84211691585E+02  0.20859921969E+01  0.14608094548E+03  0.77011165911E+02 0.  0.
         -6    2    1    2    0  502  0.81716054504E+02 -0.13412674172E+03  0.38082869203E+03  0.44577168836E+03  0.17033616487E+03 0.  0.
        -24    2    5    5    0    0  0.12025355130E+03 -0.11825829307E+03  0.27771240340E+03  0.33445230414E+03  0.79298324479E+02 0.  0.
          5    1    3    3  501    0  0.94593950186E+01  0.49915050133E+02 -0.89000652278E+02  0.10258751625E+03  0.47000000000E+01 0. -1.
        -11    1    4    4    0    0 -0.45719673670E+02  0.50101770678E+02  0.39071025283E+02  0.78275289857E+02  0.00000000000E+00 0.  1.
         12    1    4    4    0    0 -0.45455775852E+02  0.34109920907E+02 -0.36985033086E+02  0.67805655627E+02  0.00000000000E+00 0. -1.
         -5    1    5    5    0  502 -0.38537496795E+02 -0.15868448647E+02  0.10311628863E+03  0.11131938422E+03  0.47000000000E+01 0.  1.
         11    1    6    6    0    0  0.39671090024E+02  0.38197070071E+01  0.66645941020E+02  0.77653506036E+02  0.00000000000E+00 0. -1.
        -12    1    6    6    0    0  0.80582461276E+02 -0.12207800008E+03  0.21106646238E+03  0.25679879811E+03  0.00000000000E+00 0.  1.
</event>
<event>
12    1  0.8358445E-002  0.2076240E+03  0.7818608E-02  0.1143484E+00
         21   -1    0    0  501  502  0.00000000000E+00  0.00000000000E+00  0.35412789534E+02  0.35412789534E+02  0.00000000000E+00 0.  1.
         21   -1    0    0  502  503 -0.00000000000E+00 -0.00000000000E+00 -0.18823842514E+04  0.18823842514E+04  0.00000000000E+00 0.  1.
         -6    2    1    2    0  503  0.45496206124E+02  0.10740478436E+03 -0.14938988163E+04  0.15082577303E+04  0.17176150613E+03 0.  0.
        -24    2    3    3    0    0 -0.19476292266E+02  0.45712830648E+02 -0.11409012820E+04  0.11440370940E+04  0.68528447591E+02 0.  0.
          6    2    1    2  501    0 -0.45496206124E+02 -0.10740478436E+03 -0.35307264550E+03  0.40953931063E+03  0.17162884804E+03 0.  0.
         24    2    5    5    0    0 -0.83965942429E+02 -0.86449856389E+02 -0.32905302582E+03  0.35935901821E+03  0.79618798119E+02 0.  0.
          5    1    5    5  501    0  0.38469736305E+02 -0.20954927973E+02 -0.24019619680E+02  0.50180292419E+02  0.47000000000E+01 0. -1.
        -13    1    6    6    0    0 -0.45871267128E+02 -0.80322319998E+02 -0.15024429087E+03  0.17643467680E+03  0.00000000000E+00 0.  1.
         14    1    6    6    0    0 -0.38094675301E+02 -0.61275363909E+01 -0.17880873495E+03  0.18292434142E+03  0.00000000000E+00 0. -1.
         -5    1    3    3    0  503  0.64972498390E+02  0.61691953714E+02 -0.35299753428E+03  0.36422063630E+03  0.47000000000E+01 0.  1.
         11    1    4    4    0    0 -0.37255838630E+02  0.53528712235E+02 -0.88566134180E+03  0.88805930709E+03  0.00000000000E+00 0. -1.
        -12    1    4    4    0    0  0.17779546364E+02 -0.78158815872E+01 -0.25523994024E+03  0.25597778686E+03  0.00000000000E+00 0.  1.
</event>
<event>
12    1  0.8358445E-002  0.1812996E+03  0.7818608E-02  0.1166908E+00
         21   -1    0    0  501  502  0.00000000000E+00  0.00000000000E+00  0.79654605644E+02  0.79654605644E+02  0.00000000000E+00 0. -1.
         21   -1    0    0  502  503 -0.00000000000E+00 -0.00000000000E+00 -0.55819217562E+03  0.55819217562E+03  0.00000000000E+00 0. -1.
         -6    2    1    2    0  503 -0.32297722193E+02 -0.41154430291E+02 -0.40327169796E+03  0.44154473336E+03  0.17203737732E+03 0.  0.
        -24    2    3    3    0    0 -0.54093625310E+02 -0.27661261510E+02 -0.40335669465E+03  0.41548280287E+03  0.78981457808E+02 0.  0.
          6    2    1    2  501    0  0.32297722193E+02  0.41154430291E+02 -0.75265872022E+02  0.19630204790E+03  0.17358776607E+03 0.  0.
         24    2    5    5    0    0  0.44742748455E+02  0.37122578339E+02 -0.11565531068E+03  0.15358751567E+03  0.82661809303E+02 0.  0.
          5    1    5    5  501    0 -0.12445026262E+02  0.40318519520E+01  0.40389438663E+02  0.42714532238E+02  0.47000000000E+01 0. -1.
        -13    1    6    6    0    0  0.45366216664E+02  0.18431073287E+01 -0.10845494802E+03  0.11757536480E+03  0.00000000000E+00 0.  1.
         14    1    6    6    0    0 -0.62346820988E+00  0.35279471011E+02 -0.72003626689E+01  0.36012150865E+02  0.00000000000E+00 0. -1.
         -5    1    3    3    0  503  0.21795903117E+02 -0.13493168781E+02  0.84996689132E-01  0.26061930491E+02  0.47000000000E+01 0.  1.
         11    1    4    4    0    0 -0.22421490772E+02 -0.30781463078E+02 -0.62814230309E+02  0.73456444558E+02  0.00000000000E+00 0. -1.
        -12    1    4    4    0    0 -0.31672134538E+02  0.31202015683E+01 -0.34054246434E+03  0.34202635831E+03  0.00000000000E+00 0.  1.
</event>
<event>
12    1  0.8358445E-002  0.1759113E+03  0.7818608E-02  0.1171821E+00
         21   -1    0    0  503  502  0.00000000000E+00  0.00000000000E+00  0.15878415612E+03  0.15878415612E+03  0.00000000000E+00 0.  1.
         21   -1    0    0  501  503 -0.00000000000E+00 -0.00000000000E+00 -0.28137892844E+03  0.28137892844E+03  0.00000000000E+00 0.  1.
          6    2    1    2  501    0 -0.11128433478E+02  0.36387547011E+02 -0.18332125904E+03  0.25406979511E+03  0.17174656085E+03 0.  0.
         24    2    3    3    0    0  0.39798502503E+02  0.66134350479E+01 -0.38185412609E+02  0.97332580420E+02  0.79924008599E+02 0.  0.
         -6    2    1    2    0  502  0.11128433478E+02 -0.36387547011E+02  0.60726486723E+02  0.18609328945E+03  0.17174140613E+03 0.  0.
        -24    2    5    5    0    0 -0.68551364801E+01  0.35001082167E+02  0.69903749598E+02  0.11175583376E+03  0.79566095307E+02 0.  0.
          5    1    3    3  501    0 -0.50926935981E+02  0.29774111963E+02 -0.14513584643E+03  0.15673721469E+03  0.47000000000E+01 0. -1.
        -13    1    4    4    0    0  0.10004417800E+02  0.21788091290E+02 -0.54932903863E+02  0.59936910368E+02  0.00000000000E+00 0.  1.
         14    1    4    4    0    0  0.29794084703E+02 -0.15174656243E+02  0.16747491254E+02  0.37395670053E+02  0.00000000000E+00 0. -1.
         -5    1    5    5    0  502  0.17983569958E+02 -0.71388629177E+02 -0.91772628748E+01  0.74337455688E+02  0.47000000000E+01 0.  1.
         11    1    6    6    0    0  0.18131122098E+02 -0.68826420454E+01 -0.70617174769E+01  0.20639190967E+02  0.00000000000E+00 0. -1.
        -12    1    6    6    0    0 -0.24986258578E+02  0.41883724212E+02  0.76965467075E+02  0.91116642792E+02  0.00000000000E+00 0.  1.
</event>
<event>
12    1  0.8358445E-002  0.2278414E+03  0.7818608E-02  0.1128207E+00
         21   -1    0    0  501  502  0.00000000000E+00  0.00000000000E+00  0.80625224131E+02  0.80625224131E+02  0.00000000000E+00 0.  1.
         21   -1    0    0  502  503 -0.00000000000E+00 -0.00000000000E+00 -0.10857295101E+04  0.10857295101E+04  0.00000000000E+00 0.  1.
         -6    2    1    2    0  503 -0.79849582273E+02 -0.12717219694E+03 -0.87470452616E+03  0.90383652168E+03  0.17106643847E+03 0.  0.
        -24    2    3    3    0    0 -0.49956811762E+02 -0.57227838494E+02 -0.24343156952E+03  0.26798007028E+03  0.82363101479E+02 0.  0.
          6    2    1    2  501    0  0.79849582273E+02  0.12717219694E+03 -0.13039975981E+03  0.26251821255E+03  0.17135632787E+03 0.  0.
         24    2    5    5    0    0  0.17195549519E+02  0.13481440016E+03 -0.60309743448E+02  0.16807970619E+03  0.78376738033E+02 0.  0.
          5    1    5    5  501    0  0.62654032754E+02 -0.76422032247E+01 -0.70090016361E+02  0.94438506362E+02  0.47000000000E+01 0. -1.
        -13    1    6    6    0    0 -0.14696974807E+02  0.72643967896E+02  0.24540549875E+01  0.74156385606E+02  0.00000000000E+00 0.  1.
         14    1    6    6    0    0  0.31892524326E+02  0.62170432264E+02 -0.62763798436E+02  0.93923320586E+02  0.00000000000E+00 0. -1.
         -5    1    3    3    0  503 -0.29892770511E+02 -0.69944358442E+02 -0.63127295664E+03  0.63585645140E+03  0.47000000000E+01 0.  1.
         11    1    4    4    0    0 -0.65151228202E+02 -0.18054130913E+02 -0.12193228594E+03  0.13942064601E+03  0.00000000000E+00 0. -1.
        -12    1    4    4    0    0  0.15194416440E+02 -0.39173707581E+02 -0.12149928359E+03  0.12855942427E+03  0.00000000000E+00 0.  1.
</event>
<event>
12    1  0.8358445E-002  0.4112285E+03  0.7818608E-02  0.1040031E+00
         21   -1    0    0  501  502  0.00000000000E+00  0.00000000000E+00  0.66954181784E+02  0.66954181784E+02  0.00000000000E+00 0.  1.
         21   -1    0    0  502  503 -0.00000000000E+00 -0.00000000000E+00 -0.29288318307E+04  0.29288318307E+04  0.00000000000E+00 0. -1.
         -6    2    1    2    0  503 -0.30485405963E+03 -0.21451088883E+03 -0.19889613741E+04  0.20308550772E+04  0.17162190305E+03 0.  0.
        -24    2    3    3    0    0 -0.30805582493E+03 -0.17120917792E+03 -0.18565645474E+04  0.18914409488E+04  0.80659594416E+02 0.  0.
          6    2    1    2  501    0  0.30485405963E+03  0.21451088883E+03 -0.87291627482E+03  0.96493093534E+03  0.17366049648E+03 0.  0.
         24    2    5    5    0    0  0.16763021733E+03  0.90587616782E+02 -0.60001944766E+03  0.63526120891E+03  0.85014468791E+02 0.  0.
          5    1    5    5  501    0  0.13722384230E+03  0.12392327205E+03 -0.27289682716E+03  0.32966972643E+03  0.47000000000E+01 0. -1.
        -11    1    6    6    0    0  0.14241036705E+03  0.34028295757E+02 -0.40575633231E+03  0.43136624667E+03  0.00000000000E+00 0.  1.
         12    1    6    6    0    0  0.25219850275E+02  0.56559321025E+02 -0.19426311535E+03  0.20389496225E+03  0.00000000000E+00 0. -1.
         -5    1    3    3    0  503  0.32017653048E+01 -0.43301710908E+02 -0.13239682674E+03  0.13941412841E+03  0.47000000000E+01 0.  1.
         13    1    4    4    0    0 -0.60643211328E+02  0.47745688312E-01 -0.30859565944E+03  0.31449782572E+03  0.00000000000E+00 0. -1.
        -14    1    4    4    0    0 -0.24741261361E+03 -0.17125692361E+03 -0.15479688880E+04  0.15769431230E+04  0.00000000000E+00 0.  1.
</event>
<event>
12    1  0.8358445E-002  0.2095727E+03  0.7818608E-02  0.1142051E+00
         21   -1    0    0  501  502  0.00000000000E+00  0.00000000000E+00  0.89358455043E+03  0.89358455043E+03  0.00000000000E+00 0.  1.
         21   -1    0    0  502  503 -0.00000000000E+00 -0.00000000000E+00 -0.14018180154E+03  0.14018180154E+03  0.00000000000E+00 0. -1.
         -6    2    1    2    0  503 -0.48758006846E+02  0.10849551275E+03 -0.40446710117E+02  0.21271966011E+03  0.17165400642E+03 0.  0.
        -24    2    3    3    0    0 -0.44088274549E+02  0.10789116775E+03 -0.86876869697E+02  0.16581527491E+03  0.79767379763E+02 0.  0.
          6    2    1    2  501    0  0.48758006846E+02 -0.10849551275E+03  0.79384945901E+03  0.82104669186E+03  0.17254589863E+03 0.  0.
         24    2    5    5    0    0  0.73335757873E+02 -0.15793098457E+02  0.31576295397E+03  0.33341301813E+03  0.76357332431E+02 0.  0.
          5    1    5    5  501    0 -0.24577751027E+02 -0.92702414292E+02  0.47808650504E+03  0.48763367373E+03  0.47000000000E+01 0. -1.
        -13    1    6    6    0    0  0.17589299501E+02 -0.33412977946E+02  0.58779735885E+02  0.69863208507E+02  0.00000000000E+00 0.  1.
         14    1    6    6    0    0  0.55746458372E+02  0.17619879489E+02  0.25698321808E+03  0.26354980962E+03  0.00000000000E+00 0. -1.
         -5    1    3    3    0  503 -0.46697322972E+01  0.60434499809E+00  0.46430159580E+02  0.46904385203E+02  0.47000000000E+01 0.  1.
         11    1    4    4    0    0  0.18713120589E+02  0.12151225516E+02 -0.31567765811E+02  0.38656914026E+02  0.00000000000E+00 0. -1.
        -12    1    4    4    0    0 -0.62801395138E+02  0.95739942234E+02 -0.55309103886E+02  0.12715836089E+03  0.00000000000E+00 0.  1.
</event>
<event>
12    1  0.8358445E-002  0.3167082E+03  0.7818608E-02  0.1077278E+00
         21   -1    0    0  503  502  0.00000000000E+00  0.00000000000E+00  0.34047014434E+03  0.34047014434E+03  0.00000000000E+00 0. -1.
         21   -1    0    0  501  503 -0.00000000000E+00 -0.00000000000E+00 -0.40305707515E+03  0.40305707515E+03  0.00000000000E+00 0.  1.
          6    2    1    2  501    0 -0.19559467941E+03 -0.17985615710E+03 -0.22483872111E+03  0.38767650652E+03  0.17069009149E+03 0.  0.
         24    2    3    3    0    0 -0.12439305348E+03 -0.19298133033E+03 -0.17404412586E+03  0.29910945499E+03  0.80372151350E+02 0.  0.
         -6    2    1    2    0  502  0.19559467941E+03  0.17985615710E+03  0.16225179031E+03  0.35585071297E+03  0.17233273224E+03 0.  0.
        -24    2    5    5    0    0  0.10096048717E+03  0.18028181288E+03  0.12300519521E+03  0.25329245269E+03  0.79575351189E+02 0.  0.
          5    1    3    3  501    0 -0.71201625936E+02  0.13125173229E+02 -0.50794595255E+02  0.88567051522E+02  0.47000000000E+01 0. -1.
        -13    1    4    4    0    0 -0.21558587123E+02 -0.39534491873E+02 -0.80062931062E+02  0.91857616215E+02  0.00000000000E+00 0.  1.
         14    1    4    4    0    0 -0.10283446635E+03 -0.15344683845E+03 -0.93981194797E+02  0.20725183878E+03  0.00000000000E+00 0. -1.
         -5    1    5    5    0  502  0.94634192241E+02 -0.42565578735E+00  0.39246595098E+02  0.10255826028E+03  0.47000000000E+01 0.  1.
         13    1    6    6    0    0  0.20734963043E+02  0.11808581704E+03  0.68149711025E+02  0.13790787502E+03  0.00000000000E+00 0. -1.
        -14    1    6    6    0    0  0.80225524130E+02  0.62195995840E+02  0.54855484183E+02  0.11538457768E+03  0.00000000000E+00 0.  1.
</event>
<event>
12    1  0.8358445E-002  0.1884824E+03  0.7818608E-02  0.1161648E+00
         21   -1    0    0  503  502  0.00000000000E+00  0.00000000000E+00  0.22995054279E+02  0.22995054279E+02  0.00000000000E+00 0. -1.
         21   -1    0    0  501  503 -0.00000000000E+00 -0.00000000000E+00 -0.15055577647E+04  0.15055577647E+04  0.00000000000E+00 0.  1.
          6    2    1    2  501    0 -0.31066082237E+02  0.51621880971E+02 -0.66084627217E+03  0.68719968023E+03  0.17859363092E+03 0.  0.
         24    2    3    3    0    0  0.11672336881E+02  0.51369324148E+02 -0.62229442489E+03  0.62945047086E+03  0.78628831283E+02 0.  0.
         -6    2    1    2    0  502  0.31066082237E+02 -0.51621880971E+02 -0.82171643829E+03  0.84135313880E+03  0.17037393914E+03 0.  0.
        -24    2    5    5    0    0 -0.26352594582E+02 -0.83030318722E+02 -0.51083982161E+03  0.52362722671E+03  0.75097644045E+02 0.  0.
          5    1    3    3  501    0 -0.42738419117E+02  0.25255682275E+00 -0.38551847282E+02  0.57749209366E+02  0.47000000000E+01 0. -1.
        -11    1    4    4    0    0  0.13799875394E+01  0.11954891016E+00 -0.43489196271E+03  0.43489416861E+03  0.00000000000E+00 0.  1.
         12    1    4    4    0    0  0.10292349341E+02  0.51249775238E+02 -0.18740246218E+03  0.19455630226E+03  0.00000000000E+00 0. -1.
         -5    1    5    5    0  502  0.57418676819E+02  0.31408437751E+02 -0.31087661669E+03  0.31772591209E+03  0.47000000000E+01 0.  1.
         13    1    6    6    0    0 -0.28779557134E+02 -0.41026650255E+00 -0.19672740674E+03  0.19882178902E+03  0.00000000000E+00 0. -1.
        -14    1    6    6    0    0  0.24269625517E+01 -0.82620052219E+02 -0.31411241487E+03  0.32480543769E+03  0.00000000000E+00 0.  1.
</event>
<event>
12    1  0.8358445E-002  0.2086555E+03  0.7818608E-02  0.1143124E+00
         21   -1    0    0  501  502  0.00000000000E+00  0.00000000000E+00  0.27291638191E+02  0.27291638191E+02  0.00000000000E+00 0.  1.
         21   -1    0    0  502  503 -0.00000000000E+00 -0.00000000000E+00 -0.16205871230E+04  0.16205871230E+04  0.00000000000E+00 0. -1.
         -6    2    1    2    0  503  0.58860686336E+02 -0.10343136522E+03 -0.66561927564E+03  0.69755726958E+03  0.17138989623E+03 0.  0.
        -24    2    3    3    0    0 -0.60842172209E+01 -0.11385837260E+03 -0.38342687921E+03  0.40776216682E+03  0.79076331956E+02 0.  0.
          6    2    1    2  501    0 -0.58860686336E+02  0.10343136522E+03 -0.92767620920E+03  0.95032149164E+03  0.16841959701E+03 0.  0.
         24    2    5    5    0    0  0.26373425278E+02  0.80369931247E+02 -0.47512020087E+03  0.48920793275E+03  0.80189231087E+02 0.  0.
          5    1    5    5  501    0 -0.85234111613E+02  0.23061433970E+02 -0.45255600833E+03  0.46111355889E+03  0.47000000000E+01 0. -1.
        -11    1    6    6    0    0 -0.10461491448E+02  0.18074608849E+02 -0.21958030104E+02  0.30303289828E+02  0.00000000000E+00 0.  1.
         12    1    6    6    0    0  0.36834916726E+02  0.62295322398E+02 -0.45316217077E+03  0.45890464292E+03  0.00000000000E+00 0. -1.
         -5    1    3    3    0  503  0.64944903557E+02  0.10427007388E+02 -0.28219239643E+03  0.28979510276E+03  0.47000000000E+01 0.  1.
         11    1    4    4    0    0  0.13740941235E+00 -0.12552199924E+03 -0.34499450319E+03  0.36711986926E+03  0.00000000000E+00 0. -1.
        -12    1    4    4    0    0 -0.62216266332E+01  0.11663626633E+02 -0.38432376027E+02  0.40642297564E+02  0.00000000000E+00 0.  1.
</event>
<event>
12    1  0.8358445E-002  0.1889566E+03  0.7818608E-02  0.1160004E+00
         21   -1    0    0  503  502  0.00000000000E+00  0.00000000000E+00  0.14828726435E+03  0.14828726435E+03  0.00000000000E+00 0. -1.
         21   -1    0    0  501  503 -0.00000000000E+00 -0.00000000000E+00 -0.33689696264E+03  0.33689696264E+03  0.00000000000E+00 0. -1.
          6    2    1    2  501    0 -0.19228643813E+02 -0.62938616846E+02 -0.22563561539E+03  0.29263417468E+03  0.17433392964E+03 0.  0.
         24    2    3    3    0    0 -0.71622404706E+02 -0.90451301142E+01 -0.99111622506E+02  0.14539279168E+03  0.78130448107E+02 0.  0.
         -6    2    1    2    0  502  0.19228643813E+02  0.62938616846E+02  0.37025917097E+02  0.19255005231E+03  0.17712592660E+03 0.  0.
        -24    2    5    5    0    0  0.63664234352E+02 -0.77157799360E+01  0.34027253694E+02  0.10889810987E+03  0.81168197857E+02 0.  0.
          5    1    3    3  501    0  0.52393760893E+02 -0.53893486732E+02 -0.12652399289E+03  0.14724138300E+03  0.47000000000E+01 0. -1.
        -11    1    4    4    0    0 -0.36888751816E+02  0.22595399711E+02 -0.96178604484E+01  0.44315181803E+02  0.00000000000E+00 0.  1.
         12    1    4    4    0    0 -0.34733652890E+02 -0.31640529825E+02 -0.89493762058E+02  0.10107760987E+03  0.00000000000E+00 0. -1.
         -5    1    5    5    0  502 -0.44435590539E+02  0.70654396782E+02  0.29986634037E+01  0.83651942437E+02  0.47000000000E+01 0.  1.
         11    1    6    6    0    0  0.31282788651E+02  0.32767377006E+02  0.34681107613E+02  0.57053423095E+02  0.00000000000E+00 0. -1.
        -12    1    6    6    0    0  0.32381445701E+02 -0.40483156942E+02 -0.65385391899E+00  0.51844686773E+02  0.00000000000E+00 0.  1.
</event>
<event>
12    1  0.8358445E-002  0.1768117E+03  0.7818608E-02  0.1171104E+00
         21   -1    0    0  501  502  0.00000000000E+00  0.00000000000E+00  0.39916901137E+03  0.39916901137E+03  0.00000000000E+00 0. -1.
         21   -1    0    0  502  503 -0.00000000000E+00 -0.00000000000E+00 -0.15602679124E+03  0.15602679124E+03  0.00000000000E+00 0. -1.
         -6    2    1    2    0  503 -0.36793497222E+02  0.52058777903E+01 -0.74861259803E+02  0.19134335417E+03  0.17212555988E+03 0.  0.
        -24    2    3    3    0    0  0.23693838352E+02  0.42217269109E+02 -0.76257722532E+02  0.12026170421E+03  0.79397364361E+02 0.  0.
          6    2    1    2  501    0  0.36793497222E+02 -0.52058777903E+01  0.31800347994E+03  0.36385244844E+03  0.17286274434E+03 0.  0.
         24    2    5    5    0    0  0.31646403602E+02 -0.66750870932E+02  0.16483652147E+03  0.19863596645E+03  0.82631681138E+02 0.  0.
          5    1    5    5  501    0  0.51470936200E+01  0.61544993142E+02  0.15316695847E+03  0.16521648199E+03  0.47000000000E+01 0. -1.
        -13    1    6    6    0    0  0.26528667980E+02  0.12465808896E+02  0.63255093412E+02  0.69716378698E+02  0.00000000000E+00 0.  1.
         14    1    6    6    0    0  0.51177356222E+01 -0.79216679828E+02  0.10158142806E+03  0.12891958775E+03  0.00000000000E+00 0. -1.
         -5    1    3    3    0  503 -0.60487335574E+02 -0.37011391319E+02  0.13964627287E+01  0.71081649955E+02  0.47000000000E+01 0.  1.
         13    1    4    4    0    0 -0.28907265650E+02  0.75984391210E+01 -0.27582875781E+02  0.40671627958E+02  0.00000000000E+00 0. -1.
        -14    1    4    4    0    0  0.52601104001E+02  0.34618829988E+02 -0.48674846750E+02  0.79590076254E+02  0.00000000000E+00 0.  1.
</event>
<event>
12    1  0.8358445E-002  0.2186888E+03  0.7818608E-02  0.1136354E+00
         21   -1    0    0  503  502  0.00000000000E+00  0.00000000000E+00  0.23417436302E+03  0.23417436302E+03  0.00000000000E+00 0.  1.
         21   -1    0    0  501  503 -0.00000000000E+00 -0.00000000000E+00 -0.32406325927E+03  0.32406325927E+03  0.00000000000E+00 0.  1.
          6    2    1    2  501    0 -0.11197061221E+03 -0.74849758918E+02 -0.22017884970E+03  0.31032807556E+03  0.17229301848E+03 0.  0.
         24    2    3    3    0    0 -0.13992906573E+03 -0.88254969104E+02 -0.17073450260E+03  0.25177717255E+03  0.82899886800E+02 0.  0.
         -6    2    1    2    0  502  0.11197061221E+03  0.74849758918E+02  0.13028995345E+03  0.24790954673E+03  0.16230763069E+03 0.  0.
        -24    2    5    5    0    0 -0.37581800034E+01  0.36533568559E+02  0.51350505657E+02  0.10260018637E+03  0.80877056465E+02 0.  0.
          5    1    3    3  501    0  0.27958453516E+02  0.13405210186E+02 -0.49444347102E+02  0.58550903011E+02  0.47000000000E+01 0. -1.
        -13    1    4    4    0    0 -0.11297689095E+03 -0.10239895043E+03 -0.15533428427E+03  0.21766502431E+03  0.00000000000E+00 0.  1.
         14    1    4    4    0    0 -0.26952174778E+02  0.14143981323E+02 -0.15400218327E+02  0.34112148239E+02  0.00000000000E+00 0. -1.
         -5    1    5    5    0  502  0.11572879222E+03  0.38316190358E+02  0.78939447794E+02  0.14530936036E+03  0.47000000000E+01 0.  1.
         11    1    6    6    0    0 -0.23888243657E+02  0.15392637727E+01  0.57012540717E+02  0.61834030412E+02  0.00000000000E+00 0. -1.
        -12    1    6    6    0    0  0.20130063654E+02  0.34994304787E+02 -0.56620350604E+01  0.40766155953E+02  0.00000000000E+00 0.  1.
</event>
<event>
12    1  0.8358445E-002  0.3123711E+03  0.7818608E-02  0.1079277E+00
         21   -1    0    0  503  502  0.00000000000E+00  0.00000000000E+00  0.14776267948E+03  0.14776267948E+03  0.00000000000E+00 0.  1.
         21   -1    0    0  501  503 -0.00000000000E+00 -0.00000000000E+00 -0.10092400412E+04  0.10092400412E+04  0.00000000000E+00 0. -1.
          6    2    1    2  501    0  0.14064584662E+03  0.21926013240E+03 -0.77164636247E+03  0.83247451610E+03  0.17239330440E+03 0.  0.
         24    2    3    3    0    0  0.10651962742E+03  0.57248554991E+02 -0.40131657048E+03  0.42679164132E+03  0.80450526934E+02 0.  0.
         -6    2    1    2    0  502 -0.14064584662E+03 -0.21926013240E+03 -0.89830999294E+02  0.32452820462E+03  0.17144295648E+03 0.  0.
        -24    2    5    5    0    0 -0.11286983053E+03 -0.22517343034E+03 -0.11371360393E+03  0.28712575862E+03  0.77895732660E+02 0.  0.
          5    1    3    3  501    0  0.34126219205E+02  0.16201157741E+03 -0.37032979200E+03  0.40568287478E+03  0.47000000000E+01 0. -1.
        -13    1    4    4    0    0 -0.80597743726E+01 -0.35671592658E+01 -0.58123562290E+01  0.10557844150E+02  0.00000000000E+00 0.  1.
         14    1    4    4    0    0  0.11457940179E+03  0.60815714257E+02 -0.39550421425E+03  0.41623379717E+03  0.00000000000E+00 0. -1.
         -5    1    5    5    0  502 -0.27776016095E+02  0.59132979430E+01  0.23882604638E+02  0.37402446002E+02  0.47000000000E+01 0.  1.
         13    1    6    6    0    0 -0.11700948579E+03 -0.16164685872E+03 -0.93179198425E+02  0.22023462425E+03  0.00000000000E+00 0. -1.
        -14    1    6    6    0    0  0.41396552589E+01 -0.63526571623E+02 -0.20534405507E+02  0.66891134371E+02  0.00000000000E+00 0.  1.
</event>
<event>
12    1  0.8358445E-002  0.1966265E+03  0.7818608E-02  0.1153327E+00
         21   -1    0    0  503  502  0.00000000000E+00  0.00000000000E+00  0.90511766002E+03  0.90511766002E+03  0.00000000000E+00 0. -1.
         21   -1    0    0  501  503 -0.00000000000E+00 -0.00000000000E+00 -0.16588409857E+03  0.16588409857E+03  0.00000000000E+00 0. -1.
          6    2    1    2  501    0 -0.61807016622E+02  0.65787984119E+02 -0.92349713798E+02  0.21723362003E+03  0.17468202504E+03 0.  0.
         24    2    3    3    0    0 -0.25271007173E+02  0.20443491696E+02  0.22188407930E+02  0.88656505777E+02  0.79442371653E+02 0.  0.
         -6    2    1    2    0  502  0.61807016622E+02 -0.65787984119E+02  0.83158327524E+03  0.85376813857E+03  0.17100036437E+03 0.  0.
        -24    2    5    5    0    0  0.99182536611E+02 -0.71426113797E+02  0.56924312105E+03  0.58867727772E+03  0.86973220860E+02 0.  0.
          5    1    3    3  501    0 -0.36536009450E+02  0.45344492422E+02 -0.11453812173E+03  0.12857711425E+03  0.47000000000E+01 0. -1.
        -13    1    4    4    0    0 -0.24320827692E+02 -0.11716530385E+02  0.42687195679E+02  0.50507191754E+02  0.00000000000E+00 0.  1.
         14    1    4    4    0    0 -0.95017948021E+00  0.32160022081E+02 -0.20498787748E+02  0.38149314024E+02  0.00000000000E+00 0. -1.
         -5    1    5    5    0  502 -0.37375519988E+02  0.56381296789E+01  0.26234015420E+03  0.26509086085E+03  0.47000000000E+01 0.  1.
         13    1    6    6    0    0  0.62998407343E+01 -0.35162045267E+02  0.28948804217E+03  0.29168370537E+03  0.00000000000E+00 0. -1.
        -14    1    6    6    0    0  0.92882695876E+02 -0.36264068531E+02  0.27975507888E+03  0.29699357235E+03  0.00000000000E+00 0.  1.
</event>
<event>
12    1  0.8358445E-002  0.2036832E+03  0.7818608E-02  0.1146950E+00
         21   -1    0    0  501  502  0.00000000000E+00  0.00000000000E+00  0.72661415120E+03  0.72661415120E+03  0.00000000000E+00 0. -1.
         21   -1    0    0  502  503 -0.00000000000E+00 -0.00000000000E+00 -0.78018087498E+03  0.78018087498E+03  0.00000000000E+00 0. -1.
         -6    2    1    2    0  503 -0.10657992188E+02  0.10869946887E+03 -0.75227392773E+03  0.77900481618E+03  0.17030347610E+03 0.  0.
        -24    2    3    3    0    0 -0.30766871243E+02  0.94774512347E+01 -0.47400297400E+03  0.48285250826E+03  0.86205005221E+02 0.  0.
          6    2    1    2  501    0  0.10657992188E+02 -0.10869946887E+03  0.69870720395E+03  0.72779020999E+03  0.17192342941E+03 0.  0.
         24    2    5    5    0    0  0.23935604479E+02 -0.97047319392E+02  0.69788974880E+03  0.70949196394E+03  0.79609359118E+02 0.  0.
          5    1    5    5  501    0 -0.13277612291E+02 -0.11652149476E+02  0.81745515213E+00  0.18298246049E+02  0.47000000000E+01 0. -1.
        -11    1    6    6    0    0  0.42066446595E+02 -0.26152785543E+02  0.18967885368E+03  0.19603984711E+03  0.00000000000E+00 0.  1.
         12    1    6    6    0    0 -0.18130842116E+02 -0.70894533849E+02  0.50821089512E+03  0.51345211684E+03  0.00000000000E+00 0. -1.
         -5    1    3    3    0  503  0.20108879055E+02  0.99222017633E+02 -0.27827095372E+03  0.29615230792E+03  0.47000000000E+01 0.  1.
         11    1    4    4    0    0 -0.98218458844E+01  0.33047271324E+02 -0.74313668297E+02  0.81921377517E+02  0.00000000000E+00 0. -1.
        -12    1    4    4    0    0 -0.20945025358E+02 -0.23569820089E+02 -0.39968930571E+03  0.40093113075E+03  0.00000000000E+00 0.  1.
</event>
<event>
12    1  0.8358445E-002  0.2025857E+03  0.7818608E-02  0.1147770E+00
         21   -1    0    0  501  502  0.00000000000E+00  0.00000000000E+00  0.85426992843E+03  0.85426992843E+03  0.00000000000E+00 0.  1.
         21   -1    0    0  502  503 -0.00000000000E+00 -0.00000000000E+00 -0.48149882777E+02  0.48149882777E+02  0.00000000000E+00 0. -1.
         -6    2    1    2    0  503  0.10605193655E+03  0.15492060622E+01  0.36668828412E+03  0.41892871907E+03  0.17260231940E+03 0.  0.
        -24    2    3    3    0    0  0.94095987764E+02 -0.59826385034E+02  0.27951612855E+03  0.31154630617E+03  0.80613792275E+02 0.  0.
          6    2    1    2  501    0 -0.10605193655E+03 -0.15492060622E+01  0.43943176153E+03  0.48349109214E+03  0.17150495576E+03 0.  0.
         24    2    5    5    0    0 -0.82436543968E+02 -0.64026814624E+02  0.31111017624E+03  0.33875112672E+03  0.84068824905E+02 0.  0.
          5    1    5    5  501    0 -0.23615392582E+02  0.62477608562E+02  0.12832158529E+03  0.14473996542E+03  0.47000000000E+01 0. -1.
        -11    1    6    6    0    0 -0.41495775078E+02  0.11554411076E+02  0.15103295559E+03  0.15705526874E+03  0.00000000000E+00 0.  1.
         12    1    6    6    0    0 -0.40940768890E+02 -0.75581225701E+02  0.16007722065E+03  0.18169585798E+03  0.00000000000E+00 0. -1.
         -5    1    3    3    0  503  0.11955948786E+02  0.61375591096E+02  0.87172155571E+02  0.10738241290E+03  0.47000000000E+01 0.  1.
         13    1    4    4    0    0 -0.80884233218E+01  0.80504059091E+01  0.90665403291E+01  0.14575108256E+02  0.00000000000E+00 0. -1.
        -14    1    4    4    0    0  0.10218441109E+03 -0.67876790943E+02  0.27044958822E+03  0.29697119791E+03  0.00000000000E+00 0.  1.
</event>
<event>
12    1  0.8358445E-002  0.1866649E+03  0.7818608E-02  0.1161821E+00
         21   -1    0    0  503  502  0.00000000000E+00  0.00000000000E+00  0.12788208016E+04  0.12788208016E+04  0.00000000000E+00 0.  1.
         21   -1    0    0  501  503 -0.00000000000E+00 -0.00000000000E+00 -0.27203940898E+02  0.27203940898E+02  0.00000000000E+00 0.  1.
          6    2    1    2  501    0 -0.54484775488E+02 -0.47381718923E+02  0.67760727561E+03  0.70284805389E+03  0.17213410135E+03 0.  0.
         24    2    3    3    0    0 -0.82089081880E+02 -0.32860384770E+02  0.65055216670E+03  0.66129163688E+03  0.79183869251E+02 0.  0.
         -6    2    1    2    0  502  0.54484775488E+02  0.47381718923E+02  0.57400958505E+03  0.60317668857E+03  0.17065021493E+03 0.  0.
        -24    2    5    5    0    0  0.51944676756E+02 -0.43966270268E+02  0.32885904210E+03  0.34150554775E+03  0.62020054864E+02 0.  0.
          5    1    3    3  501    0  0.27604306392E+02 -0.14521334153E+02  0.27055108909E+02  0.41556417014E+02  0.47000000000E+01 0. -1.
        -11    1    4    4    0    0 -0.35899294709E+02 -0.38855503262E+02  0.15968294173E+03  0.16821757154E+03  0.00000000000E+00 0.  1.
         12    1    4    4    0    0 -0.46189787171E+02  0.59951184916E+01  0.49086922497E+03  0.49307406533E+03  0.00000000000E+00 0. -1.
         -5    1    5    5    0  502  0.25400987311E+01  0.91347989191E+02  0.24515054295E+03  0.26167114082E+03  0.47000000000E+01 0.  1.
         13    1    6    6    0    0 -0.13817098007E+02 -0.12897972699E+02  0.82315793409E+02  0.84458035388E+02  0.00000000000E+00 0. -1.
        -14    1    6    6    0    0  0.65761774763E+02 -0.31068297569E+02  0.24654324869E+03  0.25704751236E+03  0.00000000000E+00 0.  1.
</event>
<event>
12    1  0.8358445E-002  0.1876269E+03  0.7818608E-02  0.1160977E+00
         21   -1    0    0  503  502  0.00000000000E+00  0.00000000000E+00  0.82566017269E+02  0.82566017269E+02  0.00000000000E+00 0.  1.
         21   -1    0    0  501  503 -0.00000000000E+00 -0.00000000000E+00 -0.47256401459E+03  0.47256401459E+03  0.00000000000E+00 0.  1.
          6    2    1    2  501    0 -0.66820882226E+02  0.35736163832E+02 -0.28429915403E+03  0.33977894691E+03  0.16994593279E+03 0.  0.
         24    2    3    3    0    0 -0.54762163240E+02 -0.34860447319E+02 -0.21314554392E+03  0.23871352036E+03  0.85667827123E+02 0.  0.
         -6    2    1    2    0  502  0.66820882226E+02 -0.35736163832E+02 -0.10569884329E+03  0.21535108495E+03  0.17164422685E+03 0.  0.
        -24    2    5    5    0    0  0.27741649602E+02 -0.18506996086E+02  0.15399855752E+02  0.86855888339E+02  0.78706300607E+02 0.  0.
          5    1    3    3  501    0 -0.12058718986E+02  0.70596611151E+02 -0.71153610119E+02  0.10106542654E+03  0.47000000000E+01 0. -1.
        -11    1    4    4    0    0 -0.39100390670E+02  0.24349308103E+02 -0.84762383612E+02  0.96469637872E+02  0.00000000000E+00 0.  1.
         12    1    4    4    0    0 -0.15661772570E+02 -0.59209755422E+02 -0.12838316030E+03  0.14224388249E+03  0.00000000000E+00 0. -1.
         -5    1    5    5    0  502  0.39079232624E+02 -0.17229167746E+02 -0.12109869904E+03  0.12849519661E+03  0.47000000000E+01 0.  1.
         11    1    6    6    0    0  0.18104768187E+02 -0.40365249222E+02 -0.16314015560E+02  0.47151702828E+02  0.00000000000E+00 0. -1.
        -12    1    6    6    0    0  0.96368814149E+01  0.21858253136E+02  0.31713871311E+02  0.39704185511E+02  0.00000000000E+00 0.  1.
</event>
<event>
12    1  0.8358445E-002  0.1882157E+03  0.7818608E-02  0.1160481E+00
         21   -1    0    0  501  502  0.00000000000E+00  0.00000000000E+00  0.10297835684E+03  0.10297835684E+03  0.00000000000E+00 0.  1.
         21   -1    0    0  502  503 -0.00000000000E+00 -0.00000000000E+00 -0.37111984611E+03  0.37111984611E+03  0.00000000000E+00 0. -1.
         -6    2    1    2    0  503 -0.59166609550E+02  0.43930983782E+02 -0.20237362644E+03  0.27636972932E+03  0.17318927098E+03 0.  0.
        -24    2    3    3    0    0 -0.37306460916E+02  0.89536908839E+02 -0.96253400555E+02  0.15872042485E+03  0.80739247436E+02 0.  0.
          6    2    1    2  501    0  0.59166609550E+02 -0.43930983782E+02 -0.65767862824E+02  0.19772847363E+03  0.17129074254E+03 0.  0.
         24    2    5    5    0    0 -0.12237830533E+02 -0.74951336414E+02 -0.41970603858E+02  0.11618550412E+03  0.77266243949E+02 0.  0.
          5    1    5    5  501    0  0.71404440084E+02  0.31020352632E+02 -0.23797258966E+02  0.81542969503E+02  0.47000000000E+01 0. -1.
        -11    1    6    6    0    0 -0.23288072337E+02 -0.19395203484E+02  0.16724477691E+02  0.34615262319E+02  0.00000000000E+00 0.  1.
         12    1    6    6    0    0  0.11050241804E+02 -0.55556132931E+02 -0.58695081549E+02  0.81570241805E+02  0.00000000000E+00 0. -1.
         -5    1    3    3    0  503 -0.21860148634E+02 -0.45605925057E+02 -0.10612022589E+03  0.11764930447E+03  0.47000000000E+01 0.  1.
         11    1    4    4    0    0  0.13891989328E+02  0.34344627355E+02 -0.69623273680E+02  0.78866602777E+02  0.00000000000E+00 0. -1.
        -12    1    4    4    0    0 -0.51198450244E+02  0.55192281484E+02 -0.26630126875E+02  0.79853822076E+02  0.00000000000E+00 0.  1.
</event>
<event>
12    1  0.8358445E-002  0.2382425E+03  0.7818608E-02  0.1121131E+00
         21   -1    0    0  503  502  0.00000000000E+00  0.00000000000E+00  0.16390021489E+04  0.16390021489E+04  0.00000000000E+00 0. -1.
         21   -1    0    0  501  503 -0.00000000000E+00 -0.00000000000E+00 -0.45402943667E+02  0.45402943667E+02  0.00000000000E+00 0.  1.
          6    2    1    2  501    0  0.11297948663E+03  0.12142701484E+03  0.38514120049E+03  0.45287219347E+03  0.17102805318E+03 0.  0.
         24    2    3    3    0    0  0.77316808972E+02  0.16931942739E+02  0.12140241705E+03  0.16691540904E+03  0.82810792027E+02 0.  0.
         -6    2    1    2    0  502 -0.11297948663E+03 -0.12142701484E+03  0.12084580048E+04  0.12315328991E+04  0.16968691167E+03 0.  0.
        -24    2    5    5    0    0  0.94420865941E+00 -0.65360652742E+02  0.68897592458E+03  0.69673782907E+03  0.80516280072E+02 0.  0.
          5    1    3    3  501    0  0.35662677657E+02  0.10449507210E+03  0.26373878344E+03  0.28595678443E+03  0.47000000000E+01 0. -1.
        -11    1    4    4    0    0  0.91753973617E+02  0.65078082960E+00  0.10632045516E+03  0.14043950433E+03  0.00000000000E+00 0.  1.
         12    1    4    4    0    0 -0.14437164645E+02  0.16281161909E+02  0.15081961888E+02  0.26475904716E+02  0.00000000000E+00 0. -1.
         -5    1    5    5    0  502 -0.11392369529E+03 -0.56066362094E+02  0.51948208019E+03  0.53479507004E+03  0.47000000000E+01 0.  1.
         11    1    6    6    0    0 -0.14593873790E+01 -0.57630784204E+02  0.68551383739E+03  0.68793361478E+03  0.00000000000E+00 0. -1.
        -12    1    6    6    0    0  0.24035960384E+01 -0.77298685379E+01  0.34620871893E+01  0.88042142884E+01  0.00000000000E+00 0.  1.
</event>
<event>
12    1  0.8358445E-002  0.2884386E+03  0.7818608E-02  0.1091227E+00
         21   -1    0    0  501  502  0.00000000000E+00  0.00000000000E+00  0.46095056893E+03  0.46095056893E+03  0.00000000000E+00 0.  1.
         21   -1    0    0  502  503 -0.00000000000E+00 -0.00000000000E+00 -0.29690078926E+03  0.29690078926E+03  0.00000000000E+00 0.  1.
         -6    2    1    2    0  503 -0.79339081415E+02  0.21699442048E+03 -0.15557321307E+03  0.32732184122E+03  0.17191653427E+03 0.  0.
        -24    2    3    3    0    0  0.15359164079E+02  0.63843131127E+02 -0.29230298286E+02  0.10730434817E+03  0.79674107999E+02 0.  0.
          6    2    1    2  501    0  0.79339081415E+02 -0.21699442048E+03  0.31962299275E+03  0.43052951698E+03  0.17267176705E+03 0.  0.
         24    2    5    5    0    0 -0.18449252216E+02 -0.41249362820E+02  0.97990388489E+02  0.13121031486E+03  0.74646806021E+02 0.  0.
          5    1    5    5  501    0  0.97788333631E+02 -0.17574505766E+03  0.22163260426E+03  0.29931920212E+03  0.47000000000E+01 0. -1.
        -13    1    6    6    0    0 -0.17826887548E+02 -0.48866446744E+02  0.10725336901E+03  0.11920156333E+03  0.00000000000E+00 0.  1.
         14    1    6    6    0    0 -0.62236466786E+00  0.76170839244E+01 -0.92629805166E+01  0.12008751531E+02  0.00000000000E+00 0. -1.
         -5    1    3    3    0  503 -0.94698245494E+02  0.15315128935E+03 -0.12634291479E+03  0.22001749305E+03  0.47000000000E+01 0.  1.
         13    1    4    4    0    0 -0.26407904620E+02  0.26145425795E+01  0.25527337851E+01  0.26659514420E+02  0.00000000000E+00 0. -1.
        -14    1    4    4    0    0  0.41767068699E+02  0.61228588547E+02 -0.31783032071E+02  0.80644833752E+02  0.00000000000E+00 0.  1.
</event>
<event>
12    1  0.8358445E-002  0.2847716E+03  0.7818608E-02  0.1095111E+00
         21   -1    0    0  501  502  0.00000000000E+00  0.00000000000E+00  0.11345738950E+04  0.11345738950E+04  0.00000000000E+00 0. -1.
         21   -1    0    0  502  503 -0.00000000000E+00 -0.00000000000E+00 -0.47191385548E+03  0.47191385548E+03  0.00000000000E+00 0. -1.
         -6    2    1    2    0  503  0.52911539541E+02 -0.20198734249E+03 -0.41062644818E+03  0.49970884066E+03  0.19363968587E+03 0.  0.
        -24    2    3    3    0    0 -0.39126621644E+02 -0.16201355187E+03 -0.23802722291E+03  0.30000528632E+03  0.74611858727E+02 0.  0.
          6    2    1    2  501    0 -0.52911539541E+02  0.20198734249E+03  0.10732864877E+04  0.11067789098E+04  0.17151429386E+03 0.  0.
         24    2    5    5    0    0 -0.11017192256E+02  0.14926132489E+03  0.96201500003E+03  0.97663052053E+03  0.77032406935E+02 0.  0.
          5    1    5    5  501    0 -0.41894347284E+02  0.52726017603E+02  0.11127148770E+03  0.13014838931E+03  0.47000000000E+01 0. -1.
        -11    1    6    6    0    0  0.29505893376E+02  0.91739763606E+02  0.62093030753E+03  0.62836393020E+03  0.00000000000E+00 0.  1.
         12    1    6    6    0    0 -0.40523085632E+02  0.57521561283E+02  0.34108469250E+03  0.34826659033E+03  0.00000000000E+00 0. -1.
         -5    1    3    3    0  503  0.92038161185E+02 -0.39973790619E+02 -0.17259922528E+03  0.19970355434E+03  0.47000000000E+01 0.  1.
         11    1    4    4    0    0  0.12110635365E+02 -0.70811854776E+02 -0.13638436547E+03  0.15414824491E+03  0.00000000000E+00 0. -1.
        -12    1    4    4    0    0 -0.51237257009E+02 -0.91201697097E+02 -0.10164285744E+03  0.14585704140E+03  0.00000000000E+00 0.  1.
</event>
<event>
12    1  0.8358445E-002  0.2228862E+03  0.7818608E-02  0.1132592E+00
         21   -1    0    0  501  502  0.00000000000E+00  0.00000000000E+00  0.68985662239E+03  0.68985662239E+03  0.00000000000E+00 0.  1.
         21   -1    0    0  502  503 -0.00000000000E+00 -0.00000000000E+00 -0.38304767891E+03  0.38304767891E+03  0.00000000000E+00 0. -1.
         -6    2    1    2    0  503  0.92391762857E+02 -0.98438131023E+02 -0.33083732133E+03  0.39891302679E+03  0.17734702218E+03 0.  0.
        -24    2    3    3    0    0  0.11962920086E+03 -0.44587008775E+02 -0.28656410305E+03  0.32391949872E+03  0.80657978168E+02 0.  0.
          6    2    1    2  501    0 -0.92391762857E+02  0.98438131023E+02  0.63764626482E+03  0.67399127450E+03  0.17159596611E+03 0.  0.
         24    2    5    5    0    0  0.34902034435E+01  0.91215377474E+02  0.38342227082E+03  0.40215042261E+03  0.79874263946E+02 0.  0.
          5    1    5    5  501    0 -0.95881966301E+02  0.72227535494E+01  0.25422399400E+03  0.27184085189E+03  0.47000000000E+01 0. -1.
        -13    1    6    6    0    0 -0.37352138719E+02  0.39002753748E+02  0.19810709922E+03  0.20533587077E+03  0.00000000000E+00 0.  1.
         14    1    6    6    0    0  0.40842342163E+02  0.52212623726E+02  0.18531517160E+03  0.19681455184E+03  0.00000000000E+00 0. -1.
         -5    1    3    3    0  503 -0.27237438002E+02 -0.53851122248E+02 -0.44273218279E+02  0.74993528074E+02  0.47000000000E+01 0.  1.
         11    1    4    4    0    0  0.48478576173E+02 -0.55594382875E+02 -0.18724251922E+03  0.20124777952E+03  0.00000000000E+00 0. -1.
        -12    1    4    4    0    0  0.71150624686E+02  0.11007374101E+02 -0.99321583831E+02  0.12267171920E+03  0.00000000000E+00 0.  1.
</event>
<event>
12    1  0.8358445E-002  0.1850392E+03  0.7818608E-02  0.1163363E+00
         21   -1    0    0  501  502  0.00000000000E+00  0.00000000000E+00  0.72579954685E+03  0.72579954685E+03  0.00000000000E+00 0.  1.
         21   -1    0    0  502  503 -0.00000000000E+00 -0.00000000000E+00 -0.94854784383E+02  0.94854784383E+02  0.00000000000E+00 0.  1.
         -6    2    1    2    0  503  0.36411712998E+02  0.51892040269E+02  0.24031405576E+02  0.18659321523E+03  0.17384166023E+03 0.  0.
        -24    2    3    3    0    0  0.90153674310E+00  0.91678362999E+02  0.44493306796E+02  0.12928088239E+03  0.79549715225E+02 0.  0.
          6    2    1    2  501    0 -0.36411712998E+02 -0.51892040269E+02  0.60691335689E+03  0.63406111599E+03  0.17225295167E+03 0.  0.
         24    2    5    5    0    0  0.34187994517E+02  0.18573728370E+01  0.39122663776E+03  0.40078838094E+03  0.80004846119E+02 0.  0.
          5    1    5    5  501    0 -0.70599707515E+02 -0.53749413106E+02  0.21568671913E+03  0.23327273505E+03  0.47000000000E+01 0. -1.
        -13    1    6    6    0    0  0.34121911676E+02 -0.30713432656E+02  0.13708359652E+03  0.14456670515E+03  0.00000000000E+00 0.  1.
         14    1    6    6    0    0  0.66082841478E-01  0.32570805493E+02  0.25414304123E+03  0.25622167579E+03  0.00000000000E+00 0. -1.
         -5    1    3    3    0  503  0.35510176255E+02 -0.39786322730E+02 -0.20461901220E+02  0.57312332840E+02  0.47000000000E+01 0.  1.
         13    1    4    4    0    0  0.28940592498E+02  0.66713493105E+02  0.22348293804E+01  0.72754673518E+02  0.00000000000E+00 0. -1.
        -14    1    4    4    0    0 -0.28039055755E+02  0.24964869895E+02  0.42258477415E+02  0.56526208877E+02  0.00000000000E+00 0.  1.
</event>
<event>
12    1  0.8358445E-002  0.1850543E+03  0.7818608E-02  0.1163549E+00
         21   -1    0    0  501  502  0.00000000000E+00  0.00000000000E+00  0.23971272827E+03  0.23971272827E+03  0.00000000000E+00 0.  1.
         21   -1    0    0  502  503 -0.00000000000E+00 -0.00000000000E+00 -0.19851460872E+03  0.19851460872E+03  0.00000000000E+00 0. -1.
         -6    2    1    2    0  503  0.17820835900E+02 -0.60634226330E+02 -0.97185686764E+02  0.20902189820E+03  0.17392815937E+03 0.  0.
        -24    2    3    3    0    0  0.43430528339E+02 -0.12527606997E+02 -0.11825322565E+03  0.15040420151E+03  0.81206198827E+02 0.  0.
          6    2    1    2  501    0 -0.17820835900E+02  0.60634226330E+02  0.13838380631E+03  0.22920543878E+03  0.17143792965E+03 0.  0.
         24    2    5    5    0    0  0.30904866979E+02  0.98769029501E+01  0.13056183385E+03  0.15825634963E+03  0.83342760492E+02 0.  0.
          5    1    5    5  501    0 -0.48725702879E+02  0.50757323380E+02  0.78219724598E+01  0.70949089148E+02  0.47000000000E+01 0. -1.
        -11    1    6    6    0    0 -0.17189357569E+02 -0.13844638709E+02  0.85216479585E+02  0.88028384215E+02  0.00000000000E+00 0.  1.
         12    1    6    6    0    0  0.48094224548E+02  0.23721541659E+02  0.45345354266E+02  0.70227965420E+02  0.00000000000E+00 0. -1.
         -5    1    3    3    0  503 -0.25609692439E+02 -0.48106619333E+02  0.21067538885E+02  0.58617696689E+02  0.47000000000E+01 0.  1.
         11    1    4    4    0    0  0.55998051900E+01  0.25427888150E+02 -0.81148567139E+02  0.85223384482E+02  0.00000000000E+00 0. -1.
        -12    1    4    4    0    0  0.37830723149E+02 -0.37955495147E+02 -0.37104658510E+02  0.65180817032E+02  0.00000000000E+00 0.  1.
</event>
<event>
12    1  0.8358445E-002  0.1769910E+03  0.7818608E-02  0.1171455E+00
         21   -1    0    0  501  502  0.00000000000E+00  0.00000000000E+00  0.53782124233E+03  0.53782124233E+03  0.00000000000E+00 0.  1.
         21   -1    0    0  502  503 -0.00000000000E+00 -0.00000000000E+00 -0.71250421254E+02  0.71250421254E+02  0.00000000000E+00 0.  1.
         -6    2    1    2    0  503 -0.41847314338E+02 -0.22807649351E+02  0.10013055485E+03  0.20335174827E+03  0.17045356823E+03 0.  0.
        -24    2    3    3    0    0  0.34753676380E+02 -0.35890479077E+02  0.37427077190E+02  0.10338831334E+03  0.82416095018E+02 0.  0.
          6    2    1    2  501    0  0.41847314338E+02  0.22807649351E+02  0.36644026623E+03  0.40571991531E+03  0.16750759500E+03 0.  0.
         24    2    5    5    0    0  0.22866945419E+02  0.70907349299E+02  0.16690195771E+03  0.19953683622E+03  0.80049585526E+02 0.  0.
          5    1    5    5  501    0  0.18980368919E+02 -0.48099699947E+02  0.19953830851E+03  0.20618307909E+03  0.47000000000E+01 0. -1.
        -13    1    6    6    0    0  0.18649266443E+02  0.76359023808E+02  0.17319890047E+03  0.19020082749E+03  0.00000000000E+00 0.  1.
         14    1    6    6    0    0  0.42176789757E+01 -0.54516745089E+01 -0.62969427548E+01  0.93360087270E+01  0.00000000000E+00 0. -1.
         -5    1    3    3    0  503 -0.76600990718E+02  0.13082829725E+02  0.62703477656E+02  0.99963434929E+02  0.47000000000E+01 0.  1.
         13    1    4    4    0    0 -0.16962917400E+02  0.25288504229E+01 -0.13043940823E+02  0.21547158591E+02  0.00000000000E+00 0. -1.
        -14    1    4    4    0    0  0.51716593780E+02 -0.38419329500E+02  0.50471018013E+02  0.81841154749E+02  0.00000000000E+00 0.  1.
</event>
<event>
12    1  0.8358445E-002  0.1901034E+03  0.7818608E-02  0.1158445E+00
         21   -1    0    0  503  502  0.00000000000E+00  0.00000000000E+00  0.37544220584E+03  0.37544220584E+03  0.00000000000E+00 0.  1.
         21   -1    0    0  501  503 -0.00000000000E+00 -0.00000000000E+00 -0.10361984753E+03  0.10361984753E+03  0.00000000000E+00 0.  1.
          6    2    1    2  501    0 -0.52428822971E+02 -0.60962678442E+02  0.20038974824E+03  0.27598100580E+03  0.17188436439E+03 0.  0.
         24    2    3    3    0    0 -0.72757566050E+02 -0.13001930772E+00  0.61280594406E+02  0.12272528195E+03  0.77540333090E+02 0.  0.
         -6    2    1    2    0  502  0.52428822971E+02  0.60962678442E+02  0.71432610071E+02  0.20308104757E+03  0.17226161633E+03 0.  0.
        -24    2    5    5    0    0  0.26385615175E+02  0.73837154093E+01  0.10240911376E+03  0.13577140686E+03  0.84826460480E+02 0.  0.
          5    1    3    3  501    0  0.20328743079E+02 -0.60832659134E+02  0.13910915384E+03  0.15325572385E+03  0.47000000000E+01 0. -1.
        -13    1    4    4    0    0 -0.35263227428E+02  0.36194279513E+02  0.45991711022E+02  0.68328314488E+02  0.00000000000E+00 0.  1.
         14    1    4    4    0    0 -0.37494338622E+02 -0.36324298821E+02  0.15288883384E+02  0.54396967459E+02  0.00000000000E+00 0. -1.
         -5    1    5    5    0  502  0.26043207796E+02  0.53578963033E+02 -0.30976503693E+02  0.67309640714E+02  0.47000000000E+01 0.  1.
         13    1    6    6    0    0 -0.15305339134E+02  0.32810408993E+02  0.64440749950E+02  0.73914725180E+02  0.00000000000E+00 0. -1.
        -14    1    6    6    0    0  0.41690954309E+02 -0.25426693584E+02  0.37968363814E+02  0.61856681680E+02  0.00000000000E+00 0.  1.
</event>
<event>
12    1  0.8358445E-002  0.1781948E+03  0.7818608E-02  0.1170041E+00
         21   -1    0    0  501  502  0.00000000000E+00  0.00000000000E+00  0.77024651016E+03  0.77024651016E+03  0.00000000000E+00 0. -1.
         21   -1    0    0  502  503 -0.00000000000E+00 -0.00000000000E+00 -0.67328764925E+02  0.67328764925E+02  0.00000000000E+00 0. -1.
         -6    2    1    2    0  503 -0.13679355141E+02 -0.40251351855E+02  0.89635949387E+02  0.19946926976E+03  0.17304938623E+03 0.  0.
        -24    2    3    3    0    0  0.23868447634E+02 -0.59009343931E+02  0.11079688376E+03  0.15222972168E+03  0.82741363585E+02 0.  0.
          6    2    1    2  501    0  0.13679355141E+02  0.40251351855E+02  0.61328179585E+03  0.63810600532E+03  0.17104799569E+03 0.  0.
         24    2    5    5    0    0  0.57680196306E+02 -0.19395719133E+02  0.32198328947E+03  0.33748871221E+03  0.80760096617E+02 0.  0.
          5    1    5    5  501    0 -0.44000841165E+02  0.59647070988E+02  0.29129850638E+03  0.30061729311E+03  0.47000000000E+01 0. -1.
        -11    1    6    6    0    0  0.48680950264E+02  0.17600374163E+02  0.10361689487E+03  0.11582775571E+03  0.00000000000E+00 0.  1.
         12    1    6    6    0    0  0.89992460416E+01 -0.36996093296E+02  0.21836639460E+03  0.22166095651E+03  0.00000000000E+00 0. -1.
         -5    1    3    3    0  503 -0.37547802775E+02  0.18757992077E+02 -0.21160934368E+02  0.47239548085E+02  0.47000000000E+01 0.  1.
         11    1    4    4    0    0  0.22592756163E+02 -0.53330979370E+02  0.20042452161E+02  0.61288872401E+02  0.00000000000E+00 0. -1.
        -12    1    4    4    0    0  0.12756914715E+01 -0.56783645617E+01  0.90754431594E+02  0.90940849274E+02  0.00000000000E+00 0.  1.
</event>
<event>
12    1  0.8358445E-002  0.2900514E+03  0.7818608E-02  0.1090662E+00
         21   -1    0    0  503  502  0.00000000000E+00  0.00000000000E+00  0.11669160800E+04  0.11669160800E+04  0.00000000000E+00 0.  1.
         21   -1    0    0  501  503 -0.00000000000E+00 -0.00000000000E+00 -0.15871901456E+03  0.15871901456E+03  0.00000000000E+00 0. -1.
          6    2    1    2  501    0  0.80090820311E+02 -0.21725858554E+03  0.13643231216E+02  0.29037210100E+03  0.17468253144E+03 0.  0.
         24    2    3    3    0    0  0.79954189535E+02 -0.21317150062E+03 -0.32139148793E+02  0.24416778031E+03  0.82159716131E+02 0.  0.
         -6    2    1    2    0  502 -0.80090820311E+02  0.21725858554E+03  0.99455383426E+03  0.10352629936E+04  0.17034172762E+03 0.  0.
        -24    2    5    5    0    0 -0.21023400557E+02  0.71683549571E+02  0.22382884558E+03  0.24867533201E+03  0.78482826064E+02 0.  0.
          5    1    3    3  501    0  0.13663077651E+00 -0.40870849225E+01  0.45782380008E+02  0.46204320689E+02  0.47000000000E+01 0. -1.
        -13    1    4    4    0    0  0.19750617047E+02 -0.20345487554E+02  0.21005459557E+02  0.35288171797E+02  0.00000000000E+00 0.  1.
         14    1    4    4    0    0  0.60203572487E+02 -0.19282601306E+03 -0.53144608350E+02  0.20887960851E+03  0.00000000000E+00 0. -1.
         -5    1    5    5    0  502 -0.59067419754E+02  0.14557503597E+03  0.77072498867E+03  0.78658766157E+03  0.47000000000E+01 0.  1.
         13    1    6    6    0    0  0.27750178844E+02  0.96997958617E+01  0.65171185593E+02  0.71494348709E+02  0.00000000000E+00 0. -1.
        -14    1    6    6    0    0 -0.48773579401E+02  0.61983753709E+02  0.15865765999E+03  0.17718098331E+03  0.00000000000E+00 0.  1.
</event>
<event>
12    1  0.8358445E-002  0.2534228E+03  0.7818608E-02  0.1111290E+00
         21   -1    0    0  501  502  0.00000000000E+00  0.00000000000E+00  0.55277836008E+03  0.55277836008E+03  0.00000000000E+00 0.  1.
         21   -1    0    0  502  503 -0.00000000000E+00 -0.00000000000E+00 -0.11615406562E+03  0.11615406562E+03  0.00000000000E+00 0. -1.
         -6    2    1    2    0  503  0.10959694984E+03 -0.14926156695E+03  0.20023979652E+03  0.32298464760E+03  0.17301040340E+03 0.  0.
        -24    2    3    3    0    0  0.14149322903E+03 -0.14930681835E+03  0.16884034647E+03  0.27798031294E+03  0.80331388129E+02 0.  0.
          6    2    1    2  501    0 -0.10959694984E+03  0.14926156695E+03  0.23638449793E+03  0.34594777810E+03  0.17178977714E+03 0.  0.
         24    2    5    5    0    0 -0.90753454128E+02  0.33913874239E+02  0.17147918487E+03  0.21217574363E+03  0.78911944829E+02 0.  0.
          5    1    5    5  501    0 -0.18843495717E+02  0.11534769271E+03  0.64905313058E+02  0.13377203448E+03  0.47000000000E+01 0. -1.
        -13    1    6    6    0    0 -0.20082893716E+02 -0.23410291026E+02  0.66119239654E+02  0.72959702565E+02  0.00000000000E+00 0.  1.
         14    1    6    6    0    0 -0.70670560412E+02  0.57324165266E+02  0.10535994522E+03  0.13921604106E+03  0.00000000000E+00 0. -1.
         -5    1    3    3    0  503 -0.31896279190E+02  0.45251400172E-01  0.31399450055E+02  0.45004334654E+02  0.47000000000E+01 0.  1.
         13    1    4    4    0    0  0.54313354181E+02 -0.33213847191E+02  0.12973536169E+02  0.64972399742E+02  0.00000000000E+00 0. -1.
        -14    1    4    4    0    0  0.87179874854E+02 -0.11609297116E+03  0.15586681030E+03  0.21300791320E+03  0.00000000000E+00 0.  1.
</event>
<event>
12    1  0.8358445E-002  0.1980842E+03  0.7818608E-02  0.1151568E+00
         21   -1    0    0  503  502  0.00000000000E+00  0.00000000000E+00  0.26796609013E+03  0.26796609013E+03  0.00000000000E+00 0.  1.
         21   -1    0    0  501  503 -0.00000000000E+00 -0.00000000000E+00 -0.25356276428E+03  0.25356276428E+03  0.00000000000E+00 0.  1.
          6    2    1    2  501    0  0.70146426226E+02  0.68482087759E+02 -0.16284217685E+03  0.25642724892E+03  0.17212507653E+03 0.  0.
         24    2    3    3    0    0  0.64824205861E+02  0.11180104961E+03 -0.10915412339E+03  0.18707773147E+03  0.79886185284E+02 0.  0.
         -6    2    1    2    0  502 -0.70146426226E+02 -0.68482087759E+02  0.17724550270E+03  0.26510160549E+03  0.17103384329E+03 0.  0.
        -24    2    5    5    0    0 -0.10557869230E+03 -0.34922987063E+02  0.82933008873E+02  0.15880675514E+03  0.77299587490E+02 0.  0.
          5    1    3    3  501    0  0.53222203648E+01 -0.43318961855E+02 -0.53688053458E+02  0.69349517445E+02  0.47000000000E+01 0. -1.
        -11    1    4    4    0    0  0.12662484646E+02  0.95100676957E+02 -0.80646157088E+02  0.12533267702E+03  0.00000000000E+00 0.  1.
         12    1    4    4    0    0  0.52161721215E+02  0.16700372658E+02 -0.28507966300E+02  0.61745054455E+02  0.00000000000E+00 0. -1.
         -5    1    5    5    0  502  0.35432266071E+02 -0.33559100696E+02  0.94312493824E+02  0.10629485034E+03  0.47000000000E+01 0.  1.
         13    1    6    6    0    0 -0.47646003614E+02  0.15109405867E+02  0.61079096672E+01  0.50356155200E+02  0.00000000000E+00 0. -1.
        -14    1    6    6    0    0 -0.57932688683E+02 -0.50032392930E+02  0.76825099206E+02  0.10845059994E+03  0.00000000000E+00 0.  1.
</event>
<event>
12    1  0.8358445E-002  0.3085062E+03  0.7818608E-02  0.1081083E+00
         21   -1    0    0  503  502  0.00000000000E+00  0.00000000000E+00  0.12933413076E+03  0.12933413076E+03  0.00000000000E+00 0.  1.
         21   -1    0    0  501  503 -0.00000000000E+00 -0.00000000000E+00 -0.73620870378E+03  0.73620870378E+03  0.00000000000E+00 0.  1.
          6    2    1    2  501    0  0.17465010108E+03  0.18716703104E+03 -0.29018497153E+03  0.42342479993E+03  0.17189266470E+03 0.  0.
         24    2    3    3    0    0  0.82326547595E+02  0.13970366412E+03 -0.25707725133E+03  0.31436233680E+03  0.80250803342E+02 0.  0.
         -6    2    1    2    0  502 -0.17465010108E+03 -0.18716703104E+03 -0.31668960149E+03  0.44211803460E+03  0.17216822445E+03 0.  0.
        -24    2    5    5    0    0 -0.16653002999E+03 -0.13974643454E+03 -0.16993058653E+03  0.28760283471E+03  0.81102832484E+02 0.  0.
          5    1    3    3  501    0  0.92323553490E+02  0.47463366918E+02 -0.33107720197E+02  0.10906246313E+03  0.47000000000E+01 0. -1.
        -13    1    4    4    0    0  0.55056121412E+02  0.12958641264E+03 -0.16052040239E+03  0.21351958793E+03  0.00000000000E+00 0.  1.
         14    1    4    4    0    0  0.27270426182E+02  0.10117251479E+02 -0.96556848944E+02  0.10084274887E+03  0.00000000000E+00 0. -1.
         -5    1    5    5    0  502 -0.81200710920E+01 -0.47420596499E+02 -0.14675901496E+03  0.15451519989E+03  0.47000000000E+01 0.  1.
         11    1    6    6    0    0 -0.14453459999E+01 -0.32366886100E+02 -0.40834818343E+02  0.52126641269E+02  0.00000000000E+00 0. -1.
        -12    1    6    6    0    0 -0.16508468399E+03 -0.10737954844E+03 -0.12909576819E+03  0.23547619344E+03  0.00000000000E+00 0.  1.
</event>
<event>
12    1  0.8358445E-002  0.3125040E+03  0.7818608E-02  0.1079237E+00
         21   -1    0    0  503  502  0.00000000000E+00  0.00000000000E+00  0.20712507466E+04  0.20712507466E+04  0.00000000000E+00 0.  1.
         21   -1    0    0  501  503 -0.00000000000E+00 -0.00000000000E+00 -0.47791056239E+02  0.47791056239E+02  0.00000000000E+00 0. -1.
          6    2    1    2  501    0  0.20885177854E+03  0.15506218855E+03  0.87786235268E+03  0.93158569110E+03  0.17189020303E+03 0.  0.
         24    2    3    3    0    0  0.74014535875E+02  0.17878323699E+02  0.22441267216E+03  0.25039623893E+03  0.80866823006E+02 0.  0.
         -6    2    1    2    0  502 -0.20885177854E+03 -0.15506218855E+03  0.11455973377E+04  0.11874561118E+04  0.17319182858E+03 0.  0.
        -24    2    5    5    0    0 -0.29305934876E+02 -0.30189284657E+02  0.26466879152E+03  0.27977381845E+03  0.80334236534E+02 0.  0.
          5    1    3    3  501    0  0.13483724266E+03  0.13718386485E+03  0.65344968051E+03  0.68118945217E+03  0.47000000000E+01 0. -1.
        -11    1    4    4    0    0  0.82412775462E+02 -0.84354167419E+01  0.17903932128E+03  0.19727671018E+03  0.00000000000E+00 0.  1.
         12    1    4    4    0    0 -0.83982395866E+01  0.26313740441E+02  0.45373350880E+02  0.53119528746E+02  0.00000000000E+00 0. -1.
         -5    1    5    5    0  502 -0.17954584366E+03 -0.12487290390E+03  0.88092854621E+03  0.90768229333E+03  0.47000000000E+01 0.  1.
         11    1    6    6    0    0  0.28049915452E+02 -0.91166949552E+01  0.80521641536E+02  0.85753405993E+02  0.00000000000E+00 0. -1.
        -12    1    6    6    0    0 -0.57355850328E+02 -0.21072589701E+02  0.18414714999E+03  0.19402041246E+03  0.00000000000E+00 0.  1.
</event>
<event>
12    1  0.8358445E-002  0.2321221E+03  0.7818608E-02  0.1125417E+00
         21   -1    0    0  503  502  0.00000000000E+00  0.00000000000E+00  0.24686981336E+03  0.24686981336E+03  0.00000000000E+00 0.  1.
         21   -1    0    0  501  503 -0.00000000000E+00 -0.00000000000E+00 -0.29057549414E+03  0.29057549414E+03  0.00000000000E+00 0.  1.
          6    2    1    2  501    0 -0.10280511129E+00  0.15371284753E+03 -0.15715885649E+03  0.27908065679E+03  0.17192863856E+03 0.  0.
         24    2    3    3    0    0  0.57188016373E+02  0.13837101115E+03 -0.12103556103E+03  0.20947754878E+03  0.82548352289E+02 0.  0.
         -6    2    1    2    0  502  0.10280511129E+00 -0.15371284753E+03  0.11345317572E+03  0.25836465071E+03  0.17393395181E+03 0.  0.
        -24    2    5    5    0    0  0.20363265358E+02 -0.49619989220E+02 -0.93778576853E+01  0.96021304169E+02  0.79090712055E+02 0.  0.
          5    1    3    3  501    0 -0.57290821485E+02  0.15341836377E+02 -0.36123295458E+02  0.69603108009E+02  0.47000000000E+01 0. -1.
        -11    1    4    4    0    0 -0.45535839473E+01  0.26232515077E+02  0.79150016667E+01  0.27776378911E+02  0.00000000000E+00 0.  1.
         12    1    4    4    0    0  0.61741600321E+02  0.11213849607E+03 -0.12895056270E+03  0.18170116987E+03  0.00000000000E+00 0. -1.
         -5    1    5    5    0  502 -0.20260460247E+02 -0.10409285831E+03  0.12283103340E+03  0.16234334654E+03  0.47000000000E+01 0.  1.
         11    1    6    6    0    0 -0.15078803610E+02 -0.45989087179E+02 -0.27902887988E+02  0.55865352554E+02  0.00000000000E+00 0. -1.
        -12    1    6    6    0    0  0.35442068968E+02 -0.36309020407E+01  0.18525030303E+02  0.40155951615E+02  0.00000000000E+00 0.  1.
</event>
<event>
12    1  0.8358445E-002  0.2086909E+03  0.7818608E-02  0.1142746E+00
         21   -1    0    0  503  502  0.00000000000E+00  0.00000000000E+00  0.15556976516E+03  0.15556976516E+03  0.00000000000E+00 0. -1.
         21   -1    0    0  501  503 -0.00000000000E+00 -0.00000000000E+00 -0.52511394093E+03  0.52511394093E+03  0.00000000000E+00 0. -1.
          6    2    1    2  501    0  0.52631174190E+02 -0.10571644333E+03 -0.41759885688E+03  0.46653155031E+03  0.17122171380E+03 0.  0.
         24    2    3    3    0    0  0.85383677414E+02 -0.12380530327E+03 -0.34741405027E+03  0.38685764994E+03  0.79650445726E+02 0.  0.
         -6    2    1    2    0  502 -0.52631174190E+02  0.10571644333E+03  0.48054681109E+02  0.21415215578E+03  0.17206361196E+03 0.  0.
        -24    2    5    5    0    0 -0.97826081907E+00  0.12614892512E+03  0.16511286395E+02  0.15010072705E+03  0.79643564582E+02 0.  0.
          5    1    3    3  501    0 -0.32752503224E+02  0.18088859937E+02 -0.70184806612E+02  0.79673900371E+02  0.47000000000E+01 0. -1.
        -11    1    4    4    0    0 -0.12683737281E+02 -0.50344395409E+01 -0.13818544833E+02  0.19420992617E+02  0.00000000000E+00 0.  1.
         12    1    4    4    0    0  0.98067414695E+02 -0.11877086373E+03 -0.33359550543E+03  0.36743665732E+03  0.00000000000E+00 0. -1.
         -5    1    5    5    0  502 -0.51652913371E+02 -0.20432481789E+02  0.31543394714E+02  0.64051428726E+02  0.47000000000E+01 0.  1.
         13    1    6    6    0    0 -0.37611020683E+02  0.36828331241E+02  0.66377287729E+01  0.53056331404E+02  0.00000000000E+00 0. -1.
        -14    1    6    6    0    0  0.36632759864E+02  0.89320593880E+02  0.98735576219E+01  0.97044395646E+02  0.00000000000E+00 0.  1.
</event>
<event>
12    1  0.8358445E-002  0.1916659E+03  0.7818608E-02  0.1157295E+00
         21   -1    0    0  503  502  0.00000000000E+00  0.00000000000E+00  0.54598143037E+02  0.54598143037E+02  0.00000000000E+00 0.  1.
         21   -1    0    0  501  503 -0.00000000000E+00 -0.00000000000E+00 -0.14049423082E+04  0.14049423082E+04  0.00000000000E+00 0.  1.
          6    2    1    2  501    0 -0.69345169286E+02  0.47927558460E+02 -0.12025786945E+04  0.12175271108E+04  0.17050204001E+03 0.  0.
         24    2    3    3    0    0 -0.79488483897E+02 -0.21182746817E+02 -0.59826829290E+03  0.60917501486E+03  0.80013252670E+02 0.  0.
         -6    2    1    2    0  502  0.69345169286E+02 -0.47927558460E+02 -0.14776547065E+03  0.24201334045E+03  0.17213372498E+03 0.  0.
        -24    2    5    5    0    0  0.68882402238E+02 -0.63438569785E+02 -0.17300919210E+03  0.21201098891E+03  0.79039492628E+02 0.  0.
          5    1    3    3  501    0  0.10143314612E+02  0.69110305276E+02 -0.60431040159E+03  0.60835209591E+03  0.47000000000E+01 0. -1.
        -11    1    4    4    0    0 -0.70354863003E+02 -0.37533406240E+02 -0.56807805788E+03  0.57364731602E+03  0.00000000000E+00 0.  1.
         12    1    4    4    0    0 -0.91336208941E+01  0.16350659423E+02 -0.30190235025E+02  0.35527698843E+02  0.00000000000E+00 0. -1.
         -5    1    5    5    0  502  0.46276704782E+00  0.15511011325E+02  0.25243721442E+02  0.30002351540E+02  0.47000000000E+01 0.  1.
         13    1    6    6    0    0  0.80490400539E+02 -0.38127880324E+02 -0.10021474236E+03  0.13407249689E+03  0.00000000000E+00 0. -1.
        -14    1    6    6    0    0 -0.11607998301E+02 -0.25310689461E+02 -0.72794449740E+02  0.77938492021E+02  0.00000000000E+00 0.  1.
</event>
<event>
12    1  0.8358445E-002  0.1815339E+03  0.7818608E-02  0.1166477E+00
         21   -1    0    0  501  502  0.00000000000E+00  0.00000000000E+00  0.17333402210E+02  0.17333402210E+02  0.00000000000E+00 0.  1.
         21   -1    0    0  502  503 -0.00000000000E+00 -0.00000000000E+00 -0.18975108950E+04  0.18975108950E+04  0.00000000000E+00 0.  1.
         -6    2    1    2    0  503 -0.56352208314E+02  0.14775112106E+02 -0.97877314549E+03  0.99546542395E+03  0.17193215126E+03 0.  0.
        -24    2    3    3    0    0 -0.39734296590E+02  0.28812559623E+02 -0.25987038662E+03  0.27621826781E+03  0.79717850622E+02 0.  0.
          6    2    1    2  501    0  0.56352208314E+02 -0.14775112106E+02 -0.90140434731E+03  0.91937887327E+03  0.17127124668E+03 0.  0.
         24    2    5    5    0    0  0.41292031970E+02 -0.53950250403E+02 -0.32388635785E+03  0.34031875677E+03  0.79365118169E+02 0.  0.
          5    1    5    5  501    0  0.15060176345E+02  0.39175138298E+02 -0.57751798946E+03  0.57906011650E+03  0.47000000000E+01 0. -1.
        -13    1    6    6    0    0  0.29556018296E+02 -0.29585733739E+02 -0.30371555346E+03  0.30658116588E+03  0.00000000000E+00 0.  1.
         14    1    6    6    0    0  0.11736013674E+02 -0.24364516664E+02 -0.20170804397E+02  0.33737590893E+02  0.00000000000E+00 0. -1.
         -5    1    3    3    0  503 -0.16617911724E+02 -0.14037447518E+02 -0.71890275886E+03  0.71924715615E+03  0.47000000000E+01 0.  1.
         11    1    4    4    0    0 -0.17413056902E+02 -0.24044711141E+02 -0.14267713241E+03  0.14573306693E+03  0.00000000000E+00 0. -1.
        -12    1    4    4    0    0 -0.22321239688E+02  0.52857270764E+02 -0.11719325421E+03  0.13048520087E+03  0.00000000000E+00 0.  1.
</event>
<event>
12    1  0.8358445E-002  0.2012208E+03  0.7818608E-02  0.1148812E+00
         21   -1    0    0  503  502  0.00000000000E+00  0.00000000000E+00  0.41594733934E+03  0.41594733934E+03  0.00000000000E+00 0. -1.
         21   -1    0    0  501  503 -0.00000000000E+00 -0.00000000000E+00 -0.11189030047E+03  0.11189030047E+03  0.00000000000E+00 0.  1.
          6    2    1    2  501    0 -0.43975472102E+02  0.94090400982E+02  0.24777843536E+03  0.31889484115E+03  0.17179325067E+03 0.  0.
         24    2    3    3    0    0 -0.78079925649E+02  0.53662030396E+02  0.91526737859E+02  0.15386681361E+03  0.79509523279E+02 0.  0.
         -6    2    1    2    0  502  0.43975472102E+02 -0.94090400982E+02  0.56278603507E+02  0.20894279866E+03  0.17234548499E+03 0.  0.
        -24    2    5    5    0    0  0.92741815267E+02 -0.89434966482E+02  0.37088965744E+02  0.15612081939E+03  0.79990382793E+02 0.  0.
          5    1    3    3  501    0  0.34104453547E+02  0.40428370586E+02  0.15625169750E+03  0.16502802753E+03  0.47000000000E+01 0. -1.
        -13    1    4    4    0    0 -0.88731992260E+01  0.41774025868E+02  0.58725163754E+01  0.43107880374E+02  0.00000000000E+00 0.  1.
         14    1    4    4    0    0 -0.69206726423E+02  0.11888004528E+02  0.85654221484E+02  0.11075893324E+03  0.00000000000E+00 0. -1.
         -5    1    5    5    0  502 -0.48766343165E+02 -0.46554345004E+01  0.19189637763E+02  0.52821979265E+02  0.47000000000E+01 0.  1.
         11    1    6    6    0    0  0.36190575330E+02 -0.72279814204E+01  0.42385016766E+02  0.56200454663E+02  0.00000000000E+00 0. -1.
        -12    1    6    6    0    0  0.56551239937E+02 -0.82206985061E+02 -0.52960510213E+01  0.99920364730E+02  0.00000000000E+00 0.  1.
</event>
<event>
12    1  0.8358445E-002  0.1780396E+03  0.7818608E-02  0.1170672E+00
         21   -1    0    0  501  502  0.00000000000E+00  0.00000000000E+00  0.94302046909E+02  0.94302046909E+02  0.00000000000E+00 0. -1.
         21   -1    0    0  502  503 -0.00000000000E+00 -0.00000000000E+00 -0.33224554838E+03  0.33224554838E+03  0.00000000000E+00 0. -1.
         -6    2    1    2    0  503 -0.41927835479E+01 -0.38979160914E+02 -0.98818803982E+02  0.20362529699E+03  0.17366966094E+03 0.  0.
        -24    2    3    3    0    0 -0.26237673478E+02  0.28646522762E+02 -0.98724135205E+02  0.13234199440E+03  0.79113272181E+02 0.  0.
          6    2    1    2  501    0  0.41927835479E+01  0.38979160914E+02 -0.13912469749E+03  0.22292229830E+03  0.16971068089E+03 0.  0.
         24    2    5    5    0    0 -0.54149441789E+01  0.82956691834E+02 -0.45820787808E+02  0.11922060488E+03  0.72130948221E+02 0.  0.
          5    1    5    5  501    0  0.96077277268E+01 -0.43977530919E+02 -0.93303909678E+02  0.10370169342E+03  0.47000000000E+01 0. -1.
        -13    1    6    6    0    0 -0.26005133916E+02  0.61744520193E+01 -0.26008426033E+02  0.37293820835E+02  0.00000000000E+00 0.  1.
         14    1    6    6    0    0  0.20590189737E+02  0.76782239814E+02 -0.19812361775E+02  0.81926784042E+02  0.00000000000E+00 0. -1.
         -5    1    3    3    0  503  0.22044889930E+02 -0.67625683676E+02 -0.94668776900E-01  0.71283302581E+02  0.47000000000E+01 0.  1.
         13    1    4    4    0    0  0.14108232321E+02  0.10748647215E+02 -0.83941290651E+02  0.85794614704E+02  0.00000000000E+00 0. -1.
        -14    1    4    4    0    0 -0.40345905799E+02  0.17897875547E+02 -0.14782844554E+02  0.46547379700E+02  0.00000000000E+00 0.  1.
</event>
<event>
12    1  0.8358445E-002  0.1887847E+03  0.7818608E-02  0.1159792E+00
         21   -1    0    0  501  502  0.00000000000E+00  0.00000000000E+00  0.51714400690E+03  0.51714400690E+03  0.00000000000E+00 0.  1.
         21   -1    0    0  502  503 -0.00000000000E+00 -0.00000000000E+00 -0.83137062554E+02  0.83137062554E+02  0.00000000000E+00 0.  1.
         -6    2    1    2    0  503 -0.74432836186E+02  0.21111763887E+02  0.91754548878E+02  0.20990126742E+03  0.17220247137E+03 0.  0.
        -24    2    3    3    0    0 -0.13805210595E+02 -0.82218618620E+01 -0.15732867965E+02  0.82968980886E+02  0.79863294465E+02 0.  0.
          6    2    1    2  501    0  0.74432836186E+02 -0.21111763887E+02  0.34225239547E+03  0.39037980204E+03  0.17109568656E+03 0.  0.
         24    2    5    5    0    0  0.24116091181E+02 -0.20572291719E+02  0.32567790387E+03  0.33719268302E+03  0.81412550446E+02 0.  0.
          5    1    5    5  501    0  0.50316745005E+02 -0.53947216802E+00  0.16574491598E+02  0.53187119022E+02  0.47000000000E+01 0. -1.
        -11    1    6    6    0    0  0.34201689818E+02  0.97410436644E+01  0.61119501705E+02  0.70712353990E+02  0.00000000000E+00 0.  1.
         12    1    6    6    0    0 -0.10085598638E+02 -0.30313335383E+02  0.26455840217E+03  0.26648032903E+03  0.00000000000E+00 0. -1.
         -5    1    3    3    0  503 -0.60627625591E+02  0.29333625749E+02  0.10748741684E+03  0.12693228653E+03  0.47000000000E+01 0.  1.
         11    1    4    4    0    0  0.16244110688E+02  0.22982542160E+02 -0.26145788485E+02  0.38414458628E+02  0.00000000000E+00 0. -1.
        -12    1    4    4    0    0 -0.30049321283E+02 -0.31204404022E+02  0.10412920519E+02  0.44554522259E+02  0.00000000000E+00 0.  1.
</event>
<event>
12    1  0.8358445E-002  0.2701979E+03  0.7818608E-02  0.1103100E+00
         21   -1    0    0  503  502  0.00000000000E+00  0.00000000000E+00  0.18393717837E+03  0.18393717837E+03  0.00000000000E+00 0.  1.
         21   -1    0    0  501  503 -0.00000000000E+00 -0.00000000000E+00 -0.41669724997E+03  0.41669724997E+03  0.00000000000E+00 0.  1.
          6    2    1    2  501    0 -0.74299112996E+02 -0.17445730775E+03 -0.20547201135E+03  0.32906208625E+03  0.17351483722E+03 0.  0.
         24    2    3    3    0    0 -0.10219043124E+03 -0.17416657893E+03 -0.20904100896E+03  0.30055177407E+03  0.76526753567E+02 0.  0.
         -6    2    1    2    0  502  0.74299112996E+02  0.17445730775E+03 -0.27288060247E+02  0.27157234210E+03  0.19248685239E+03 0.  0.
        -24    2    5    5    0    0  0.30211326177E+01  0.13722141817E+03 -0.76581706959E+02  0.17713180226E+03  0.81682756340E+02 0.  0.
          5    1    3    3  501    0  0.27891318244E+02 -0.29072882058E+00  0.35689976147E+01  0.28510312180E+02  0.47000000000E+01 0. -1.
        -13    1    4    4    0    0 -0.71945104151E+02 -0.10673492992E+03 -0.79145959401E+02  0.15110435522E+03  0.00000000000E+00 0.  1.
         14    1    4    4    0    0 -0.30245327090E+02 -0.67431649010E+02 -0.12989504956E+03  0.14944741885E+03  0.00000000000E+00 0. -1.
         -5    1    5    5    0  502  0.71277980379E+02  0.37235889586E+02  0.49293646711E+02  0.94440539845E+02  0.47000000000E+01 0.  1.
         13    1    6    6    0    0  0.28020857864E+01  0.23687052631E+02  0.17580047565E+02  0.29630832244E+02  0.00000000000E+00 0. -1.
        -14    1    6    6    0    0  0.21904683125E+00  0.11353436554E+03 -0.94161754524E+02  0.14750097001E+03  0.00000000000E+00 0.  1.
</event>
<event>
12    1  0.8358445E-002  0.2063054E+03  0.7818608E-02  0.1144900E+00
         21   -1    0    0  503  502  0.00000000000E+00  0.00000000000E+00  0.21368721509E+03  0.21368721509E+03  0.00000000000E+00 0. -1.
         21   -1    0    0  501  503 -0.00000000000E+00 -0.00000000000E+00 -0.32016190182E+03  0.32016190182E+03  0.00000000000E+00 0. -1.
          6    2    1    2  501    0  0.31209243922E+02 -0.10823521448E+03 -0.21866390074E+03  0.30062568429E+03  0.17283813818E+03 0.  0.
         24    2    3    3    0    0  0.76400695707E+02 -0.48194926107E+02 -0.86996598126E+02  0.14895013544E+03  0.80361169441E+02 0.  0.
         -6    2    1    2    0  502 -0.31209243922E+02  0.10823521448E+03  0.11218921401E+03  0.23322343261E+03  0.17063959453E+03 0.  0.
        -24    2    5    5    0    0 -0.43241171551E+01  0.73220702870E+02  0.14245043793E+03  0.17949580715E+03  0.80911360153E+02 0.  0.
          5    1    3    3  501    0 -0.45191451785E+02 -0.60040288371E+02 -0.13166730261E+03  0.15167554885E+03  0.47000000000E+01 0. -1.
        -13    1    4    4    0    0  0.55806744035E+02  0.57113839195E+01 -0.68096256423E+02  0.88227618833E+02  0.00000000000E+00 0.  1.
         14    1    4    4    0    0  0.20593951672E+02 -0.53906310027E+02 -0.18900341703E+02  0.60722516604E+02  0.00000000000E+00 0. -1.
         -5    1    5    5    0  502 -0.26885126767E+02  0.35014511608E+02 -0.30261223919E+02  0.53727625459E+02  0.47000000000E+01 0.  1.
         11    1    6    6    0    0  0.15979385261E+01  0.11357669481E+02  0.10767034270E+03  0.10827951220E+03  0.00000000000E+00 0. -1.
        -12    1    6    6    0    0 -0.59220556812E+01  0.61863033389E+02  0.34780095224E+02  0.71216294957E+02  0.00000000000E+00 0.  1.
</event>
<event>
12    1  0.8358445E-002  0.2123133E+03  0.7818608E-02  0.1139877E+00
         21   -1    0    0  503  502  0.00000000000E+00  0.00000000000E+00  0.78301097520E+02  0.78301097520E+02  0.00000000000E+00 0. -1.
         21   -1    0    0  501  503 -0.00000000000E+00 -0.00000000000E+00 -0.60215209186E+03  0.60215209186E+03  0.00000000000E+00 0. -1.
          6    2    1    2  501    0  0.12360899062E+03  0.95754119638E+01 -0.33523998930E+03  0.39646193880E+03  0.17153818064E+03 0.  0.
         24    2    3    3    0    0  0.88666052914E+02 -0.53270994934E+02 -0.15837826044E+03  0.20548329892E+03  0.80251136534E+02 0.  0.
         -6    2    1    2    0  502 -0.12360899062E+03 -0.95754119638E+01 -0.18861100504E+03  0.28399125057E+03  0.17235442583E+03 0.  0.
        -24    2    5    5    0    0 -0.44991523427E+02  0.60467319024E+01 -0.18227073612E+03  0.20344904712E+03  0.78154292155E+02 0.  0.
          5    1    3    3  501    0  0.34942937706E+02  0.62846406898E+02 -0.17686172886E+03  0.19097863988E+03  0.47000000000E+01 0. -1.
        -11    1    4    4    0    0  0.29136667455E+02 -0.43163137584E+02 -0.12737067979E+03  0.13760556641E+03  0.00000000000E+00 0.  1.
         12    1    4    4    0    0  0.59529385460E+02 -0.10107857351E+02 -0.31007580651E+02  0.67877732514E+02  0.00000000000E+00 0. -1.
         -5    1    5    5    0  502 -0.78617467193E+02 -0.15622143866E+02 -0.63402689169E+01  0.80542203451E+02  0.47000000000E+01 0.  1.
         11    1    6    6    0    0 -0.65782332530E+02 -0.38179117355E+00 -0.15621358683E+03  0.16949969247E+03  0.00000000000E+00 0. -1.
        -12    1    6    6    0    0  0.20790809103E+02  0.64285230760E+01 -0.26057149289E+02  0.33949354650E+02  0.00000000000E+00 0.  1.
</event>
<event>
12    1  0.8358445E-002  0.2460299E+03  0.7818608E-02  0.1117849E+00
         21   -1    0    0  501  502  0.00000000000E+00  0.00000000000E+00  0.20203124524E+04  0.20203124524E+04  0.00000000000E+00 0. -1.
         21   -1    0    0  502  503 -0.00000000000E+00 -0.00000000000E+00 -0.28525346034E+02  0.28525346034E+02  0.00000000000E+00 0. -1.
         -6    2    1    2    0  503  0.14716898822E+03 -0.54724711949E+02  0.94210094908E+03  0.97070434328E+03  0.17337594591E+03 0.  0.
        -24    2    3    3    0    0  0.14227189627E+03 -0.84456363633E+02  0.60458018033E+03  0.63180861897E+03  0.79314353851E+02 0.  0.
          6    2    1    2  501    0 -0.14716898822E+03  0.54724711949E+02  0.10496861573E+04  0.10781334551E+04  0.18941281141E+03 0.  0.
         24    2    5    5    0    0 -0.95887900841E+02  0.86046139578E+02  0.94526033801E+03  0.95756138756E+03  0.82512281892E+02 0.  0.
          5    1    5    5  501    0 -0.51281087377E+02 -0.31321427629E+02  0.10442581925E+03  0.12057206757E+03  0.47000000000E+01 0. -1.
        -11    1    6    6    0    0 -0.54313897769E+02  0.32376675556E+02  0.70688311279E+03  0.70970556132E+03  0.00000000000E+00 0.  1.
         12    1    6    6    0    0 -0.41574003072E+02  0.53669464022E+02  0.23837722521E+03  0.24785582624E+03  0.00000000000E+00 0. -1.
         -5    1    3    3    0  503  0.48970919427E+01  0.29731651685E+02  0.33752076875E+03  0.33889572431E+03  0.47000000000E+01 0.  1.
         13    1    4    4    0    0  0.71546809961E+02 -0.49339372731E+02  0.44903134250E+03  0.45736469722E+03  0.00000000000E+00 0. -1.
        -14    1    4    4    0    0  0.70725086314E+02 -0.35116990903E+02  0.15554883783E+03  0.17444392175E+03  0.00000000000E+00 0.  1.
</event>
<event>
12    1  0.8358445E-002  0.2375252E+03  0.7818608E-02  0.1121533E+00
         21   -1    0    0  503  502  0.00000000000E+00  0.00000000000E+00  0.11246004935E+04  0.11246004935E+04  0.00000000000E+00 0.  1.
         21   -1    0    0  501  503 -0.00000000000E+00 -0.00000000000E+00 -0.65762127539E+02  0.65762127539E+02  0.00000000000E+00 0. -1.
          6    2    1    2  501    0 -0.16201557594E+03 -0.27077519427E+02  0.23825291024E+03  0.33609175188E+03  0.17091219247E+03 0.  0.
         24    2    3    3    0    0 -0.13416679501E+03 -0.47479416485E+02  0.25040026124E+03  0.29919405359E+03  0.81004734454E+02 0.  0.
         -6    2    1    2    0  502  0.16201557594E+03  0.27077519427E+02  0.82058545568E+03  0.85427086913E+03  0.17156919555E+03 0.  0.
        -24    2    5    5    0    0  0.96643608458E+02  0.19328832718E+02  0.24003947011E+03  0.26998560692E+03  0.74563328118E+02 0.  0.
          5    1    3    3  501    0 -0.27848780923E+02  0.20401897057E+02 -0.12147350993E+02  0.36897698283E+02  0.47000000000E+01 0. -1.
        -11    1    4    4    0    0  0.37357624354E+01 -0.19257068257E+02  0.54841689152E+02  0.58244325628E+02  0.00000000000E+00 0.  1.
         12    1    4    4    0    0 -0.13790255745E+03 -0.28222348227E+02  0.19555857208E+03  0.24094972796E+03  0.00000000000E+00 0. -1.
         -5    1    5    5    0  502  0.65371967479E+02  0.77486867096E+01  0.58054598557E+03  0.58428526221E+03  0.47000000000E+01 0.  1.
         11    1    6    6    0    0  0.21470756264E+00  0.16656829379E+02  0.90576593455E+02  0.92095685817E+02  0.00000000000E+00 0. -1.
        -12    1    6    6    0    0  0.96428900895E+02  0.26720033387E+01  0.14946287666E+03  0.17788992110E+03  0.00000000000E+00 0.  1.
</event>
<event>
12    1  0.8358445E-002  0.2449585E+03  0.7818608E-02  0.1116614E+00
         21   -1    0    0  501  502  0.00000000000E+00  0.00000000000E+00  0.20577137260E+04  0.20577137260E+04  0.00000000000E+00 0.  1.
         21   -1    0    0  502  503 -0.00000000000E+00 -0.00000000000E+00 -0.45259445080E+02  0.45259445080E+02  0.00000000000E+00 0.  1.
         -6    2    1    2    0  503 -0.55328504911E+02  0.16515325702E+03  0.37862208428E+03  0.45095380595E+03  0.17224346327E+03 0.  0.
        -24    2    3    3    0    0 -0.93980095795E+01  0.14411756334E+02  0.91961382224E+02  0.12380084703E+03  0.81078558201E+02 0.  0.
          6    2    1    2  501    0  0.55328504911E+02 -0.16515325702E+03  0.16338321966E+04  0.16520193651E+04  0.17153277882E+03 0.  0.
         24    2    5    5    0    0 -0.29014256000E+02 -0.85649881869E+02  0.58923609651E+03  0.60100195786E+03  0.76331164011E+02 0.  0.
          5    1    5    5  501    0  0.84342760911E+02 -0.79503375152E+02  0.10445961001E+04  0.10510174072E+04  0.47000000000E+01 0. -1.
        -11    1    6    6    0    0  0.57436705693E+01 -0.67754386504E+02  0.23574323543E+03  0.24535386627E+03  0.00000000000E+00 0.  1.
         12    1    6    6    0    0 -0.34757926569E+02 -0.17895495365E+02  0.35349286109E+03  0.35564809159E+03  0.00000000000E+00 0. -1.
         -5    1    3    3    0  503 -0.45930495331E+02  0.15074150069E+03  0.28666070205E+03  0.32715295892E+03  0.47000000000E+01 0.  1.
         11    1    4    4    0    0  0.55758438071E+01  0.39252819331E+02  0.16474856808E+02  0.42933608821E+02  0.00000000000E+00 0. -1.
        -12    1    4    4    0    0 -0.14973853387E+02 -0.24841062996E+02  0.75486525415E+02  0.80867238208E+02  0.00000000000E+00 0.  1.
</event>
<event>
12    1  0.8358445E-002  0.1813591E+03  0.7818608E-02  0.1166547E+00
         21   -1    0    0  501  502  0.00000000000E+00  0.00000000000E+00  0.12104832777E+04  0.12104832777E+04  0.00000000000E+00 0. -1.
         21   -1    0    0  502  503 -0.00000000000E+00 -0.00000000000E+00 -0.31488327413E+02  0.31488327413E+02  0.00000000000E+00 0. -1.
         -6    2    1    2    0  503  0.56122319947E+02  0.21769527310E+02  0.35901342184E+03  0.40222101432E+03  0.17107740991E+03 0.  0.
        -24    2    3    3    0    0  0.38619487482E+02 -0.19268710922E+02  0.84255682091E+02  0.12382490857E+03  0.79817541836E+02 0.  0.
          6    2    1    2  501    0 -0.56122319947E+02 -0.21769527310E+02  0.81998152841E+03  0.83975059076E+03  0.17084414134E+03 0.  0.
         24    2    5    5    0    0 -0.15513593426E+02 -0.66017971700E+02  0.32343422954E+03  0.33956232269E+03  0.78062961654E+02 0.  0.
          5    1    5    5  501    0 -0.40608726521E+02  0.44248444390E+02  0.49654729887E+03  0.50018826808E+03  0.47000000000E+01 0. -1.
        -13    1    6    6    0    0 -0.34054590883E+00 -0.53983184288E+02  0.31288723043E+03  0.31751018743E+03  0.00000000000E+00 0.  1.
         14    1    6    6    0    0 -0.15173047517E+02 -0.12034787413E+02  0.10546999108E+02  0.22052135253E+02  0.00000000000E+00 0. -1.
         -5    1    3    3    0  503  0.17502832465E+02  0.41038238232E+02  0.27475773975E+03  0.27839610574E+03  0.47000000000E+01 0.  1.
         13    1    4    4    0    0  0.32372712205E+02  0.28068443517E+02  0.43349495904E+02  0.60950872120E+02  0.00000000000E+00 0. -1.
        -14    1    4    4    0    0  0.62467752774E+01 -0.47337154439E+02  0.40906186186E+02  0.62874036454E+02  0.00000000000E+00 0.  1.
</event>
<event>
12    1  0.8358445E-002  0.3270541E+03  0.7818608E-02  0.1072465E+00
         21   -1    0    0  503  502  0.00000000000E+00  0.00000000000E+00  0.25947188501E+03  0.25947188501E+03  0.00000000000E+00 0. -1.
         21   -1    0    0  501  503 -0.00000000000E+00 -0.00000000000E+00 -0.44068285245E+03  0.44068285245E+03  0.00000000000E+00 0.  1.
          6    2    1    2  501    0 -0.97658071366E+02  0.26006473830E+03 -0.17982279714E+03  0.37309773540E+03  0.17232212505E+03 0.  0.
         24    2    3    3    0    0 -0.61873770692E+02  0.14417385192E+03 -0.17956094530E+03  0.25171663190E+03  0.80651513443E+02 0.  0.
         -6    2    1    2    0  502  0.97658071366E+02 -0.26006473830E+03 -0.13881703057E+01  0.32705700206E+03  0.17260819382E+03 0.  0.
        -24    2    5    5    0    0  0.81002172821E+02 -0.17984121425E+03  0.63826738678E+02  0.22223187568E+03  0.80055853349E+02 0.  0.
          5    1    3    3  501    0 -0.35784300673E+02  0.11589088638E+03 -0.26185183420E+00  0.12138110350E+03  0.47000000000E+01 0. -1.
        -11    1    4    4    0    0 -0.30907237170E+02  0.24215254667E+01 -0.37493310688E+02  0.48650482437E+02  0.00000000000E+00 0.  1.
         12    1    4    4    0    0 -0.30966533522E+02  0.14175232645E+03 -0.14206763462E+03  0.20306614946E+03  0.00000000000E+00 0. -1.
         -5    1    5    5    0  502  0.16655898544E+02 -0.80223524048E+02 -0.65214908984E+02  0.10482512638E+03  0.47000000000E+01 0.  1.
         11    1    6    6    0    0  0.20093130619E+02 -0.10703855226E+03  0.65887680273E+02  0.12728775267E+03  0.00000000000E+00 0. -1.
        -12    1    6    6    0    0  0.60909042203E+02 -0.72802661990E+02 -0.20609415947E+01  0.94944123015E+02  0.00000000000E+00 0.  1.
</event>
<event>
12    1  0.8358445E-002  0.2252302E+03  0.7818608E-02  0.1130136E+00
         21   -1    0    0  503  502  0.00000000000E+00  0.00000000000E+00  0.46199455826E+03  0.46199455826E+03  0.00000000000E+00 0.  1.
         21   -1    0    0  501  503 -0.00000000000E+00 -0.00000000000E+00 -0.13296076660E+03  0.13296076660E+03  0.00000000000E+00 0.  1.
          6    2    1    2  501    0 -0.43888556559E+02 -0.13808937112E+03  0.39539330386E+02  0.22816425155E+03  0.17175764094E+03 0.  0.
         24    2    3    3    0    0 -0.82846414602E+02 -0.77492149312E+02  0.25810492507E+02  0.15467745692E+03  0.10193317683E+03 0.  0.
         -6    2    1    2    0  502  0.43888556559E+02  0.13808937112E+03  0.28949446128E+03  0.36679107331E+03  0.17243482402E+03 0.  0.
        -24    2    5    5    0    0  0.39337253212E+01  0.16035761002E+03  0.22928001518E+03  0.29102741103E+03  0.79984944362E+02 0.  0.
          5    1    3    3  501    0  0.38957858042E+02 -0.60597221813E+02  0.13728837879E+02  0.73486794625E+02  0.47000000000E+01 0. -1.
        -13    1    4    4    0    0 -0.11086406418E+02 -0.76990831806E+02  0.28561794458E+02  0.82862975400E+02  0.00000000000E+00 0.  1.
         14    1    4    4    0    0 -0.71760008184E+02 -0.50131750580E+00 -0.27513019510E+01  0.71814481521E+02  0.00000000000E+00 0. -1.
         -5    1    5    5    0  502  0.39954831238E+02 -0.22268238896E+02  0.60214446104E+02  0.75763662282E+02  0.47000000000E+01 0.  1.
         11    1    6    6    0    0 -0.37268872288E+02  0.63604363357E+02  0.10366866402E+03  0.12720721591E+03  0.00000000000E+00 0. -1.
        -12    1    6    6    0    0  0.41202597610E+02  0.96753246663E+02  0.12561135115E+03  0.16382019512E+03  0.00000000000E+00 0.  1.
</event>
<event>
12    1  0.8358445E-002  0.1811076E+03  0.7818608E-02  0.1166935E+00
         21   -1    0    0  503  502  0.00000000000E+00  0.00000000000E+00  0.35595090885E+03  0.35595090885E+03  0.00000000000E+00 0.  1.
         21   -1    0    0  501  503 -0.00000000000E+00 -0.00000000000E+00 -0.92034897815E+02  0.92034897815E+02  0.00000000000E+00 0.  1.
          6    2    1    2  501    0 -0.54594475238E+02 -0.13469977560E+02  0.11866380556E+03  0.21582601469E+03  0.17128272781E+03 0.  0.
         24    2    3    3    0    0 -0.64685064719E+02  0.50553251065E+02  0.53199357994E+02  0.12358460482E+03  0.75519494612E+02 0.  0.
         -6    2    1    2    0  502  0.54594475238E+02  0.13469977560E+02  0.14525220547E+03  0.23215979198E+03  0.17215681454E+03 0.  0.
        -24    2    5    5    0    0  0.49170261118E+01  0.50833805893E+00  0.15938021751E+03  0.17870379349E+03  0.80675625316E+02 0.  0.
          5    1    3    3  501    0  0.10090589481E+02 -0.64023228625E+02  0.65464447567E+02  0.92241409870E+02  0.47000000000E+01 0. -1.
        -13    1    4    4    0    0 -0.77584640791E+02  0.24015650103E+02  0.32192894031E+02  0.87364239610E+02  0.00000000000E+00 0.  1.
         14    1    4    4    0    0  0.12899576072E+02  0.26537600962E+02  0.21006463963E+02  0.36220365209E+02  0.00000000000E+00 0. -1.
         -5    1    5    5    0  502  0.49677449126E+02  0.12961639501E+02 -0.14128012036E+02  0.53455998488E+02  0.47000000000E+01 0.  1.
         11    1    6    6    0    0 -0.34273977219E+02 -0.15683474203E+02  0.87055135482E+02  0.94864500691E+02  0.00000000000E+00 0. -1.
        -12    1    6    6    0    0  0.39191003331E+02  0.16191812262E+02  0.72325082028E+02  0.83839292797E+02  0.00000000000E+00 0.  1.
</event>
<event>
12    1  0.8358445E-002  0.2050466E+03  0.7818608E-02  0.1145576E+00
         21   -1    0    0  501  502  0.00000000000E+00  0.00000000000E+00  0.54109514252E+02  0.54109514252E+02  0.00000000000E+00 0. -1.
         21   -1    0    0  502  503 -0.00000000000E+00 -0.00000000000E+00 -0.10207614536E+04  0.10207614536E+04  0.00000000000E+00 0. -1.
         -6    2    1    2    0  503 -0.10817273180E+03  0.26464587933E+02 -0.74609295867E+03  0.77372253267E+03  0.17201784866E+03 0.  0.
        -24    2    3    3    0    0 -0.10585761305E+03 -0.42739191998E+01 -0.72329575336E+03  0.73509588169E+03  0.77363478631E+02 0.  0.
          6    2    1    2  501    0  0.10817273180E+03 -0.26464587933E+02 -0.22055898068E+03  0.30114843519E+03  0.17216968879E+03 0.  0.
         24    2    5    5    0    0 -0.18331002049E+02 -0.14300889295E+02 -0.50578074740E+02  0.88859131111E+02  0.69262273040E+02 0.  0.
          5    1    5    5  501    0  0.12650373385E+03 -0.12163698638E+02 -0.16998090594E+03  0.21228930408E+03  0.47000000000E+01 0. -1.
        -11    1    6    6    0    0 -0.24337958023E+02  0.26150508127E+00  0.99649793955E+01  0.26300292774E+02  0.00000000000E+00 0.  1.
         12    1    6    6    0    0  0.60069559740E+01 -0.14562394377E+02 -0.60543054135E+02  0.62558838337E+02  0.00000000000E+00 0. -1.
         -5    1    3    3    0  503 -0.23151187454E+01  0.30738507133E+02 -0.22797205317E+02  0.38626650978E+02  0.47000000000E+01 0.  1.
         13    1    4    4    0    0 -0.91786715691E+01 -0.16124691170E+02 -0.32144441025E+02  0.37114939929E+02  0.00000000000E+00 0. -1.
        -14    1    4    4    0    0 -0.96678941484E+02  0.11850771971E+02 -0.69115131233E+03  0.69798094176E+03  0.00000000000E+00 0.  1.
</event>
<event>
12    1  0.8358445E-002  0.2059829E+03  0.7818608E-02  0.1145183E+00
         21   -1    0    0  503  502  0.00000000000E+00  0.00000000000E+00  0.19755242052E+03  0.19755242052E+03  0.00000000000E+00 0. -1.
         21   -1    0    0  501  503 -0.00000000000E+00 -0.00000000000E+00 -0.22181596650E+03  0.22181596650E+03  0.00000000000E+00 0. -1.
          6    2    1    2  501    0  0.15889740504E+02 -0.11034272722E+03  0.30197031117E+02  0.20818461036E+03  0.17320788088E+03 0.  0.
         24    2    3    3    0    0 -0.94039397543E+01  0.52104226987E+01 -0.15305039492E+02  0.81358630585E+02  0.79179542491E+02 0.  0.
         -6    2    1    2    0  502 -0.15889740504E+02  0.11034272722E+03 -0.54460577100E+02  0.21118377665E+03  0.17089362703E+03 0.  0.
        -24    2    5    5    0    0 -0.66166250119E+02  0.75129627315E+02  0.11488849436E+02  0.12096677890E+03  0.66921852786E+02 0.  0.
          5    1    3    3  501    0  0.25293680259E+02 -0.11555314991E+03  0.45502070609E+02  0.12682597977E+03  0.47000000000E+01 0. -1.
        -13    1    4    4    0    0 -0.35712620569E+02  0.17610111364E+02  0.11874457837E+02  0.41551294072E+02  0.00000000000E+00 0.  1.
         14    1    4    4    0    0  0.26308680814E+02 -0.12399688666E+02 -0.27179497329E+02  0.39807336513E+02  0.00000000000E+00 0. -1.
         -5    1    5    5    0  502  0.50276509615E+02  0.35213099901E+02 -0.65949426536E+02  0.90216997756E+02  0.47000000000E+01 0.  1.
         13    1    6    6    0    0 -0.61389112347E+02  0.70387840936E+02 -0.14146355220E+02  0.94462641464E+02  0.00000000000E+00 0. -1.
        -14    1    6    6    0    0 -0.47771377723E+01  0.47417863791E+01  0.25635204656E+02  0.26504137434E+02  0.00000000000E+00 0.  1.
</event>
<event>
12    1  0.8358445E-002  0.1886701E+03  0.7818608E-02  0.1159711E+00
         21   -1    0    0  503  502  0.00000000000E+00  0.00000000000E+00  0.43315409202E+02  0.43315409202E+02  0.00000000000E+00 0.  1.
         21   -1    0    0  501  503 -0.00000000000E+00 -0.00000000000E+00 -0.10400078478E+04  0.10400078478E+04  0.00000000000E+00 0.  1.
          6    2    1    2  501    0 -0.56972580905E+02 -0.52322237461E+02 -0.74673982197E+03  0.77015762125E+03  0.17186886965E+03 0.  0.
         24    2    3    3    0    0 -0.88677265660E+02 -0.64770777566E+02 -0.69437608341E+03  0.70751415151E+03  0.79744707039E+02 0.  0.
         -6    2    1    2    0  502  0.56972580905E+02  0.52322237461E+02 -0.24995261664E+03  0.31316563575E+03  0.17208402990E+03 0.  0.
        -24    2    5    5    0    0  0.15216281195E+02  0.77230687551E+02 -0.23778417961E+03  0.26282499302E+03  0.79621269567E+02 0.  0.
          5    1    3    3  501    0  0.31704684755E+02  0.12448540105E+02 -0.52363738557E+02  0.62643469746E+02  0.47000000000E+01 0. -1.
        -11    1    4    4    0    0 -0.66122711626E+02 -0.26086065808E+02 -0.58535108875E+03  0.58965124686E+03  0.00000000000E+00 0.  1.
         12    1    4    4    0    0 -0.22554554034E+02 -0.38684711758E+02 -0.10902499466E+03  0.11786290464E+03  0.00000000000E+00 0. -1.
         -5    1    5    5    0  502  0.41756299710E+02 -0.24908450090E+02 -0.12168437023E+02  0.50340642735E+02  0.47000000000E+01 0.  1.
         11    1    6    6    0    0 -0.20357694680E+02  0.74882957017E+01 -0.14190390115E+02  0.25920599469E+02  0.00000000000E+00 0. -1.
        -12    1    6    6    0    0  0.35573975876E+02  0.69742391850E+02 -0.22359378950E+03  0.23690439355E+03  0.00000000000E+00 0.  1.
</event>
<event>
12    1  0.8358445E-002  0.2038194E+03  0.7818608E-02  0.1146909E+00
         21   -1    0    0  503  502  0.00000000000E+00  0.00000000000E+00  0.81068978312E+03  0.81068978312E+03  0.00000000000E+00 0.  1.
         21   -1    0    0  501  503 -0.00000000000E+00 -0.00000000000E+00 -0.68030639190E+02  0.68030639190E+02  0.00000000000E+00 0.  1.
          6    2    1    2  501    0 -0.48371793583E+02 -0.97366381393E+02  0.14914464907E+03  0.25118411812E+03  0.17037984684E+03 0.  0.
         24    2    3    3    0    0 -0.91525533478E+02 -0.38663688481E+02  0.10836608904E+03  0.16755856951E+03  0.80379480447E+02 0.  0.
         -6    2    1    2    0  502  0.48371793583E+02  0.97366381393E+02  0.59351449486E+03  0.62753630419E+03  0.17240160913E+03 0.  0.
        -24    2    5    5    0    0  0.56160382428E+02  0.10242959203E+02  0.18399666965E+03  0.20875462841E+03  0.80404065011E+02 0.  0.
          5    1    3    3  501    0  0.43153739896E+02 -0.58702692912E+02  0.40778560026E+02  0.83625548607E+02  0.47000000000E+01 0. -1.
        -11    1    4    4    0    0 -0.12994275846E+02 -0.12338389613E+02 -0.11914812117E+02  0.21518592212E+02  0.00000000000E+00 0.  1.
         12    1    4    4    0    0 -0.78531257632E+02 -0.26325298868E+02  0.12028090116E+03  0.14603997730E+03  0.00000000000E+00 0. -1.
         -5    1    5    5    0  502 -0.77885888454E+01  0.87123422190E+02  0.40951782521E+03  0.41878167579E+03  0.47000000000E+01 0.  1.
         13    1    6    6    0    0 -0.95975145398E+01 -0.12422341280E+02  0.92498118948E+02  0.93820727226E+02  0.00000000000E+00 0. -1.
        -14    1    6    6    0    0  0.65757896968E+02  0.22665300483E+02  0.91498550703E+02  0.11493390118E+03  0.00000000000E+00 0.  1.
</event>
<event>
12    1  0.8358445E-002  0.2610562E+03  0.7818608E-02  0.1106557E+00
         21   -1    0    0  503  502  0.00000000000E+00  0.00000000000E+00  0.18197635060E+03  0.18197635060E+03  0.00000000000E+00 0. -1.
         21   -1    0    0  501  503 -0.00000000000E+00 -0.00000000000E+00 -0.48233348151E+03  0.48233348151E+03  0.00000000000E+00 0. -1.
          6    2    1    2  501    0 -0.15863347122E+03  0.11477436586E+03 -0.30762336646E+03  0.40346313248E+03  0.17266334418E+03 0.  0.
         24    2    3    3    0    0 -0.63449450312E+02  0.13419494830E+02 -0.20770186862E+03  0.23217622857E+03  0.80992711397E+02 0.  0.
         -6    2    1    2    0  502  0.15863347122E+03 -0.11477436586E+03  0.72662355505E+01  0.26084669963E+03  0.17219311624E+03 0.  0.
        -24    2    5    5    0    0  0.78235952191E+02 -0.87384848345E+02  0.69216375122E+02  0.15561430667E+03  0.75285655471E+02 0.  0.
          5    1    3    3  501    0 -0.95184020913E+02  0.10135487103E+03 -0.99921497847E+02  0.17128690391E+03  0.47000000000E+01 0. -1.
        -13    1    4    4    0    0  0.13742101779E+02  0.19795996248E+02 -0.72000175115E+02  0.75925964237E+02  0.00000000000E+00 0.  1.
         14    1    4    4    0    0 -0.77191552091E+02 -0.63765014181E+01 -0.13570169350E+03  0.15625026433E+03  0.00000000000E+00 0. -1.
         -5    1    5    5    0  502  0.80397519033E+02 -0.27389517510E+02 -0.61950139571E+02  0.10523239296E+03  0.47000000000E+01 0.  1.
         13    1    6    6    0    0  0.21481139137E+01 -0.56768592703E+02  0.35149648287E+02  0.66804081354E+02  0.00000000000E+00 0. -1.
        -14    1    6    6    0    0  0.76087838277E+02 -0.30616255642E+02  0.34066726835E+02  0.88810225315E+02  0.00000000000E+00 0.  1.
</event>
<event>
12    1  0.8358445E-002  0.1833954E+03  0.7818608E-02  0.1164752E+00
         21   -1    0    0  503  502  0.00000000000E+00  0.00000000000E+00  0.10588130429E+04  0.10588130429E+04  0.00000000000E+00 0.  1.
         21   -1    0    0  501  503 -0.00000000000E+00 -0.00000000000E+00 -0.11108218114E+03  0.11108218114E+03  0.00000000000E+00 0.  1.
          6    2    1    2  501    0 -0.23031558732E+02  0.57815971188E+02 -0.20558926866E+02  0.18454416081E+03  0.17251300993E+03 0.  0.
         24    2    3    3    0    0  0.36741081516E+02  0.45301358404E+01  0.27908953885E+02  0.90824503136E+02  0.78100905637E+02 0.  0.
         -6    2    1    2    0  502  0.23031558732E+02 -0.57815971188E+02  0.96828978861E+03  0.98535106321E+03  0.17163468131E+03 0.  0.
        -24    2    5    5    0    0 -0.35629732831E+02  0.20622615616E+02  0.45033542630E+03  0.45819589586E+03  0.73801847334E+02 0.  0.
          5    1    3    3  501    0 -0.59772640248E+02  0.53285835348E+02 -0.48467880751E+02  0.93719657679E+02  0.47000000000E+01 0. -1.
        -13    1    4    4    0    0 -0.21978248899E+02 -0.75027409213E+01 -0.29457371530E+01  0.23409654278E+02  0.00000000000E+00 0.  1.
         14    1    4    4    0    0  0.58719330415E+02  0.12032876762E+02  0.30854691038E+02  0.67414848859E+02  0.00000000000E+00 0. -1.
         -5    1    5    5    0  502  0.58661291563E+02 -0.78438586804E+02  0.51795436231E+03  0.52715516735E+03  0.47000000000E+01 0.  1.
         11    1    6    6    0    0 -0.34106590289E+02  0.10581842579E+01  0.75567710094E+02  0.82914763848E+02  0.00000000000E+00 0. -1.
        -12    1    6    6    0    0 -0.15231425421E+01  0.19564431358E+02  0.37476771621E+03  0.37528113202E+03  0.00000000000E+00 0.  1.
</event>
<event>
12    1  0.8358445E-002  0.1805954E+03  0.7818608E-02  0.1168939E+00
         21   -1    0    0  501  502  0.00000000000E+00  0.00000000000E+00  0.26022677638E+03  0.26022677638E+03  0.00000000000E+00 0. -1.
         21   -1    0    0  502  503 -0.00000000000E+00 -0.00000000000E+00 -0.18291344920E+03  0.18291344920E+03  0.00000000000E+00 0. -1.
         -6    2    1    2    0  503 -0.43429737870E+02 -0.18153929902E+02 -0.91201861865E+02  0.19613400903E+03  0.16713785505E+03 0.  0.
        -24    2    3    3    0    0  0.35865188550E+02 -0.57580792828E+01 -0.71959207337E+02  0.11346773888E+03  0.79858205705E+02 0.  0.
          6    2    1    2  501    0  0.43429737870E+02  0.18153929902E+02  0.16851518905E+03  0.24700621654E+03  0.17435307501E+03 0.  0.
         24    2    5    5    0    0  0.36624720894E+02  0.64831512770E+02  0.16785303867E+03  0.19959700392E+03  0.78229317730E+02 0.  0.
          5    1    5    5  501    0  0.68050169755E+01 -0.46677582868E+02  0.66215037659E+00  0.47409212623E+02  0.47000000000E+01 0. -1.
        -11    1    6    6    0    0  0.55756935440E+02  0.43465913125E+02  0.77970657197E+02  0.10524991609E+03  0.00000000000E+00 0.  1.
         12    1    6    6    0    0 -0.19132214545E+02  0.21365599645E+02  0.89882381476E+02  0.94347087827E+02  0.00000000000E+00 0. -1.
         -5    1    3    3    0  503 -0.79294926419E+02 -0.12395850619E+02 -0.19242654528E+02  0.82666270157E+02  0.47000000000E+01 0.  1.
         11    1    4    4    0    0  0.14849942532E+01  0.19710824427E+01  0.17315291150E+02  0.17490273913E+02  0.00000000000E+00 0. -1.
        -12    1    4    4    0    0  0.34380194296E+02 -0.77291617256E+01 -0.89274498487E+02  0.95977464964E+02  0.00000000000E+00 0.  1.
</event>
<event>
12    1  0.8358445E-002  0.1782705E+03  0.7818608E-02  0.1169853E+00
         21   -1    0    0  501  502  0.00000000000E+00  0.00000000000E+00  0.25608347410E+03  0.25608347410E+03  0.00000000000E+00 0.  1.
         21   -1    0    0  502  503 -0.00000000000E+00 -0.00000000000E+00 -0.13730367053E+03  0.13730367053E+03  0.00000000000E+00 0.  1.
         -6    2    1    2    0  503  0.46950643843E+02  0.18814131895E+01 -0.41609745460E+01  0.17683504071E+03  0.17042715523E+03 0.  0.
        -24    2    3    3    0    0 -0.40508013017E+02  0.20716702334E+01  0.44993534369E+01  0.88822858947E+02  0.78892744623E+02 0.  0.
          6    2    1    2  501    0 -0.46950643843E+02 -0.18814131895E+01  0.12294077811E+03  0.21655210392E+03  0.17196649708E+03 0.  0.
         24    2    5    5    0    0 -0.70577632849E+02 -0.54538698634E+02  0.76675388598E+02  0.14243327644E+03  0.80327150546E+02 0.  0.
          5    1    5    5  501    0  0.23626989007E+02  0.52657285445E+02  0.46265389516E+02  0.74118827480E+02  0.47000000000E+01 0. -1.
        -11    1    6    6    0    0 -0.67578634028E+02 -0.22381226778E+01  0.41577954230E+02  0.79376364544E+02  0.00000000000E+00 0.  1.
         12    1    6    6    0    0 -0.29989988212E+01 -0.52300575956E+02  0.35097434368E+02  0.63056911901E+02  0.00000000000E+00 0. -1.
         -5    1    3    3    0  503  0.87458656859E+02 -0.19025704393E+00 -0.86603279829E+01  0.88012181760E+02  0.47000000000E+01 0.  1.
         11    1    4    4    0    0 -0.27336349499E+02  0.82730763586E+00  0.41402458043E+02  0.49619794173E+02  0.00000000000E+00 0. -1.
        -12    1    4    4    0    0 -0.13171663518E+02  0.12443625975E+01 -0.36903104606E+02  0.39203064774E+02  0.00000000000E+00 0.  1.
</event>
<event>
12    1  0.8358445E-002  0.2030599E+03  0.7818608E-02  0.1147370E+00
         21   -1    0    0  501  502  0.00000000000E+00  0.00000000000E+00  0.36740679925E+02  0.36740679925E+02  0.00000000000E+00 0.  1.
         21   -1    0    0  502  503 -0.00000000000E+00 -0.00000000000E+00 -0.13168520004E+04  0.13168520004E+04  0.00000000000E+00 0.  1.
         -6    2    1    2    0  503  0.10519643647E+03 -0.11628026288E+02 -0.37537845779E+03  0.42635222454E+03  0.17223742787E+03 0.  0.
        -24    2    3    3    0    0  0.97048461943E+01 -0.23908741555E+02 -0.27515671907E+03  0.28729846985E+03  0.78507189286E+02 0.  0.
          6    2    1    2  501    0 -0.10519643647E+03  0.11628026288E+02 -0.90473286265E+03  0.92724045574E+03  0.17329688043E+03 0.  0.
         24    2    5    5    0    0 -0.82979259114E+02  0.58713909035E+02 -0.42126632095E+03  0.44095589886E+03  0.81510189625E+02 0.  0.
          5    1    5    5  501    0 -0.22217177358E+02 -0.47085882746E+02 -0.48346654169E+03  0.48628455688E+03  0.47000000000E+01 0. -1.
        -13    1    6    6    0    0 -0.93720690695E+02  0.35699428381E+02 -0.37497593255E+03  0.38815585406E+03  0.00000000000E+00 0.  1.
         14    1    6    6    0    0  0.10741431580E+02  0.23014480653E+02 -0.46290388406E+02  0.52800044801E+02  0.00000000000E+00 0. -1.
         -5    1    3    3    0  503  0.95491590278E+02  0.12280715266E+02 -0.10022173872E+03  0.13905375469E+03  0.47000000000E+01 0.  1.
         11    1    4    4    0    0  0.10359304009E+02  0.19243136371E+02 -0.23994146066E+02  0.32455084693E+02  0.00000000000E+00 0. -1.
        -12    1    4    4    0    0 -0.65445781481E+00 -0.43151877926E+02 -0.25116257300E+03  0.25484338516E+03  0.00000000000E+00 0.  1.
</event>
<event>
12    1  0.8358445E-002  0.1832445E+03  0.7818608E-02  0.1165261E+00
         21   -1    0    0  501  502  0.00000000000E+00  0.00000000000E+00  0.23238682488E+03  0.23238682488E+03  0.00000000000E+00 0. -1.
         21   -1    0    0  502  503 -0.00000000000E+00 -0.00000000000E+00 -0.18081032430E+03  0.18081032430E+03  0.00000000000E+00 0.  1.
         -6    2    1    2    0  503  0.50616572287E+02  0.29636015500E+02 -0.69004841495E+02  0.19580660815E+03  0.17360365446E+03 0.  0.
        -24    2    3    3    0    0 -0.19914572681E+02  0.52577037964E+02 -0.72699576639E+02  0.12139777810E+03  0.79317444219E+02 0.  0.
          6    2    1    2  501    0 -0.50616572287E+02 -0.29636015500E+02  0.12058134208E+03  0.21739054103E+03  0.17110948679E+03 0.  0.
         24    2    5    5    0    0 -0.23365734053E+02 -0.12700927567E+02 -0.60027858004E+01  0.86719056695E+02  0.82321869924E+02 0.  0.
          5    1    5    5  501    0 -0.27250838234E+02 -0.16935087933E+02  0.12658412788E+03  0.13067148434E+03  0.47000000000E+01 0. -1.
        -11    1    6    6    0    0 -0.52546689358E+02 -0.19922296870E+02 -0.74487363549E+00  0.56201488519E+02  0.00000000000E+00 0.  1.
         12    1    6    6    0    0  0.29180955304E+02  0.72213693023E+01 -0.52579121649E+01  0.30517568176E+02  0.00000000000E+00 0. -1.
         -5    1    3    3    0  503  0.70531144968E+02 -0.22941022464E+02  0.36947351435E+01  0.74408830054E+02  0.47000000000E+01 0.  1.
         13    1    4    4    0    0 -0.79441677290E+01 -0.20622372151E+02 -0.24223565842E+02  0.32789833427E+02  0.00000000000E+00 0. -1.
        -14    1    4    4    0    0 -0.11970404952E+02  0.73199410116E+02 -0.48476010796E+02  0.88607944670E+02  0.00000000000E+00 0.  1.
</event>
<event>
12    1  0.8358445E-002  0.3282954E+03  0.7818608E-02  0.1072074E+00
         21   -1    0    0  501  502  0.00000000000E+00  0.00000000000E+00  0.38344368706E+03  0.38344368706E+03  0.00000000000E+00 0. -1.
         21   -1    0    0  502  503 -0.00000000000E+00 -0.00000000000E+00 -0.29902129126E+03  0.29902129126E+03  0.00000000000E+00 0.  1.
         -6    2    1    2    0  503  0.25599572910E+03 -0.10594407634E+03 -0.44625694457E+02  0.32971682639E+03  0.17310046901E+03 0.  0.
        -24    2    3    3    0    0  0.19072758563E+03 -0.89872735883E+02  0.32252748688E+02  0.22748863284E+03  0.79099416548E+02 0.  0.
          6    2    1    2  501    0 -0.25599572910E+03  0.10594407634E+03  0.12904809026E+03  0.35274815193E+03  0.17612463898E+03 0.  0.
         24    2    5    5    0    0 -0.21337502772E+03  0.52976865882E+02  0.35082553543E+02  0.23667204904E+03  0.80295843375E+02 0.  0.
          5    1    5    5  501    0 -0.42620701387E+02  0.52967210456E+02  0.93965536717E+02  0.11607610288E+03  0.47000000000E+01 0. -1.
        -13    1    6    6    0    0 -0.35648221404E+02  0.42253209539E+02  0.44458549825E+00  0.55284057936E+02  0.00000000000E+00 0.  1.
         14    1    6    6    0    0 -0.17772680631E+03  0.10723656343E+02  0.34637968045E+02  0.18138799111E+03  0.00000000000E+00 0. -1.
         -5    1    3    3    0  503  0.65268143474E+02 -0.16071340456E+02 -0.76878443145E+02  0.10222819355E+03  0.47000000000E+01 0.  1.
         11    1    4    4    0    0  0.17144844285E+03 -0.81969444236E+02  0.11348638051E+01  0.19003906509E+03  0.00000000000E+00 0. -1.
        -12    1    4    4    0    0  0.19279142781E+02 -0.79032916465E+01  0.31117884883E+02  0.37449567752E+02  0.00000000000E+00 0.  1.
</event>
<event>
12    1  0.8358445E-002  0.1733205E+03  0.7818608E-02  0.1179090E+00
         21   -1    0    0  501  502  0.00000000000E+00  0.00000000000E+00  0.14412899541E+03  0.14412899541E+03  0.00000000000E+00 0. -1.
         21   -1    0    0  502  503 -0.00000000000E+00 -0.00000000000E+00 -0.22974784538E+03  0.22974784538E+03  0.00000000000E+00 0. -1.
         -6    2    1    2    0  503  0.39174751032E+01 -0.29692009680E+02 -0.12046547090E+03  0.19708798399E+03  0.15308423075E+03 0.  0.
        -24    2    3    3    0    0 -0.21568072403E+02 -0.58470284047E+02 -0.11983043403E+03  0.15835562698E+03  0.82663267621E+02 0.  0.
          6    2    1    2  501    0 -0.39174751032E+01  0.29692009680E+02  0.34846620929E+02  0.17678885680E+03  0.17071335873E+03 0.  0.
         24    2    5    5    0    0  0.23857126734E+02 -0.28859295207E+02 -0.20396100450E+02  0.91503851810E+02  0.80962538045E+02 0.  0.
          5    1    5    5  501    0 -0.27774601837E+02  0.58551304886E+02  0.55242721379E+02  0.85285004992E+02  0.47000000000E+01 0. -1.
        -13    1    6    6    0    0  0.18172399018E+02  0.27035471458E+02 -0.11905739939E+02  0.34682840808E+02  0.00000000000E+00 0.  1.
         14    1    6    6    0    0  0.56847277158E+01 -0.55894766665E+02 -0.84903605115E+01  0.56821011002E+02  0.00000000000E+00 0. -1.
         -5    1    3    3    0  503  0.25485547506E+02  0.28778274368E+02 -0.63503686834E+00  0.38732357004E+02  0.47000000000E+01 0.  1.
         11    1    4    4    0    0  0.13086619930E+02  0.16309090105E+02 -0.20483499897E+02  0.29271484576E+02  0.00000000000E+00 0. -1.
        -12    1    4    4    0    0 -0.34654692333E+02 -0.74779374153E+02 -0.99346934131E+02  0.12908414241E+03  0.00000000000E+00 0.  1.
</event>
<event>
12    1  0.8358445E-002  0.1882997E+03  0.7818608E-02  0.1160450E+00
         21   -1    0    0  501  502  0.00000000000E+00  0.00000000000E+00  0.46284499204E+03  0.46284499204E+03  0.00000000000E+00 0. -1.
         21   -1    0    0  502  503 -0.00000000000E+00 -0.00000000000E+00 -0.15313376287E+03  0.15313376287E+03  0.00000000000E+00 0. -1.
         -6    2    1    2    0  503  0.30525417550E+02 -0.66334555857E+02 -0.64384573614E+02  0.19716561734E+03  0.17145504637E+03 0.  0.
        -24    2    3    3    0    0  0.51612233367E+02 -0.24696435638E+02 -0.98886057524E+02  0.13893479004E+03  0.79061285999E+02 0.  0.
          6    2    1    2  501    0 -0.30525417550E+02  0.66334555857E+02  0.37409580278E+03  0.41881313756E+03  0.17356468569E+03 0.  0.
         24    2    5    5    0    0 -0.70504273245E+02  0.87173617096E+02  0.23536765013E+03  0.27286737464E+03  0.80551730910E+02 0.  0.
          5    1    5    5  501    0  0.39978855694E+02 -0.20839061240E+02  0.13872815265E+03  0.14594576292E+03  0.47000000000E+01 0. -1.
        -11    1    6    6    0    0 -0.98751777771E+00 -0.11861061987E+02  0.55266845978E+01  0.13122660762E+02  0.00000000000E+00 0.  1.
         12    1    6    6    0    0 -0.69516755467E+02  0.99034679083E+02  0.22984096553E+03  0.25974471388E+03  0.00000000000E+00 0. -1.
         -5    1    3    3    0  503 -0.21086815817E+02 -0.41638120219E+02  0.34501483910E+02  0.58230827305E+02  0.47000000000E+01 0.  1.
         11    1    4    4    0    0 -0.17131823492E+02 -0.54496279527E+01 -0.48031377773E+02  0.51285583469E+02  0.00000000000E+00 0. -1.
        -12    1    4    4    0    0  0.68744056859E+02 -0.19246807685E+02 -0.50854679752E+02  0.87649206569E+02  0.00000000000E+00 0.  1.
</event>
<event>
12    1  0.8358445E-002  0.2212494E+03  0.7818608E-02  0.1133520E+00
         21   -1    0    0  503  502  0.00000000000E+00  0.00000000000E+00  0.11847992621E+03  0.11847992621E+03  0.00000000000E+00 0. -1.
         21   -1    0    0  501  503 -0.00000000000E+00 -0.00000000000E+00 -0.41605176398E+03  0.41605176398E+03  0.00000000000E+00 0.  1.
          6    2    1    2  501    0  0.13829576696E+03  0.33068264581E+01 -0.18805890850E+03  0.29037467607E+03  0.17266917842E+03 0.  0.
         24    2    3    3    0    0  0.10893460781E+03 -0.20927097904E+02 -0.20562753838E+03  0.24818335572E+03  0.83711416862E+02 0.  0.
         -6    2    1    2    0  502 -0.13829576696E+03 -0.33068264581E+01 -0.10951292927E+03  0.24415701412E+03  0.16876881111E+03 0.  0.
        -24    2    5    5    0    0 -0.16603703186E+02  0.34764207753E+02 -0.36376654596E+02  0.97087755925E+02  0.81354399087E+02 0.  0.
          5    1    3    3  501    0  0.29361159156E+02  0.24233924362E+02  0.17568629878E+02  0.42191320348E+02  0.47000000000E+01 0. -1.
        -11    1    4    4    0    0 -0.11085624563E+01  0.11021983733E+02 -0.68917377855E+02  0.69801991422E+02  0.00000000000E+00 0.  1.
         12    1    4    4    0    0  0.11004317026E+03 -0.31949081637E+02 -0.13671016052E+03  0.17838136430E+03  0.00000000000E+00 0. -1.
         -5    1    5    5    0  502 -0.12169206378E+03 -0.38071034211E+02 -0.73136274676E+02  0.14706925819E+03  0.47000000000E+01 0.  1.
         13    1    6    6    0    0 -0.10663439855E+02  0.26274309027E+02  0.23187329542E+02  0.36629230346E+02  0.00000000000E+00 0. -1.
        -14    1    6    6    0    0 -0.59402633306E+01  0.84898987261E+01 -0.59563984139E+02  0.60458525580E+02  0.00000000000E+00 0.  1.
</event>
<event>
12    1  0.8358445E-002  0.1805609E+03  0.7818608E-02  0.1167842E+00
         21   -1    0    0  501  502  0.00000000000E+00  0.00000000000E+00  0.38183458334E+03  0.38183458334E+03  0.00000000000E+00 0.  1.
         21   -1    0    0  502  503 -0.00000000000E+00 -0.00000000000E+00 -0.19330691714E+03  0.19330691714E+03  0.00000000000E+00 0.  1.
         -6    2    1    2    0  503  0.70397025274E+01  0.52702930597E+02 -0.12145151673E+03  0.21760675537E+03  0.17255455010E+03 0.  0.
        -24    2    3    3    0    0  0.65304803926E+02  0.42435571118E+02 -0.11015577353E+03  0.15719215013E+03  0.80681983782E+02 0.  0.
          6    2    1    2  501    0 -0.70397025274E+01 -0.52702930597E+02  0.30997918294E+03  0.35753474511E+03  0.17004953339E+03 0.  0.
         24    2    5    5    0    0 -0.43343101248E+02 -0.45682626308E+02  0.30266797046E+03  0.31955099518E+03  0.80866627282E+02 0.  0.
          5    1    5    5  501    0  0.36303398721E+02 -0.70203042893E+01  0.73112124780E+01  0.37983749932E+02  0.47000000000E+01 0. -1.
        -13    1    6    6    0    0 -0.53560769324E+02 -0.62585667966E+02  0.25416034955E+03  0.26717635586E+03  0.00000000000E+00 0.  1.
         14    1    6    6    0    0  0.10217668075E+02  0.16903041659E+02  0.48507620904E+02  0.52374639321E+02  0.00000000000E+00 0. -1.
         -5    1    3    3    0  503 -0.58265101399E+02  0.10267359479E+02 -0.11295743195E+02  0.60414605238E+02  0.47000000000E+01 0.  1.
         13    1    4    4    0    0 -0.43678421921E+01  0.18087213900E+02  0.60186689400E+01  0.19556321942E+02  0.00000000000E+00 0. -1.
        -14    1    4    4    0    0  0.69672646118E+02  0.24348357218E+02 -0.11617444247E+03  0.13763582819E+03  0.00000000000E+00 0.  1.
</event>
<event>
12    1  0.8358445E-002  0.1922574E+03  0.7818608E-02  0.1156527E+00
         21   -1    0    0  501  502  0.00000000000E+00  0.00000000000E+00  0.22431737924E+03  0.22431737924E+03  0.00000000000E+00 0.  1.
         21   -1    0    0  502  503 -0.00000000000E+00 -0.00000000000E+00 -0.42588589718E+03  0.42588589718E+03  0.00000000000E+00 0.  1.
         -6    2    1    2    0  503 -0.12391975798E+02  0.84034101092E+02 -0.35546127357E+03  0.40393942908E+03  0.17204375647E+03 0.  0.
        -24    2    3    3    0    0  0.19552351154E+02  0.11623955270E+03 -0.24473942169E+03  0.28419365829E+03  0.83514806070E+02 0.  0.
          6    2    1    2  501    0  0.12391975798E+02 -0.84034101092E+02  0.15389275563E+03  0.24626384734E+03  0.17247495777E+03 0.  0.
         24    2    5    5    0    0 -0.17641933755E+01  0.16094639336E+02  0.30911732924E+02  0.86976108539E+02  0.79669055666E+02 0.  0.
          5    1    5    5  501    0  0.14156169173E+02 -0.10012874043E+03  0.12298102271E+03  0.15928773880E+03  0.47000000000E+01 0. -1.
        -13    1    6    6    0    0  0.48474314929E+01  0.16831621962E+02  0.57219422377E+02  0.59840315734E+02  0.00000000000E+00 0.  1.
         14    1    6    6    0    0 -0.66116248684E+01 -0.73698262577E+00 -0.26307689453E+02  0.27135792805E+02  0.00000000000E+00 0. -1.
         -5    1    3    3    0  503 -0.31944326951E+02 -0.32205451608E+02 -0.11072185188E+03  0.11974577079E+03  0.47000000000E+01 0.  1.
         11    1    4    4    0    0  0.65640862180E+01  0.18613486361E+02  0.68175783295E+00  0.19748769484E+02  0.00000000000E+00 0. -1.
        -12    1    4    4    0    0  0.12988264936E+02  0.97626066339E+02 -0.24542117952E+03  0.26444488880E+03  0.00000000000E+00 0.  1.
</event>
<event>
12    1  0.8358445E-002  0.1955226E+03  0.7818608E-02  0.1153847E+00
         21   -1    0    0  501  502  0.00000000000E+00  0.00000000000E+00  0.19565299359E+03  0.19565299359E+03  0.00000000000E+00 0.  1.
         21   -1    0    0  502  503 -0.00000000000E+00 -0.00000000000E+00 -0.20512861475E+03  0.20512861475E+03  0.00000000000E+00 0.  1.
         -6    2    1    2    0  503  0.54094584602E+02  0.74439529480E+02 -0.51138598959E+02  0.20209959305E+03  0.17251556908E+03 0.  0.
        -24    2    3    3    0    0  0.94797854897E+02  0.82007781703E+02 -0.58644038473E+02  0.15976218315E+03  0.79830585394E+02 0.  0.
          6    2    1    2  501    0 -0.54094584602E+02 -0.74439529480E+02  0.41662977797E+02  0.19868201529E+03  0.17108849128E+03 0.  0.
         24    2    5    5    0    0  0.16249552155E+02 -0.85230777191E+02  0.53161625411E+02  0.12643897064E+03  0.75048794491E+02 0.  0.
          5    1    5    5  501    0 -0.70344136757E+02  0.10791247711E+02 -0.11498647614E+02  0.72243044650E+02  0.47000000000E+01 0. -1.
        -11    1    6    6    0    0 -0.40351324995E+00 -0.45871480494E+02 -0.12995323020E+02  0.47678443410E+02  0.00000000000E+00 0.  1.
         12    1    6    6    0    0  0.16653065405E+02 -0.39359296697E+02  0.66156948432E+02  0.78760527231E+02  0.00000000000E+00 0. -1.
         -5    1    3    3    0  503 -0.40703270294E+02 -0.75682522228E+01  0.75054395137E+01  0.42337409896E+02  0.47000000000E+01 0.  1.
         11    1    4    4    0    0  0.10273029340E+03  0.54832181636E+02 -0.31712741248E+02  0.12068877033E+03  0.00000000000E+00 0. -1.
        -12    1    4    4    0    0 -0.79324385059E+01  0.27175600066E+02 -0.26931297224E+02  0.39073412825E+02  0.00000000000E+00 0.  1.
</event>
<event>
12    1  0.8358445E-002  0.2965121E+03  0.7818608E-02  0.1087129E+00
         21   -1    0    0  503  502  0.00000000000E+00  0.00000000000E+00  0.15973949690E+03  0.15973949690E+03  0.00000000000E+00 0.  1.
         21   -1    0    0  501  503 -0.00000000000E+00 -0.00000000000E+00 -0.56680784726E+03  0.56680784726E+03  0.00000000000E+00 0. -1.
          6    2    1    2  501    0  0.23840642905E+03 -0.33861799993E+02 -0.26923029470E+03  0.40050518210E+03  0.17301792507E+03 0.  0.
         24    2    3    3    0    0  0.95222358006E+02 -0.42281285465E+02 -0.19969184922E+03  0.24103652895E+03  0.85829884550E+02 0.  0.
         -6    2    1    2    0  502 -0.23840642905E+03  0.33861799993E+02 -0.13783805566E+03  0.32604216205E+03  0.17123058995E+03 0.  0.
        -24    2    5    5    0    0 -0.25856711659E+03  0.40301844856E+02 -0.13357859134E+03  0.30394780675E+03  0.77844952867E+02 0.  0.
          5    1    3    3  501    0  0.14318407105E+03  0.84194854726E+01 -0.69538445480E+02  0.15946865315E+03  0.47000000000E+01 0. -1.
        -13    1    4    4    0    0  0.63248025337E+02 -0.25753210436E+02 -0.43998376346E+02  0.81236676925E+02  0.00000000000E+00 0.  1.
         14    1    4    4    0    0  0.31974332669E+02 -0.16528075029E+02 -0.15569347287E+03  0.15979985203E+03  0.00000000000E+00 0. -1.
         -5    1    5    5    0  502  0.20160687534E+02 -0.64400448637E+01 -0.42594643219E+01  0.22094355297E+02  0.47000000000E+01 0.  1.
         11    1    6    6    0    0 -0.15138649676E+03  0.14506064756E+02 -0.11825629191E+03  0.19264695143E+03  0.00000000000E+00 0. -1.
        -12    1    6    6    0    0 -0.10718061982E+03  0.25795780101E+02 -0.15322299427E+02  0.11130085533E+03  0.00000000000E+00 0.  1.
</event>
<event>
12    1  0.8358445E-002  0.2435528E+03  0.7818608E-02  0.1117811E+00
         21   -1    0    0  501  502  0.00000000000E+00  0.00000000000E+00  0.28512549938E+03  0.28512549938E+03  0.00000000000E+00 0. -1.
         21   -1    0    0  502  503 -0.00000000000E+00 -0.00000000000E+00 -0.21925485117E+03  0.21925485117E+03  0.00000000000E+00 0. -1.
         -6    2    1    2    0  503  0.14946183541E+03  0.79605116681E+02 -0.28550811812E+02  0.24522051640E+03  0.17504895875E+03 0.  0.
        -24    2    3    3    0    0  0.76354218579E+02  0.11637379077E+03 -0.19279148416E+02  0.16272983344E+03  0.82076106477E+02 0.  0.
          6    2    1    2  501    0 -0.14946183541E+03 -0.79605116681E+02  0.94421460026E+02  0.25915983415E+03  0.17196683597E+03 0.  0.
         24    2    5    5    0    0  0.72412764907E+01 -0.56727775869E+02  0.30171148932E+02  0.88193666503E+02  0.59977895455E+02 0.  0.
          5    1    5    5  501    0 -0.15670311190E+03 -0.22877340812E+02  0.64250311094E+02  0.17096616764E+03  0.47000000000E+01 0. -1.
        -13    1    6    6    0    0 -0.13135820516E+02 -0.98035055545E+00 -0.99867526374E+01  0.16530157170E+02  0.00000000000E+00 0.  1.
         14    1    6    6    0    0  0.20377097007E+02 -0.55747425313E+02  0.40157901569E+02  0.71663509333E+02  0.00000000000E+00 0. -1.
         -5    1    3    3    0  503  0.73107616833E+02 -0.36768674088E+02 -0.92716633963E+01  0.82490682961E+02  0.47000000000E+01 0.  1.
         11    1    4    4    0    0  0.36438189893E+02  0.12698427006E+02  0.21757707531E+02  0.44298866443E+02  0.00000000000E+00 0. -1.
        -12    1    4    4    0    0  0.39916028686E+02  0.10367536376E+03 -0.41036855947E+02  0.11843096700E+03  0.00000000000E+00 0.  1.
</event>
<event>
12    1  0.8358445E-002  0.2200971E+03  0.7818608E-02  0.1134394E+00
         21   -1    0    0  503  502  0.00000000000E+00  0.00000000000E+00  0.11889165744E+03  0.11889165744E+03  0.00000000000E+00 0.  1.
         21   -1    0    0  501  503 -0.00000000000E+00 -0.00000000000E+00 -0.76871238454E+03  0.76871238454E+03  0.00000000000E+00 0. -1.
          6    2    1    2  501    0 -0.11577262353E+03  0.64520159063E+02 -0.63034344874E+03  0.66664685598E+03  0.17181098897E+03 0.  0.
         24    2    3    3    0    0  0.24681943540E+01  0.53410666901E+02 -0.32230381281E+03  0.33647293343E+03  0.80470465721E+02 0.  0.
         -6    2    1    2    0  502  0.11577262353E+03 -0.64520159063E+02 -0.19477278362E+02  0.22095718600E+03  0.17571727971E+03 0.  0.
        -24    2    5    5    0    0  0.85059686697E+02  0.23133830510E+02 -0.38934010577E+02  0.12594581402E+03  0.81093566171E+02 0.  0.
          5    1    3    3  501    0 -0.11824081788E+03  0.11109492162E+02 -0.30803963593E+03  0.33017392255E+03  0.47000000000E+01 0. -1.
        -13    1    4    4    0    0 -0.53565970250E+01 -0.14160639946E+02 -0.15688839379E+03  0.15761721024E+03  0.00000000000E+00 0.  1.
         14    1    4    4    0    0  0.78247913789E+01  0.67571306846E+02 -0.16541541902E+03  0.17885572319E+03  0.00000000000E+00 0. -1.
         -5    1    5    5    0  502  0.30712936834E+02 -0.87653989572E+02  0.19456732215E+02  0.95011371979E+02  0.47000000000E+01 0.  1.
         11    1    6    6    0    0  0.81950419843E+01  0.39125682783E+02 -0.45390067722E+01  0.40231583972E+02  0.00000000000E+00 0. -1.
        -12    1    6    6    0    0  0.76864644712E+02 -0.15991852274E+02 -0.34395003805E+02  0.85714230047E+02  0.00000000000E+00 0.  1.
</event>
<event>
12    1  0.8358445E-002  0.2378944E+03  0.7818608E-02  0.1121315E+00
         21   -1    0    0  501  502  0.00000000000E+00  0.00000000000E+00  0.34688236449E+02  0.34688236449E+02  0.00000000000E+00 0. -1.
         21   -1    0    0  502  503 -0.00000000000E+00 -0.00000000000E+00 -0.18673131882E+04  0.18673131882E+04  0.00000000000E+00 0. -1.
         -6    2    1    2    0  503 -0.52551050816E+02 -0.15517175545E+03 -0.12563860713E+04  0.12785874274E+04  0.17158077556E+03 0.  0.
        -24    2    3    3    0    0 -0.18784784443E+02 -0.73659821235E+02 -0.10223117924E+04  0.10283930744E+04  0.81806340459E+02 0.  0.
          6    2    1    2  501    0  0.52551050816E+02  0.15517175545E+03 -0.57623888048E+03  0.62341399734E+03  0.17249312473E+03 0.  0.
         24    2    5    5    0    0  0.25345548155E+02  0.39427138346E+02 -0.39403390047E+03  0.40579575247E+03  0.84915145585E+02 0.  0.
          5    1    5    5  501    0  0.27205502661E+02  0.11574461711E+03 -0.18220498000E+03  0.21761824488E+03  0.47000000000E+01 0. -1.
        -13    1    6    6    0    0  0.47847600816E+02 -0.22103677978E+01 -0.15962670412E+03  0.16665822301E+03  0.00000000000E+00 0.  1.
         14    1    6    6    0    0 -0.22502052660E+02  0.41637506144E+02 -0.23440719635E+03  0.23913752946E+03  0.00000000000E+00 0. -1.
         -5    1    3    3    0  503 -0.33766266373E+02 -0.81511934217E+02 -0.23407427895E+03  0.25019435291E+03  0.47000000000E+01 0.  1.
         13    1    4    4    0    0 -0.39600628172E+02 -0.56682955741E+02 -0.43446876904E+03  0.43993667555E+03  0.00000000000E+00 0. -1.
        -14    1    4    4    0    0  0.20815843730E+02 -0.16976865494E+02 -0.58784302333E+03  0.58845639889E+03  0.00000000000E+00 0.  1.
</event>
<event>
12    1  0.8358445E-002  0.2197104E+03  0.7818608E-02  0.1134127E+00
         21   -1    0    0  501  502  0.00000000000E+00  0.00000000000E+00  0.19846764671E+03  0.19846764671E+03  0.00000000000E+00 0.  1.
         21   -1    0    0  502  503 -0.00000000000E+00 -0.00000000000E+00 -0.48663547521E+03  0.48663547521E+03  0.00000000000E+00 0. -1.
         -6    2    1    2    0  503 -0.45876703731E+02 -0.12862454653E+03 -0.38640707109E+03  0.44442989670E+03  0.17192603811E+03 0.  0.
        -24    2    3    3    0    0 -0.34217324633E+02 -0.16208195701E+03 -0.33016075715E+03  0.37778848864E+03  0.79225188488E+02 0.  0.
          6    2    1    2  501    0  0.45876703731E+02  0.12862454653E+03  0.98239242593E+02  0.24067322522E+03  0.17211538756E+03 0.  0.
         24    2    5    5    0    0  0.90646221490E+02  0.12648957626E+03  0.76726076951E+02  0.19073552288E+03  0.79226248380E+02 0.  0.
          5    1    5    5  501    0 -0.44769517758E+02  0.21349702669E+01  0.21513165643E+02  0.49937702333E+02  0.47000000000E+01 0. -1.
        -13    1    6    6    0    0 -0.77081709082E+01  0.46851975577E+02  0.14079542511E+02  0.49525317077E+02  0.00000000000E+00 0.  1.
         14    1    6    6    0    0  0.98354392398E+02  0.79637600683E+02  0.62646534440E+02  0.14121020581E+03  0.00000000000E+00 0. -1.
         -5    1    3    3    0  503 -0.11659379098E+02  0.33457410482E+02 -0.56246313939E+02  0.66641408065E+02  0.47000000000E+01 0.  1.
         11    1    4    4    0    0 -0.39785309565E+02 -0.57402394787E+02 -0.19236429087E+03  0.20465074197E+03  0.00000000000E+00 0. -1.
        -12    1    4    4    0    0  0.55679849321E+01 -0.10467956222E+03 -0.13779646628E+03  0.17313774667E+03  0.00000000000E+00 0.  1.
</event>
<event>
12    1  0.8358445E-002  0.2901193E+03  0.7818608E-02  0.1090549E+00
         21   -1    0    0  503  502  0.00000000000E+00  0.00000000000E+00  0.87334407844E+02  0.87334407844E+02  0.00000000000E+00 0. -1.
         21   -1    0    0  501  503 -0.00000000000E+00 -0.00000000000E+00 -0.12173674048E+04  0.12173674048E+04  0.00000000000E+00 0.  1.
          6    2    1    2  501    0 -0.54504431876E+02  0.22714018911E+03 -0.86510158553E+03  0.91181780444E+03  0.16866403471E+03 0.  0.
         24    2    3    3    0    0 -0.48842225242E+01  0.13175460683E+03 -0.68650245578E+03  0.70329846810E+03  0.77200915670E+02 0.  0.
         -6    2    1    2    0  502  0.54504431876E+02 -0.22714018911E+03 -0.26493141141E+03  0.39288400819E+03  0.17206333872E+03 0.  0.
        -24    2    5    5    0    0  0.14989808600E+02 -0.19151536909E+03 -0.12562775177E+03  0.24369241043E+03  0.81858584919E+02 0.  0.
          5    1    3    3  501    0 -0.49620209352E+02  0.95385582279E+02 -0.17859912975E+03  0.20851933634E+03  0.47000000000E+01 0. -1.
        -13    1    4    4    0    0  0.44059384697E+01  0.13442738107E+03 -0.54075399093E+03  0.55722976570E+03  0.00000000000E+00 0.  1.
         14    1    4    4    0    0 -0.92901609938E+01 -0.26727742320E+01 -0.14574846485E+03  0.14606870240E+03  0.00000000000E+00 0. -1.
         -5    1    5    5    0  502  0.39514623276E+02 -0.35624820026E+02 -0.13930365964E+03  0.14919159776E+03  0.47000000000E+01 0.  1.
         11    1    6    6    0    0  0.41431390343E+02 -0.56871236565E+02 -0.30279848122E+02  0.76601350226E+02  0.00000000000E+00 0. -1.
        -12    1    6    6    0    0 -0.26441581744E+02 -0.13464413252E+03 -0.95347903652E+02  0.16709106020E+03  0.00000000000E+00 0.  1.
</event>
<event>
12    1  0.8358445E-002  0.1883123E+03  0.7818608E-02  0.1160903E+00
         21   -1    0    0  501  502  0.00000000000E+00  0.00000000000E+00  0.21733018950E+03  0.21733018950E+03  0.00000000000E+00 0. -1.
         21   -1    0    0  502  503 -0.00000000000E+00 -0.00000000000E+00 -0.61652697982E+03  0.61652697982E+03  0.00000000000E+00 0. -1.
         -6    2    1    2    0  503  0.38620900606E+02 -0.59435823750E+02 -0.55900400958E+03  0.58987032861E+03  0.17446297814E+03 0.  0.
        -24    2    3    3    0    0  0.59652894524E+02 -0.28083031923E+02 -0.17008139403E+03  0.19909132046E+03  0.79765586448E+02 0.  0.
          6    2    1    2  501    0 -0.38620900606E+02  0.59435823750E+02  0.15980721925E+03  0.24398684071E+03  0.17019706228E+03 0.  0.
         24    2    5    5    0    0 -0.87829228640E+02  0.44159160276E+02  0.81585198730E+02  0.15020192461E+03  0.78996637039E+02 0.  0.
          5    1    5    5  501    0  0.49208328034E+02  0.15276663474E+02  0.78222020518E+02  0.93784916105E+02  0.47000000000E+01 0. -1.
        -13    1    6    6    0    0 -0.89119938722E+02  0.48050762269E+02  0.93367262148E+02  0.13772684878E+03  0.00000000000E+00 0.  1.
         14    1    6    6    0    0  0.12907100820E+01 -0.38916019934E+01 -0.11782063418E+02  0.12475075830E+02  0.00000000000E+00 0. -1.
         -5    1    3    3    0  503 -0.21031993918E+02 -0.31352791827E+02 -0.38892261554E+03  0.39077900814E+03  0.47000000000E+01 0.  1.
         11    1    4    4    0    0  0.21698551309E+02  0.12267887934E+02 -0.12559224851E+03  0.12804195051E+03  0.00000000000E+00 0. -1.
        -12    1    4    4    0    0  0.37954343215E+02 -0.40350919858E+02 -0.44489145519E+02  0.71049369956E+02  0.00000000000E+00 0.  1.
</event>
<event>
12    1  0.8358445E-002  0.2336887E+03  0.7818608E-02  0.1124172E+00
         21   -1    0    0  501  502  0.00000000000E+00  0.00000000000E+00  0.75388019045E+03  0.75388019045E+03  0.00000000000E+00 0.  1.
         21   -1    0    0  502  503 -0.00000000000E+00 -0.00000000000E+00 -0.92994553429E+02  0.92994553429E+02  0.00000000000E+00 0.  1.
         -6    2    1    2    0  503 -0.14195190907E+03 -0.70441190145E+02  0.13080787663E+03  0.26780799730E+03  0.17175015888E+03 0.  0.
        -24    2    3    3    0    0 -0.16201963104E+03 -0.65666533521E+02  0.14542144321E+03  0.24209502122E+03  0.83067133613E+02 0.  0.
          6    2    1    2  501    0  0.14195190907E+03  0.70441190145E+02  0.53007776040E+03  0.57906674658E+03  0.17094899582E+03 0.  0.
         24    2    5    5    0    0  0.68475771972E+01 -0.16272276455E+01  0.17409406763E+03  0.19151866331E+03  0.79505451559E+02 0.  0.
          5    1    5    5  501    0  0.13510433187E+03  0.72068417790E+02  0.35598369276E+03  0.38754808327E+03  0.47000000000E+01 0. -1.
        -13    1    6    6    0    0  0.41492427013E+02 -0.75946368539E+01  0.11806357608E+03  0.12537267647E+03  0.00000000000E+00 0.  1.
         14    1    6    6    0    0 -0.34644849815E+02  0.59674092084E+01  0.56030491554E+02  0.66145986841E+02  0.00000000000E+00 0. -1.
         -5    1    3    3    0  503  0.20067721974E+02 -0.47746566242E+01 -0.14613566578E+02  0.25712976087E+02  0.47000000000E+01 0.  1.
         13    1    4    4    0    0 -0.44151439290E+01 -0.22248004113E+02  0.44580541838E+02  0.50018915357E+02  0.00000000000E+00 0. -1.
        -14    1    4    4    0    0 -0.15760448711E+03 -0.43418529407E+02  0.10084090137E+03  0.19207610586E+03  0.00000000000E+00 0.  1.
</event>
<event>
12    1  0.8358445E-002  0.1766898E+03  0.7818608E-02  0.1171341E+00
         21   -1    0    0  503  502  0.00000000000E+00  0.00000000000E+00  0.15837044085E+04  0.15837044085E+04  0.00000000000E+00 0. -1.
         21   -1    0    0  501  503 -0.00000000000E+00 -0.00000000000E+00 -0.24565565383E+02  0.24565565383E+02  0.00000000000E+00 0. -1.
          6    2    1    2  501    0  0.22209234982E+02 -0.30336911512E+02  0.41523337434E+03  0.45079901435E+03  0.17142758777E+03 0.  0.
         24    2    3    3    0    0  0.53254480909E+01 -0.32616934350E+02  0.12691882387E+03  0.16194328777E+03  0.95000083138E+02 0.  0.
         -6    2    1    2    0  502 -0.22209234982E+02  0.30336911512E+02  0.11439054688E+04  0.11574709595E+04  0.17264333860E+03 0.  0.
        -24    2    5    5    0    0 -0.70609653658E+02 -0.14839640263E+02  0.58354435402E+03  0.59319249079E+03  0.78405228870E+02 0.  0.
          5    1    3    3  501    0  0.16883786892E+02  0.22800228377E+01  0.28831455047E+03  0.28885572658E+03  0.47000000000E+01 0. -1.
        -13    1    4    4    0    0 -0.27714745851E+02  0.22890066419E+02  0.47658486272E+02  0.59694167153E+02  0.00000000000E+00 0.  1.
         14    1    4    4    0    0  0.33040193942E+02 -0.55507000769E+02  0.79260337601E+02  0.10224912062E+03  0.00000000000E+00 0. -1.
         -5    1    5    5    0  502  0.48400418675E+02  0.45176551775E+02  0.56036111476E+03  0.56427846875E+03  0.47000000000E+01 0.  1.
         11    1    6    6    0    0 -0.56930445000E+02  0.26513731918E+02  0.32681797534E+03  0.33279729950E+03  0.00000000000E+00 0. -1.
        -12    1    6    6    0    0 -0.13679208658E+02 -0.41353372181E+02  0.25672637868E+03  0.26039519129E+03  0.00000000000E+00 0.  1.
</event>
<event>
12    1  0.8358445E-002  0.1856613E+03  0.7818608E-02  0.1162616E+00
         21   -1    0    0  501  502  0.00000000000E+00  0.00000000000E+00  0.21813742024E+03  0.21813742024E+03  0.00000000000E+00 0.  1.
         21   -1    0    0  502  503 -0.00000000000E+00 -0.00000000000E+00 -0.17322292863E+03  0.17322292863E+03  0.00000000000E+00 0.  1.
         -6    2    1    2    0  503 -0.68763266516E+02 -0.13553655476E+01  0.81723876758E+02  0.20285193032E+03  0.17245257250E+03 0.  0.
        -24    2    3    3    0    0 -0.59782481372E+02  0.32412224626E+02  0.11382186132E+03  0.15517305385E+03  0.80614906455E+02 0.  0.
          6    2    1    2  501    0  0.68763266516E+02  0.13553655476E+01 -0.36809385144E+02  0.18850841855E+03  0.17161080733E+03 0.  0.
         24    2    5    5    0    0  0.80977827332E+02 -0.18114135457E+01  0.30923849578E+02  0.11944971112E+03  0.82166046980E+02 0.  0.
          5    1    5    5  501    0 -0.12214560817E+02  0.31667790932E+01 -0.67733234722E+02  0.69058707428E+02  0.47000000000E+01 0. -1.
        -11    1    6    6    0    0  0.41851594350E+02  0.26227237307E+02 -0.16306574126E+02  0.52012770414E+02  0.00000000000E+00 0.  1.
         12    1    6    6    0    0  0.39126232982E+02 -0.28038650853E+02  0.47230423704E+02  0.67436940710E+02  0.00000000000E+00 0. -1.
         -5    1    3    3    0  503 -0.89807851437E+01 -0.33767590173E+02 -0.32097984563E+02  0.47678876465E+02  0.47000000000E+01 0.  1.
         11    1    4    4    0    0  0.16924758177E+02  0.21901449032E+02  0.24481763756E+02  0.36952370231E+02  0.00000000000E+00 0. -1.
        -12    1    4    4    0    0 -0.76707239549E+02  0.10510775594E+02  0.89340097565E+02  0.11822068362E+03  0.00000000000E+00 0.  1.
</event>
<event>
12    1  0.8358445E-002  0.1769237E+03  0.7818608E-02  0.1171051E+00
         21   -1    0    0  503  502  0.00000000000E+00  0.00000000000E+00  0.14600516381E+04  0.14600516381E+04  0.00000000000E+00 0.  1.
         21   -1    0    0  501  503 -0.00000000000E+00 -0.00000000000E+00 -0.54450024860E+02  0.54450024860E+02  0.00000000000E+00 0.  1.
          6    2    1    2  501    0 -0.40180292495E+02 -0.13767096951E+02  0.11289820808E+03  0.20987618562E+03  0.17174987348E+03 0.  0.
         24    2    3    3    0    0 -0.53940232595E+01 -0.70077543522E+02  0.64293193240E+02  0.12762359668E+03  0.84936506512E+02 0.  0.
         -6    2    1    2    0  502  0.40180292495E+02  0.13767096951E+02  0.12927034051E+04  0.13046254773E+04  0.17076754245E+03 0.  0.
        -24    2    5    5    0    0 -0.22356519491E+02 -0.17030721888E+00  0.10585721938E+04  0.10618403496E+04  0.80187254104E+02 0.  0.
          5    1    3    3  501    0 -0.34786269235E+02  0.56310446571E+02  0.48605014842E+02  0.82252588945E+02  0.47000000000E+01 0. -1.
        -13    1    4    4    0    0 -0.29600868044E+02 -0.52700938637E+02  0.42515280612E+01  0.60594354630E+02  0.00000000000E+00 0.  1.
         14    1    4    4    0    0  0.24206844785E+02 -0.17376604885E+02  0.60041665179E+02  0.67029242046E+02  0.00000000000E+00 0. -1.
         -5    1    5    5    0  502  0.62536811985E+02  0.13937404170E+02  0.23413121135E+03  0.24278512767E+03  0.47000000000E+01 0.  1.
         13    1    6    6    0    0 -0.48928174055E+02 -0.10070657396E+02  0.48453622607E+03  0.48710444334E+03  0.00000000000E+00 0. -1.
        -14    1    6    6    0    0  0.26571654564E+02  0.99003501772E+01  0.57403596771E+03  0.57473590629E+03  0.00000000000E+00 0.  1.
</event>
<event>
12    1  0.8358445E-002  0.1935782E+03  0.7818608E-02  0.1155573E+00
         21   -1    0    0  503  502  0.00000000000E+00  0.00000000000E+00  0.24822194417E+03  0.24822194417E+03  0.00000000000E+00 0. -1.
         21   -1    0    0  501  503 -0.00000000000E+00 -0.00000000000E+00 -0.15026881853E+03  0.15026881853E+03  0.00000000000E+00 0.  1.
          6    2    1    2  501    0 -0.65436493397E+02 -0.60263516759E+02  0.58601960975E+02  0.20095330767E+03  0.17039488229E+03 0.  0.
         24    2    3    3    0    0 -0.94148311914E+02 -0.35143876398E+02 -0.31675647479E+01  0.12820078769E+03  0.79538744109E+02 0.  0.
         -6    2    1    2    0  502  0.65436493397E+02  0.60263516759E+02  0.39351164667E+02  0.19753745503E+03  0.17192703644E+03 0.  0.
        -24    2    5    5    0    0  0.10258689217E+03  0.77115538139E+02  0.42796962025E+02  0.15632936999E+03  0.78335274897E+02 0.  0.
          5    1    3    3  501    0  0.28711818516E+02 -0.25119640361E+02  0.61769525723E+02  0.72752519973E+02  0.47000000000E+01 0. -1.
        -11    1    4    4    0    0 -0.42613144282E+02 -0.24751258389E+02 -0.40446111911E+02  0.63752590741E+02  0.00000000000E+00 0.  1.
         12    1    4    4    0    0 -0.51535167632E+02 -0.10392618009E+02  0.37278547163E+02  0.64448196953E+02  0.00000000000E+00 0. -1.
         -5    1    5    5    0  502 -0.37150398777E+02 -0.16852021381E+02 -0.34457973580E+01  0.41208085049E+02  0.47000000000E+01 0.  1.
         13    1    6    6    0    0  0.58055124222E+02 -0.14001442824E+00  0.32586575715E+02  0.66575535817E+02  0.00000000000E+00 0. -1.
        -14    1    6    6    0    0  0.44531767953E+02  0.77255552567E+02  0.10210386310E+02  0.89753834169E+02  0.00000000000E+00 0.  1.
</event>
<event>
12    1  0.8358445E-002  0.1763098E+03  0.7818608E-02  0.1174155E+00
         21   -1    0    0  503  502  0.00000000000E+00  0.00000000000E+00  0.12711304583E+03  0.12711304583E+03  0.00000000000E+00 0. -1.
         21   -1    0    0  501  503 -0.00000000000E+00 -0.00000000000E+00 -0.23214431737E+03  0.23214431737E+03  0.00000000000E+00 0. -1.
          6    2    1    2  501    0 -0.14507411829E+02  0.77679462289E+00 -0.68048148077E+02  0.17911049237E+03  0.16504226614E+03 0.  0.
         24    2    3    3    0    0 -0.19333745020E+02  0.32779705486E+02  0.14976919579E+02  0.89876352857E+02  0.80032167874E+02 0.  0.
         -6    2    1    2    0  502  0.14507411829E+02 -0.77679462289E+00 -0.36983123471E+02  0.18014687083E+03  0.17571020243E+03 0.  0.
        -24    2    5    5    0    0  0.12764900514E+02  0.68733958318E+02 -0.27244437130E+02  0.10977846079E+03  0.80135830857E+02 0.  0.
          5    1    3    3  501    0  0.48263331908E+01 -0.32002910863E+02 -0.83025067656E+02  0.89234139516E+02  0.47000000000E+01 0. -1.
        -11    1    4    4    0    0  0.21777445753E+02  0.36802972745E+02 -0.66050580792E+01  0.43270575899E+02  0.00000000000E+00 0.  1.
         12    1    4    4    0    0 -0.41111190773E+02 -0.40232672591E+01  0.21581977659E+02  0.46605776958E+02  0.00000000000E+00 0. -1.
         -5    1    5    5    0  502  0.17425113154E+01 -0.69510752941E+02 -0.97386863419E+01  0.70368410041E+02  0.47000000000E+01 0.  1.
         11    1    6    6    0    0  0.27099989553E+02  0.57015485590E+02 -0.49936476502E+02  0.80491159243E+02  0.00000000000E+00 0. -1.
        -12    1    6    6    0    0 -0.14335089039E+02  0.11718472728E+02  0.22692039373E+02  0.29287301544E+02  0.00000000000E+00 0.  1.
</event>
<event>
12    1  0.8358445E-002  0.2088652E+03  0.7818608E-02  0.1142607E+00
         21   -1    0    0  503  502  0.00000000000E+00  0.00000000000E+00  0.17404537030E+03  0.17404537030E+03  0.00000000000E+00 0. -1.
         21   -1    0    0  501  503 -0.00000000000E+00 -0.00000000000E+00 -0.11795189338E+04  0.11795189338E+04  0.00000000000E+00 0. -1.
          6    2    1    2  501    0  0.14555893649E+02  0.11751385582E+03 -0.11034124319E+04  0.11228768590E+04  0.17120766714E+03 0.  0.
         24    2    3    3    0    0 -0.22608910800E+02  0.47678786520E+02 -0.89096361888E+03  0.89612865561E+03  0.80286784123E+02 0.  0.
         -6    2    1    2    0  502 -0.14555893649E+02 -0.11751385582E+03  0.97938868415E+02  0.23068744507E+03  0.17205608102E+03 0.  0.
        -24    2    5    5    0    0 -0.47505669621E+02 -0.74365766388E+02  0.12187138042E+03  0.17117021656E+03  0.81606089331E+02 0.  0.
          5    1    3    3  501    0  0.37164804449E+02  0.69835069296E+02 -0.21244881302E+03  0.22674820341E+03  0.47000000000E+01 0. -1.
        -11    1    4    4    0    0 -0.15976819412E+02  0.13928268569E+02 -0.48093584731E+02  0.52557095773E+02  0.00000000000E+00 0.  1.
         12    1    4    4    0    0 -0.66320913883E+01  0.33750517952E+02 -0.84287003415E+03  0.84357155984E+03  0.00000000000E+00 0. -1.
         -5    1    5    5    0  502  0.32949775972E+02 -0.43148089429E+02 -0.23932512007E+02  0.59517228505E+02  0.47000000000E+01 0.  1.
         11    1    6    6    0    0 -0.45396303056E+02 -0.70700576446E+02  0.47182541057E+02  0.96361756011E+02  0.00000000000E+00 0. -1.
        -12    1    6    6    0    0 -0.21093665651E+01 -0.36651899416E+01  0.74688839364E+02  0.74808460552E+02  0.00000000000E+00 0.  1.
</event>
<event>
12    1  0.8358445E-002  0.2345969E+03  0.7818608E-02  0.1124144E+00
         21   -1    0    0  503  502  0.00000000000E+00  0.00000000000E+00  0.52589239099E+03  0.52589239099E+03  0.00000000000E+00 0. -1.
         21   -1    0    0  501  503 -0.00000000000E+00 -0.00000000000E+00 -0.14260063646E+03  0.14260063646E+03  0.00000000000E+00 0.  1.
          6    2    1    2  501    0 -0.99782020266E+01  0.15315324538E+03  0.16398149219E+02  0.23516935312E+03  0.17742672928E+03 0.  0.
         24    2    3    3    0    0 -0.66842264204E+01  0.86676199512E+02 -0.60867192123E+02  0.13308080883E+03  0.80300959880E+02 0.  0.
         -6    2    1    2    0  502  0.99782020266E+01 -0.15315324538E+03  0.36689360531E+03  0.43332367432E+03  0.17205524701E+03 0.  0.
        -24    2    5    5    0    0 -0.50957730067E+02 -0.50094675761E+02  0.21882029403E+03  0.24284519232E+03  0.77364717794E+02 0.  0.
          5    1    3    3  501    0 -0.32939756062E+01  0.66477045868E+02  0.77265341341E+02  0.10208854429E+03  0.47000000000E+01 0. -1.
        -11    1    4    4    0    0 -0.24978902917E+02 -0.14760943340E+01 -0.11570323543E+01  0.25049214944E+02  0.00000000000E+00 0.  1.
         12    1    4    4    0    0  0.18294676497E+02  0.88152293846E+02 -0.59710159769E+02  0.10803159389E+03  0.00000000000E+00 0. -1.
         -5    1    5    5    0  502  0.60935932093E+02 -0.10305856962E+03  0.14807331128E+03  0.19047848200E+03  0.47000000000E+01 0.  1.
         11    1    6    6    0    0  0.18966441789E+02 -0.22906214636E+02  0.73829268889E+02  0.79593853580E+02  0.00000000000E+00 0. -1.
        -12    1    6    6    0    0 -0.69924171856E+02 -0.27188461125E+02  0.14499102515E+03  0.16325133874E+03  0.00000000000E+00 0.  1.
</event>
<event>
12    1  0.8358445E-002  0.1775157E+03  0.7818608E-02  0.1172836E+00
         21   -1    0    0  501  502  0.00000000000E+00  0.00000000000E+00  0.59993220642E+02  0.59993220642E+02  0.00000000000E+00 0. -1.
         21   -1    0    0  502  503 -0.00000000000E+00 -0.00000000000E+00 -0.70746819282E+03  0.70746819282E+03  0.00000000000E+00 0. -1.
         -6    2    1    2    0  503  0.27366079827E+02 -0.33320178819E+02 -0.54051685533E+03  0.56892028913E+03  0.17219955820E+03 0.  0.
        -24    2    3    3    0    0 -0.92634000438E+01  0.43743466796E+02 -0.26581599219E+03  0.28123438665E+03  0.80220552640E+02 0.  0.
          6    2    1    2  501    0 -0.27366079827E+02  0.33320178819E+02 -0.10695811685E+03  0.19854112434E+03  0.16161498275E+03 0.  0.
         24    2    5    5    0    0  0.71982956493E+01 -0.33526814862E+02 -0.79521425764E+02  0.11830348582E+03  0.80598975350E+02 0.  0.
          5    1    5    5  501    0 -0.34564375476E+02  0.66846993680E+02 -0.27436691085E+02  0.80237638511E+02  0.47000000000E+01 0. -1.
        -13    1    6    6    0    0 -0.31229868294E+02 -0.37676841942E+02 -0.44771497974E+02  0.66327491459E+02  0.00000000000E+00 0.  1.
         14    1    6    6    0    0  0.38428163943E+02  0.41500270804E+01 -0.34749927790E+02  0.51975994365E+02  0.00000000000E+00 0. -1.
         -5    1    3    3    0  503  0.36629479871E+02 -0.77063645614E+02 -0.27470086314E+03  0.28768590247E+03  0.47000000000E+01 0.  1.
         11    1    4    4    0    0  0.14630614721E+02 -0.95575081150E+01 -0.15485509070E+03  0.15583805685E+03  0.00000000000E+00 0. -1.
        -12    1    4    4    0    0 -0.23894014765E+02  0.53300974911E+02 -0.11096090149E+03  0.12539632980E+03  0.00000000000E+00 0.  1.
</event>
<event>
12    1  0.8358445E-002  0.1913077E+03  0.7818608E-02  0.1157302E+00
         21   -1    0    0  503  502  0.00000000000E+00  0.00000000000E+00  0.12072824300E+03  0.12072824300E+03  0.00000000000E+00 0.  1.
         21   -1    0    0  501  503 -0.00000000000E+00 -0.00000000000E+00 -0.31378617193E+03  0.31378617193E+03  0.00000000000E+00 0.  1.
          6    2    1    2  501    0  0.56174958300E+02  0.62486486217E+02 -0.56350138119E+02  0.19943409184E+03  0.17186748390E+03 0.  0.
         24    2    3    3    0    0  0.84597253646E+02  0.86878478808E+02 -0.68059244195E+02  0.15991208101E+03  0.78963583552E+02 0.  0.
         -6    2    1    2    0  502 -0.56174958300E+02 -0.62486486217E+02 -0.13670779081E+03  0.23508032309E+03  0.17179508532E+03 0.  0.
        -24    2    5    5    0    0 -0.50006923600E+02 -0.16434344286E+02 -0.15802088433E+03  0.18374629555E+03  0.77597172406E+02 0.  0.
          5    1    3    3  501    0 -0.28422295346E+02 -0.24391992591E+02  0.11709106076E+02  0.39522010835E+02  0.47000000000E+01 0. -1.
        -11    1    4    4    0    0  0.41764263968E+02  0.12479476870E+01 -0.45043568500E+02  0.61438865398E+02  0.00000000000E+00 0.  1.
         12    1    4    4    0    0  0.42832989679E+02  0.85630531121E+02 -0.23015675696E+02  0.98473215610E+02  0.00000000000E+00 0. -1.
         -5    1    5    5    0  502 -0.61680347005E+01 -0.46052141931E+02  0.21313093518E+02  0.51334027543E+02  0.47000000000E+01 0.  1.
         13    1    6    6    0    0  0.14289108368E+02  0.15369904097E+02 -0.48247071348E+02  0.52613614812E+02  0.00000000000E+00 0. -1.
        -14    1    6    6    0    0 -0.64296031968E+02 -0.31804248384E+02 -0.10977381298E+03  0.13113268074E+03  0.00000000000E+00 0.  1.
</event>
<event>
12    1  0.8358445E-002  0.1935916E+03  0.7818608E-02  0.1155357E+00
         21   -1    0    0  501  502  0.00000000000E+00  0.00000000000E+00  0.31225887380E+03  0.31225887380E+03  0.00000000000E+00 0.  1.
         21   -1    0    0  502  503 -0.00000000000E+00 -0.00000000000E+00 -0.14366820898E+03  0.14366820898E+03  0.00000000000E+00 0. -1.
         -6    2    1    2    0  503  0.27135263439E+02 -0.84650542107E+02 -0.86375034996E+01  0.19378419413E+03  0.17197578501E+03 0.  0.
        -24    2    3    3    0    0 -0.49142300259E+01 -0.12030168751E+03 -0.93917173074E+01  0.14560916908E+03  0.81346051480E+02 0.  0.
          6    2    1    2  501    0 -0.27135263439E+02  0.84650542107E+02  0.17722816832E+03  0.26214288864E+03  0.17148479121E+03 0.  0.
         24    2    5    5    0    0 -0.41411151604E+02  0.12405681914E+03  0.13169696603E+03  0.20007972699E+03  0.74718327325E+02 0.  0.
          5    1    5    5  501    0  0.14275888165E+02 -0.39406277029E+02  0.45531202295E+02  0.62063161655E+02  0.47000000000E+01 0. -1.
        -13    1    6    6    0    0 -0.31800275870E+02  0.13214592165E+03  0.12866075447E+03  0.18715606294E+03  0.00000000000E+00 0.  1.
         14    1    6    6    0    0 -0.96108757338E+01 -0.80891025123E+01  0.30362115624E+01  0.12923664050E+02  0.00000000000E+00 0. -1.
         -5    1    3    3    0  503  0.32049493465E+02  0.35651145408E+02  0.75421380787E+00  0.48175025051E+02  0.47000000000E+01 0.  1.
         11    1    4    4    0    0 -0.23986536773E+02 -0.83897782667E+02  0.26342413659E+02  0.91148859785E+02  0.00000000000E+00 0. -1.
        -12    1    4    4    0    0  0.19072306747E+02 -0.36403904848E+02 -0.35734130967E+02  0.54460309298E+02  0.00000000000E+00 0.  1.
</event>
<event>
12    1  0.8358445E-002  0.1893045E+03  0.7818608E-02  0.1160981E+00
         21   -1    0    0  503  502  0.00000000000E+00  0.00000000000E+00  0.11511681690E+03  0.11511681690E+03  0.00000000000E+00 0.  1.
         21   -1    0    0  501  503 -0.00000000000E+00 -0.00000000000E+00 -0.41543711028E+03  0.41543711028E+03  0.00000000000E+00 0.  1.
          6    2    1    2  501    0  0.90795593422E+01 -0.72595404875E+02 -0.11538319642E+02  0.18965584773E+03  0.17459575181E+03 0.  0.
         24    2    3    3    0    0  0.37665787324E+00 -0.58715368698E+02 -0.73438767236E+02  0.12545186568E+03  0.83049874638E+02 0.  0.
         -6    2    1    2    0  502 -0.90795593422E+01  0.72595404875E+02 -0.28878197374E+03  0.34089807946E+03  0.16572248193E+03 0.  0.
        -24    2    5    5    0    0  0.83073633031E+01 -0.23164162713E+02 -0.11560531980E+03  0.14219115121E+03  0.79045194654E+02 0.  0.
          5    1    3    3  501    0  0.87029014690E+01 -0.13880036176E+02  0.61900447594E+02  0.64203982046E+02  0.47000000000E+01 0. -1.
        -13    1    4    4    0    0 -0.73674921491E+01 -0.10681239127E+02  0.17813860618E+02  0.22038657853E+02  0.00000000000E+00 0.  1.
         14    1    4    4    0    0  0.77441500224E+01 -0.48034129572E+02 -0.91252627854E+02  0.10341320783E+03  0.00000000000E+00 0. -1.
         -5    1    5    5    0  502 -0.17386922645E+02  0.95759567588E+02 -0.17317665394E+03  0.19870692825E+03  0.47000000000E+01 0.  1.
         13    1    6    6    0    0 -0.23233383851E+02 -0.36371500226E+02 -0.38466133980E+02  0.57812798040E+02  0.00000000000E+00 0. -1.
        -14    1    6    6    0    0  0.31540747154E+02  0.13207337513E+02 -0.77139185816E+02  0.84378353169E+02  0.00000000000E+00 0.  1.
</event>
<event>
12    1  0.8358445E-002  0.1795123E+03  0.7818608E-02  0.1168472E+00
         21   -1    0    0  501  502  0.00000000000E+00  0.00000000000E+00  0.24807175748E+03  0.24807175748E+03  0.00000000000E+00 0.  1.
         21   -1    0    0  502  503 -0.00000000000E+00 -0.00000000000E+00 -0.16029274517E+03  0.16029274517E+03  0.00000000000E+00 0. -1.
         -6    2    1    2    0  503 -0.44114505478E+02 -0.15945715077E+02 -0.45785273419E+02  0.18525917978E+03  0.17327526370E+03 0.  0.
        -24    2    3    3    0    0 -0.73984938906E+02 -0.42875720428E+02 -0.70528610770E+02  0.13780614274E+03  0.81878870608E+02 0.  0.
          6    2    1    2  501    0  0.44114505478E+02  0.15945715077E+02  0.13356428573E+03  0.22310532287E+03  0.17244190687E+03 0.  0.
         24    2    5    5    0    0  0.94043795399E+02  0.26357405780E+02  0.94983896736E+02  0.15898142942E+03  0.81940258540E+02 0.  0.
          5    1    5    5  501    0 -0.49929289921E+02 -0.10411690703E+02  0.38580388996E+02  0.64123893444E+02  0.47000000000E+01 0. -1.
        -13    1    6    6    0    0  0.23028799321E+02  0.32707548519E+02  0.74893381677E+02  0.84906583651E+02  0.00000000000E+00 0.  1.
         14    1    6    6    0    0  0.71014996078E+02 -0.63501427390E+01  0.20090515059E+02  0.74074845771E+02  0.00000000000E+00 0. -1.
         -5    1    3    3    0  503  0.29870433428E+02  0.26930005351E+02  0.24743337351E+02  0.47453037044E+02  0.47000000000E+01 0.  1.
         11    1    4    4    0    0 -0.39755754779E+02  0.19747720127E+02 -0.41476497072E+02  0.60751891309E+02  0.00000000000E+00 0. -1.
        -12    1    4    4    0    0 -0.34229184127E+02 -0.62623440555E+02 -0.29052113698E+02  0.77054251429E+02  0.00000000000E+00 0.  1.
</event>
<event>
12    1  0.8358445E-002  0.1762448E+03  0.7818608E-02  0.1171886E+00
         21   -1    0    0  501  502  0.00000000000E+00  0.00000000000E+00  0.55226816552E+03  0.55226816552E+03  0.00000000000E+00 0.  1.
         21   -1    0    0  502  503 -0.00000000000E+00 -0.00000000000E+00 -0.84948916508E+02  0.84948916508E+02  0.00000000000E+00 0.  1.
         -6    2    1    2    0  503 -0.25342010238E+02  0.27164564119E+02  0.47523846089E+02  0.18253969866E+03  0.17228492277E+03 0.  0.
        -24    2    3    3    0    0 -0.11817970945E+02  0.66284963130E+02 -0.16857621098E+02  0.10585613735E+03  0.79924850026E+02 0.  0.
          6    2    1    2  501    0  0.25342010238E+02 -0.27164564119E+02  0.41979540293E+03  0.45467738337E+03  0.17065524195E+03 0.  0.
         24    2    5    5    0    0 -0.32479617327E+02 -0.42459836983E+02  0.36469133161E+03  0.37321675079E+03  0.58593620932E+02 0.  0.
          5    1    5    5  501    0  0.57821627564E+02  0.15295272864E+02  0.55104071311E+02  0.81460632586E+02  0.47000000000E+01 0. -1.
        -13    1    6    6    0    0 -0.19811966211E+00 -0.46443886866E+02  0.23131860178E+03  0.23593509575E+03  0.00000000000E+00 0.  1.
         14    1    6    6    0    0 -0.32281497665E+02  0.39840498828E+01  0.13337272984E+03  0.13728165503E+03  0.00000000000E+00 0. -1.
         -5    1    3    3    0  503 -0.13524039293E+02 -0.39120399011E+02  0.64381467187E+02  0.76683561307E+02  0.47000000000E+01 0.  1.
         13    1    4    4    0    0  0.20813900764E+02 -0.84706899429E+01  0.43510698933E+00  0.22475772984E+02  0.00000000000E+00 0. -1.
        -14    1    4    4    0    0 -0.32631871709E+02  0.74755653073E+02 -0.17292728087E+02  0.83380364369E+02  0.00000000000E+00 0.  1.
</event>
<event>
12    1  0.8358445E-002  0.2066481E+03  0.7818608E-02  0.1145155E+00
         21   -1    0    0  503  502  0.00000000000E+00  0.00000000000E+00  0.55801100026E+03  0.55801100026E+03  0.00000000000E+00 0.  1.
         21   -1    0    0  501  503 -0.00000000000E+00 -0.00000000000E+00 -0.22801552867E+03  0.22801552867E+03  0.00000000000E+00 0. -1.
          6    2    1    2  501    0 -0.10725103016E+02 -0.10481826621E+03 -0.15764796042E+03  0.25640444716E+03  0.17259334962E+03 0.  0.
         24    2    3    3    0    0 -0.35778223721E+02 -0.39943312382E+01 -0.44103942467E+02  0.10243218104E+03  0.85153731552E+02 0.  0.
         -6    2    1    2    0  502  0.10725103016E+02  0.10481826621E+03  0.48764343201E+03  0.52962208176E+03  0.17776820847E+03 0.  0.
        -24    2    5    5    0    0  0.18605591236E+02 -0.97999568621E+01  0.12199366206E+03  0.14631895965E+03  0.78003699858E+02 0.  0.
          5    1    3    3  501    0  0.25053120705E+02 -0.10082393498E+03 -0.11354401795E+03  0.15397226612E+03  0.47000000000E+01 0. -1.
        -11    1    4    4    0    0  0.24286325335E+01  0.39691578442E+01 -0.60080719774E+02  0.60260645188E+02  0.00000000000E+00 0.  1.
         12    1    4    4    0    0 -0.38206856254E+02 -0.79634890824E+01  0.15976777306E+02  0.42171535854E+02  0.00000000000E+00 0. -1.
         -5    1    5    5    0  502 -0.78804882197E+01  0.11461822308E+03  0.36564976995E+03  0.38330312211E+03  0.47000000000E+01 0.  1.
         13    1    6    6    0    0  0.42775965066E+02  0.15527478249E+02  0.62951197692E+02  0.77677146311E+02  0.00000000000E+00 0. -1.
        -14    1    6    6    0    0 -0.24170373830E+02 -0.25327435111E+02  0.59042464367E+02  0.68641813343E+02  0.00000000000E+00 0.  1.
</event>
<event>
12    1  0.8358445E-002  0.1879872E+03  0.7818608E-02  0.1161785E+00
         21   -1    0    0  501  502  0.00000000000E+00  0.00000000000E+00  0.38563440414E+03  0.38563440414E+03  0.00000000000E+00 0.  1.
         21   -1    0    0  502  503 -0.00000000000E+00 -0.00000000000E+00 -0.12206433404E+03  0.12206433404E+03  0.00000000000E+00 0.  1.
         -6    2    1    2    0  503 -0.59941892385E+02 -0.46256738984E+00  0.41871804823E+00  0.18798767786E+03  0.17817392422E+03 0.  0.
        -24    2    3    3    0    0 -0.81512876125E+02  0.53992371268E+02  0.15562560159E+02  0.12730758527E+03  0.80034385476E+02 0.  0.
          6    2    1    2  501    0  0.59941892385E+02  0.46256738984E+00  0.26315135205E+03  0.31971106031E+03  0.17138635759E+03 0.  0.
         24    2    5    5    0    0  0.35524159097E+02 -0.37628643757E+01  0.40768556217E+02  0.95902486180E+02  0.79114389663E+02 0.  0.
          5    1    5    5  501    0  0.24417733288E+02  0.42254317656E+01  0.22238279583E+03  0.22380857413E+03  0.47000000000E+01 0. -1.
        -13    1    6    6    0    0  0.51666701346E+02  0.21927547234E+02  0.22383433685E+02  0.60425850919E+02  0.00000000000E+00 0.  1.
         14    1    6    6    0    0 -0.16142542249E+02 -0.25690411610E+02  0.18385122532E+02  0.35476635262E+02  0.00000000000E+00 0. -1.
         -5    1    3    3    0  503  0.21570983741E+02 -0.54454938657E+02 -0.15143842111E+02  0.60680092597E+02  0.47000000000E+01 0.  1.
         13    1    4    4    0    0 -0.45171482982E+01 -0.17724594781E+02 -0.71903798405E+01  0.19653687978E+02  0.00000000000E+00 0. -1.
        -14    1    4    4    0    0 -0.76995727827E+02  0.71716966048E+02  0.22752939999E+02  0.10765389729E+03  0.00000000000E+00 0.  1.
</event>
<event>
12    1  0.8358445E-002  0.1973140E+03  0.7818608E-02  0.1153689E+00
         21   -1    0    0  503  502  0.00000000000E+00  0.00000000000E+00  0.56788138714E+03  0.56788138714E+03  0.00000000000E+00 0.  1.
         21   -1    0    0  501  503 -0.00000000000E+00 -0.00000000000E+00 -0.36243370146E+03  0.36243370146E+03  0.00000000000E+00 0.  1.
          6    2    1    2  501    0 -0.92455037258E+02  0.25026027861E+02 -0.31834424224E+03  0.37059123914E+03  0.16376988117E+03 0.  0.
         24    2    3    3    0    0 -0.86857588969E+02 -0.37749352206E+02 -0.23645332444E+03  0.26714902248E+03  0.80555392252E+02 0.  0.
         -6    2    1    2    0  502  0.92455037258E+02 -0.25026027861E+02  0.52379192791E+03  0.55972384946E+03  0.17250671848E+03 0.  0.
        -24    2    5    5    0    0  0.24046994027E+01 -0.37874996483E+02  0.13419112470E+03  0.15961756956E+03  0.77654443714E+02 0.  0.
          5    1    3    3  501    0 -0.55974482883E+01  0.62775380067E+02 -0.81890917794E+02  0.10344221666E+03  0.47000000000E+01 0. -1.
        -13    1    4    4    0    0 -0.16487235099E+02  0.95120885100E+01 -0.12844900677E+03  0.12985166956E+03  0.00000000000E+00 0.  1.
         14    1    4    4    0    0 -0.70370353871E+02 -0.47261440716E+02 -0.10800431768E+03  0.13729735292E+03  0.00000000000E+00 0. -1.
         -5    1    5    5    0  502  0.90050337855E+02  0.12848968622E+02  0.38960080322E+03  0.40010627989E+03  0.47000000000E+01 0.  1.
         11    1    6    6    0    0 -0.22992084720E+02  0.13263334309E+02  0.25323723455E+02  0.36685732464E+02  0.00000000000E+00 0. -1.
        -12    1    6    6    0    0  0.25396784123E+02 -0.51138330792E+02  0.10886740124E+03  0.12293183710E+03  0.00000000000E+00 0.  1.
</event>
<event>
12    1  0.8358445E-002  0.2240267E+03  0.7818608E-02  0.1131053E+00
         21   -1    0    0  501  502  0.00000000000E+00  0.00000000000E+00  0.65053617510E+03  0.65053617510E+03  0.00000000000E+00 0.  1.
         21   -1    0    0  502  503 -0.00000000000E+00 -0.00000000000E+00 -0.81399969836E+02  0.81399969836E+02  0.00000000000E+00 0. -1.
         -6    2    1    2    0  503 -0.67505001048E+02 -0.12717882301E+03  0.37026006829E+03  0.43237034483E+03  0.17064647295E+03 0.  0.
        -24    2    3    3    0    0 -0.81274297789E+02 -0.33846547197E+02  0.26652701598E+03  0.29207371842E+03  0.80742222567E+02 0.  0.
          6    2    1    2  501    0  0.67505001048E+02  0.12717882301E+03  0.19887613698E+03  0.29956580010E+03  0.17162917160E+03 0.  0.
         24    2    5    5    0    0  0.50044777777E+00  0.44796370525E+02  0.22992063006E+02  0.94057220933E+02  0.79442813320E+02 0.  0.
          5    1    5    5  501    0  0.67004553270E+02  0.82382452488E+02  0.17588407397E+03  0.20550857917E+03  0.47000000000E+01 0. -1.
        -13    1    6    6    0    0  0.16978892614E+02  0.32238058787E+02  0.48838079253E+02  0.60932201782E+02  0.00000000000E+00 0.  1.
         14    1    6    6    0    0 -0.16478444837E+02  0.12558311738E+02 -0.25846016247E+02  0.33125019152E+02  0.00000000000E+00 0. -1.
         -5    1    3    3    0  503  0.13769296741E+02 -0.93332275815E+02  0.10373305231E+03  0.14029662641E+03  0.47000000000E+01 0.  1.
         13    1    4    4    0    0 -0.34799130330E+02  0.15290352505E+02  0.37995841501E+02  0.53744379454E+02  0.00000000000E+00 0. -1.
        -14    1    4    4    0    0 -0.46475167459E+02 -0.49136899703E+02  0.22853117448E+03  0.23832933896E+03  0.00000000000E+00 0.  1.
</event>
<event>
12    1  0.8358445E-002  0.1822796E+03  0.7818608E-02  0.1165786E+00
         21   -1    0    0  503  502  0.00000000000E+00  0.00000000000E+00  0.72298578995E+03  0.72298578995E+03  0.00000000000E+00 0.  1.
         21   -1    0    0  501  503 -0.00000000000E+00 -0.00000000000E+00 -0.52030371123E+02  0.52030371123E+02  0.00000000000E+00 0.  1.
          6    2    1    2  501    0 -0.58474866182E+02 -0.25173050396E+01  0.20170700600E+03  0.27186679543E+03  0.17262731936E+03 0.  0.
         24    2    3    3    0    0  0.26948550253E+02  0.15689256670E+02  0.14102057791E+03  0.16540754727E+03  0.80625530480E+02 0.  0.
         -6    2    1    2    0  502  0.58474866182E+02  0.25173050396E+01  0.46924841283E+03  0.50314936564E+03  0.17187077821E+03 0.  0.
        -24    2    5    5    0    0 -0.26352802611E+01 -0.37204721369E+02  0.36508922206E+03  0.37593491520E+03  0.81521680588E+02 0.  0.
          5    1    3    3  501    0 -0.85423416434E+02 -0.18206561710E+02  0.60686428091E+02  0.10645924816E+03  0.47000000000E+01 0. -1.
        -11    1    4    4    0    0  0.40913599589E+02 -0.16285110390E+02  0.43773340600E+02  0.62090521008E+02  0.00000000000E+00 0.  1.
         12    1    4    4    0    0 -0.13965049336E+02  0.31974367060E+02  0.97247237309E+02  0.10331702626E+03  0.00000000000E+00 0. -1.
         -5    1    5    5    0  502  0.61110146443E+02  0.39722026408E+02  0.10415919077E+03  0.12721445045E+03  0.47000000000E+01 0.  1.
         13    1    6    6    0    0  0.21480935144E+02 -0.55401756792E+02  0.23853436411E+03  0.24582397786E+03  0.00000000000E+00 0. -1.
        -14    1    6    6    0    0 -0.24116215405E+02  0.18197035423E+02  0.12655485795E+03  0.13011093734E+03  0.00000000000E+00 0.  1.
</event>
<event>
12    1  0.8358445E-002  0.1845050E+03  0.7818608E-02  0.1164130E+00
         21   -1    0    0  503  502  0.00000000000E+00  0.00000000000E+00  0.60124385070E+03  0.60124385070E+03  0.00000000000E+00 0.  1.
         21   -1    0    0  501  503 -0.00000000000E+00 -0.00000000000E+00 -0.91630234696E+02  0.91630234696E+02  0.00000000000E+00 0.  1.
          6    2    1    2  501    0 -0.53619553363E+02  0.93333909597E+01  0.37126979062E+02  0.18564070052E+03  0.17355658566E+03 0.  0.
         24    2    3    3    0    0 -0.12281105984E+02 -0.27861770972E+02 -0.36617502471E+02  0.93159968152E+02  0.80067685947E+02 0.  0.
         -6    2    1    2    0  502  0.53619553363E+02 -0.93333909597E+01  0.47248663694E+03  0.50723338487E+03  0.17629496860E+03 0.  0.
        -24    2    5    5    0    0 -0.28356916518E+01 -0.60991948225E+02  0.18665033744E+03  0.21129372659E+03  0.77965579186E+02 0.  0.
          5    1    3    3  501    0 -0.41338447379E+02  0.37195161932E+02  0.73744481533E+02  0.92480732369E+02  0.47000000000E+01 0. -1.
        -13    1    4    4    0    0 -0.45597169874E+02 -0.25491091289E+02 -0.23378087978E+02  0.57231395520E+02  0.00000000000E+00 0.  1.
         14    1    4    4    0    0  0.33316063890E+02 -0.23706796829E+01 -0.13239414493E+02  0.35928572632E+02  0.00000000000E+00 0. -1.
         -5    1    5    5    0  502  0.56455245015E+02  0.51658557266E+02  0.28583629950E+03  0.29593965828E+03  0.47000000000E+01 0.  1.
         13    1    6    6    0    0  0.35092868886E+01  0.14692235663E+02  0.78331591189E+01  0.17015735806E+02  0.00000000000E+00 0. -1.
        -14    1    6    6    0    0 -0.63449785405E+01 -0.75684183888E+02  0.17881717832E+03  0.19427799079E+03  0.00000000000E+00 0.  1.
</event>
<event>
12    1  0.8358445E-002  0.1836483E+03  0.7818608E-02  0.1164797E+00
         21   -1    0    0  501  502  0.00000000000E+00  0.00000000000E+00  0.48959981594E+03  0.48959981594E+03  0.00000000000E+00 0.  1.
         21   -1    0    0  502  503 -0.00000000000E+00 -0.00000000000E+00 -0.91935627342E+02  0.91935627342E+02  0.00000000000E+00 0.  1.
         -6    2    1    2    0  503  0.62584498550E+02  0.30854883068E+01  0.51690836875E+02  0.19078430103E+03  0.17262782860E+03 0.  0.
        -24    2    3    3    0    0 -0.22024233841E+02 -0.64943798192E+01  0.64924416963E+02  0.10448465380E+03  0.78578744683E+02 0.  0.
          6    2    1    2  501    0 -0.62584498550E+02 -0.30854883068E+01  0.34597335172E+03  0.39075114225E+03  0.17047743362E+03 0.  0.
         24    2    5    5    0    0 -0.92985329192E+02 -0.42680990588E+01  0.33763109987E+03  0.35885612324E+03  0.78220646089E+02 0.  0.
          5    1    5    5  501    0  0.30400830642E+02  0.11826107520E+01  0.83422518566E+01  0.31895019015E+02  0.47000000000E+01 0. -1.
        -13    1    6    6    0    0 -0.42895132687E+02  0.12407892218E+02  0.26682158694E+03  0.27053226694E+03  0.00000000000E+00 0.  1.
         14    1    6    6    0    0 -0.50090196505E+02 -0.16675991277E+02  0.70809512927E+02  0.88323856301E+02  0.00000000000E+00 0. -1.
         -5    1    3    3    0  503  0.84608732391E+02  0.95798681260E+01 -0.13233580088E+02  0.86299647231E+02  0.47000000000E+01 0.  1.
         11    1    4    4    0    0 -0.28726542893E+02 -0.32185982078E+02  0.11221609142E+02  0.44576633124E+02  0.00000000000E+00 0. -1.
        -12    1    4    4    0    0  0.67023090515E+01  0.25691602259E+02  0.53702807821E+02  0.59908020675E+02  0.00000000000E+00 0.  1.
</event>
<event>
12    1  0.8358445E-002  0.2436170E+03  0.7818608E-02  0.1117575E+00
         21   -1    0    0  501  502  0.00000000000E+00  0.00000000000E+00  0.52002057406E+03  0.52002057406E+03  0.00000000000E+00 0.  1.
         21   -1    0    0  502  503 -0.00000000000E+00 -0.00000000000E+00 -0.17384428457E+03  0.17384428457E+03  0.00000000000E+00 0.  1.
         -6    2    1    2    0  503 -0.58074318501E+02  0.16164347547E+03 -0.30824077633E+02  0.24555930586E+03  0.17276576426E+03 0.  0.
        -24    2    3    3    0    0 -0.80698019229E+02  0.61026778395E+02  0.19997004990E+02  0.13049226451E+03  0.79949439645E+02 0.  0.
          6    2    1    2  501    0  0.58074318501E+02 -0.16164347547E+03  0.37700036712E+03  0.44830555278E+03  0.17131068913E+03 0.  0.
         24    2    5    5    0    0  0.17956187340E+02 -0.12271942304E+03  0.13512533728E+03  0.20001103740E+03  0.79768896523E+02 0.  0.
          5    1    5    5  501    0  0.40118131162E+02 -0.38924052437E+02  0.24187502984E+03  0.24829451538E+03  0.47000000000E+01 0. -1.
        -11    1    6    6    0    0  0.38379687314E+02 -0.43073062429E+02  0.88045770396E+02  0.10526322620E+03  0.00000000000E+00 0.  1.
         12    1    6    6    0    0 -0.20423499974E+02 -0.79646360608E+02  0.47079566883E+02  0.94747811200E+02  0.00000000000E+00 0. -1.
         -5    1    3    3    0  503  0.22623700727E+02  0.10061669708E+03 -0.50821082623E+02  0.11506704135E+03  0.47000000000E+01 0.  1.
         11    1    4    4    0    0 -0.82090070728E+02  0.32163816837E+02  0.38472023374E+02  0.96194528993E+02  0.00000000000E+00 0. -1.
        -12    1    4    4    0    0  0.13920514995E+01  0.28862961558E+02 -0.18475018384E+02  0.34297735517E+02  0.00000000000E+00 0.  1.
</event>
<event>
12    1  0.8358445E-002  0.2102491E+03  0.7818608E-02  0.1143096E+00
         21   -1    0    0  501  502  0.00000000000E+00  0.00000000000E+00  0.49951706231E+02  0.49951706231E+02  0.00000000000E+00 0. -1.
         21   -1    0    0  502  503 -0.00000000000E+00 -0.00000000000E+00 -0.12932782255E+04  0.12932782255E+04  0.00000000000E+00 0. -1.
         -6    2    1    2    0  503 -0.57183747050E+02  0.11234883839E+03 -0.10066292448E+04  0.10266382975E+04  0.15745321564E+03 0.  0.
        -24    2    3    3    0    0 -0.98223239902E+00  0.12120017187E+03 -0.75188053486E+03  0.76557134912E+03  0.78004521934E+02 0.  0.
          6    2    1    2  501    0  0.57183747050E+02 -0.11234883839E+03 -0.23669727454E+03  0.31659163424E+03  0.16826295101E+03 0.  0.
         24    2    5    5    0    0 -0.39251139970E+01 -0.21970018450E+02 -0.34353741908E+02  0.86662038083E+02  0.76367801009E+02 0.  0.
          5    1    5    5  501    0  0.61108861047E+02 -0.90378819938E+02 -0.20234353263E+03  0.22992959616E+03  0.47000000000E+01 0. -1.
        -11    1    6    6    0    0 -0.29797779809E+02 -0.28759776295E+02 -0.41856250178E+02  0.58881050373E+02  0.00000000000E+00 0.  1.
         12    1    6    6    0    0  0.25872665812E+02  0.67897578448E+01  0.75025082700E+01  0.27780987710E+02  0.00000000000E+00 0. -1.
         -5    1    3    3    0  503 -0.56201514651E+02 -0.88513334858E+01 -0.25474870990E+03  0.26106694840E+03  0.47000000000E+01 0.  1.
         13    1    4    4    0    0 -0.10849287607E+02  0.63187950647E+02 -0.58726288281E+03  0.59075216265E+03  0.00000000000E+00 0. -1.
        -14    1    4    4    0    0  0.98670552082E+01  0.58012221226E+02 -0.16461765205E+03  0.17481918646E+03  0.00000000000E+00 0.  1.
</event>
<event>
12    1  0.8358445E-002  0.1780460E+03  0.7818608E-02  0.1169858E+00
         21   -1    0    0  501  502  0.00000000000E+00  0.00000000000E+00  0.46791205238E+03  0.46791205238E+03  0.00000000000E+00 0.  1.
         21   -1    0    0  502  503 -0.00000000000E+00 -0.00000000000E+00 -0.15280081452E+03  0.15280081452E+03  0.00000000000E+00 0.  1.
         -6    2    1    2    0  503  0.32249520689E+01 -0.45086316374E+02 -0.74428780453E+02  0.19241181813E+03  0.17157939315E+03 0.  0.
        -24    2    3    3    0    0  0.53058855459E+02 -0.67590491341E+02 -0.73890885951E+02  0.13752798491E+03  0.77912559606E+02 0.  0.
          6    2    1    2  501    0 -0.32249520689E+01  0.45086316374E+02  0.38954001831E+03  0.42830104877E+03  0.17221261939E+03 0.  0.
         24    2    5    5    0    0  0.27548310241E+02  0.18111447071E+02  0.86680457423E+02  0.12265314535E+03  0.80270532905E+02 0.  0.
          5    1    5    5  501    0 -0.30773262310E+02  0.26974869303E+02  0.30285956089E+03  0.30564790342E+03  0.47000000000E+01 0. -1.
        -13    1    6    6    0    0 -0.57994528918E+00  0.46449987888E+02  0.52414900962E+02  0.70037558168E+02  0.00000000000E+00 0.  1.
         14    1    6    6    0    0  0.28128255531E+02 -0.28338540817E+02  0.34265556462E+02  0.52615587182E+02  0.00000000000E+00 0. -1.
         -5    1    3    3    0  503 -0.49833903390E+02  0.22504174966E+02 -0.53789450211E+00  0.54883833216E+02  0.47000000000E+01 0.  1.
         11    1    4    4    0    0  0.12439347739E+02 -0.14745543425E+01  0.14993616780E+02  0.19537661755E+02  0.00000000000E+00 0. -1.
        -12    1    4    4    0    0  0.40619507720E+02 -0.66115936998E+02 -0.88884502731E+02  0.11799032316E+03  0.00000000000E+00 0.  1.
</event>
<event>
12    1  0.8358445E-002  0.1809730E+03  0.7818608E-02  0.1167038E+00
         21   -1    0    0  501  502  0.00000000000E+00  0.00000000000E+00  0.85308215220E+02  0.85308215220E+02  0.00000000000E+00 0. -1.
         21   -1    0    0  502  503 -0.00000000000E+00 -0.00000000000E+00 -0.71037989011E+03  0.71037989011E+03  0.00000000000E+00 0. -1.
         -6    2    1    2    0  503 -0.55253680981E+02  0.13892169267E+02 -0.58253149679E+03  0.60978245497E+03  0.17101384740E+03 0.  0.
        -24    2    3    3    0    0 -0.99175183087E+02 -0.70208548262E+01 -0.47284009384E+03  0.48969604106E+03  0.79620656512E+02 0.  0.
          6    2    1    2  501    0  0.55253680981E+02 -0.13892169267E+02 -0.42540178102E+02  0.18590565037E+03  0.17177101751E+03 0.  0.
         24    2    5    5    0    0  0.25550341790E+01  0.52384827353E+02 -0.33232616245E+02  0.10059147591E+03  0.79142529064E+02 0.  0.
          5    1    5    5  501    0  0.52698646802E+02 -0.66276996620E+02 -0.93075618569E+01  0.85314174458E+02  0.47000000000E+01 0. -1.
        -13    1    6    6    0    0  0.36099875182E+02  0.20259056988E+02 -0.34855802520E+02  0.54116146828E+02  0.00000000000E+00 0.  1.
         14    1    6    6    0    0 -0.33544841003E+02  0.32125770365E+02  0.16231862749E+01  0.46475329081E+02  0.00000000000E+00 0. -1.
         -5    1    3    3    0  503  0.43921502105E+02  0.20913024093E+02 -0.10969140295E+03  0.12008641391E+03  0.47000000000E+01 0.  1.
         13    1    4    4    0    0 -0.40687520166E+02 -0.24517481718E+02 -0.87621373844E+02  0.99669886934E+02  0.00000000000E+00 0. -1.
        -14    1    4    4    0    0 -0.58487662921E+02  0.17496626892E+02 -0.38521872000E+03  0.39002615412E+03  0.00000000000E+00 0.  1.
</event>
<event>
12    1  0.8358445E-002  0.1834581E+03  0.7818608E-02  0.1165304E+00
         21   -1    0    0  501  502  0.00000000000E+00  0.00000000000E+00  0.71810774877E+03  0.71810774877E+03  0.00000000000E+00 0.  1.
         21   -1    0    0  502  503 -0.00000000000E+00 -0.00000000000E+00 -0.46013300146E+02  0.46013300146E+02  0.00000000000E+00 0.  1.
         -6    2    1    2    0  503  0.54272579498E+02  0.27995454515E+02  0.32897464762E+03  0.37503483810E+03  0.16940352018E+03 0.  0.
        -24    2    3    3    0    0  0.34601273611E+02  0.34851506879E+02  0.76423643436E+02  0.12158254388E+03  0.80807586480E+02 0.  0.
          6    2    1    2  501    0 -0.54272579498E+02 -0.27995454515E+02  0.34311980100E+03  0.38908621082E+03  0.17299602091E+03 0.  0.
         24    2    5    5    0    0 -0.30463988144E+02 -0.55977007331E+02  0.33611169754E+03  0.35138979409E+03  0.80263529942E+02 0.  0.
          5    1    5    5  501    0 -0.23808591354E+02  0.27981552816E+02  0.70081034547E+01  0.37696416730E+02  0.47000000000E+01 0. -1.
        -11    1    6    6    0    0 -0.54962507234E+02 -0.38881115735E+02  0.27815674009E+03  0.28618838275E+03  0.00000000000E+00 0.  1.
         12    1    6    6    0    0  0.24498519090E+02 -0.17095891595E+02  0.57954957453E+02  0.65201411338E+02  0.00000000000E+00 0. -1.
         -5    1    3    3    0  503  0.19671305888E+02 -0.68560523636E+01  0.25255100419E+03  0.25345229422E+03  0.47000000000E+01 0.  1.
         13    1    4    4    0    0  0.19812747135E+02 -0.22796648129E+02  0.45232813982E+02  0.54389701008E+02  0.00000000000E+00 0. -1.
        -14    1    4    4    0    0  0.14788526475E+02  0.57648155007E+02  0.31190829453E+02  0.67192842871E+02  0.00000000000E+00 0.  1.
</event>
<event>
12    1  0.8358445E-002  0.1806938E+03  0.7818608E-02  0.1168665E+00
         21   -1    0    0  501  502  0.00000000000E+00  0.00000000000E+00  0.83067484131E+03  0.83067484131E+03  0.00000000000E+00 0.  1.
         21   -1    0    0  502  503 -0.00000000000E+00 -0.00000000000E+00 -0.44158945425E+02  0.44158945425E+02  0.00000000000E+00 0.  1.
         -6    2    1    2    0  503 -0.26335059225E+02 -0.49042001293E+01  0.23532481429E+03  0.29669514297E+03  0.17869709880E+03 0.  0.
        -24    2    3    3    0    0  0.85386598245E+00 -0.40845171119E+02  0.43509788504E+02  0.99601040656E+02  0.79738375411E+02 0.  0.
          6    2    1    2  501    0  0.26335059225E+02  0.49042001293E+01  0.55119108159E+03  0.57813864376E+03  0.17238067311E+03 0.  0.
         24    2    5    5    0    0  0.29162565436E+02  0.52594167174E+02  0.19877384584E+03  0.22246698928E+03  0.79774168033E+02 0.  0.
          5    1    5    5  501    0 -0.28275062109E+01 -0.47689967044E+02  0.35241723575E+03  0.35567165449E+03  0.47000000000E+01 0. -1.
        -13    1    6    6    0    0  0.39648647279E+02  0.23350944436E+02  0.18082618155E+03  0.18658882542E+03  0.00000000000E+00 0.  1.
         14    1    6    6    0    0 -0.10486081843E+02  0.29243222738E+02  0.17947664289E+02  0.35878163859E+02  0.00000000000E+00 0. -1.
         -5    1    3    3    0  503 -0.27188925208E+02  0.35940970989E+02  0.19181502579E+03  0.19709410232E+03  0.47000000000E+01 0.  1.
         11    1    4    4    0    0 -0.26210603103E+01 -0.76449485285E+01  0.61261941691E+02  0.61792723640E+02  0.00000000000E+00 0. -1.
        -12    1    4    4    0    0  0.34749262928E+01 -0.33200222590E+02 -0.17752153187E+02  0.37808317016E+02  0.00000000000E+00 0.  1.
</event>
<event>
12    1  0.8358445E-002  0.1833994E+03  0.7818608E-02  0.1164961E+00
         21   -1    0    0  501  502  0.00000000000E+00  0.00000000000E+00  0.55309276865E+02  0.55309276865E+02  0.00000000000E+00 0.  1.
         21   -1    0    0  502  503 -0.00000000000E+00 -0.00000000000E+00 -0.14248587072E+04  0.14248587072E+04  0.00000000000E+00 0.  1.
         -6    2    1    2    0  503  0.45943083929E+02  0.39779402375E+02 -0.12483957559E+04  0.12617952721E+04  0.17303808115E+03 0.  0.
        -24    2    3    3    0    0  0.62357052498E+02  0.30928072079E+02 -0.42182152781E+03  0.43499734699E+03  0.80276664917E+02 0.  0.
          6    2    1    2  501    0 -0.45943083929E+02 -0.39779402375E+02 -0.12115367444E+03  0.21837271198E+03  0.17121699883E+03 0.  0.
         24    2    5    5    0    0 -0.30692274469E+02 -0.92416056033E+02 -0.88630961646E+02  0.15447418816E+03  0.80771804003E+02 0.  0.
          5    1    5    5  501    0 -0.15250809460E+02  0.52636653658E+02 -0.32522712799E+02  0.63898523812E+02  0.47000000000E+01 0. -1.
        -13    1    6    6    0    0 -0.14386727499E+02 -0.29594206615E+02  0.11748024814E+02  0.34940107045E+02  0.00000000000E+00 0.  1.
         14    1    6    6    0    0 -0.16305546971E+02 -0.62821849417E+02 -0.10037898646E+03  0.11953408112E+03  0.00000000000E+00 0. -1.
         -5    1    3    3    0  503 -0.16413968569E+02  0.88513302957E+01 -0.82657422811E+03  0.82679792513E+03  0.47000000000E+01 0.  1.
         11    1    4    4    0    0  0.93233135596E+00  0.17722773818E+02 -0.14666412080E+02  0.23023240364E+02  0.00000000000E+00 0. -1.
        -12    1    4    4    0    0  0.61424721142E+02  0.13205298261E+02 -0.40715511573E+03  0.41197410663E+03  0.00000000000E+00 0.  1.
</event>
<event>
12    1  0.8358445E-002  0.2412875E+03  0.7818608E-02  0.1119220E+00
         21   -1    0    0  503  502  0.00000000000E+00  0.00000000000E+00  0.18488143822E+04  0.18488143822E+04  0.00000000000E+00 0. -1.
         21   -1    0    0  501  503 -0.00000000000E+00 -0.00000000000E+00 -0.55995992795E+02  0.55995992795E+02  0.00000000000E+00 0.  1.
          6    2    1    2  501    0  0.16773873585E+03  0.13838718496E+02  0.26528829378E+03  0.35860497567E+03  0.17289261443E+03 0.  0.
         24    2    3    3    0    0  0.12680906418E+03  0.72136248389E+02  0.15843235806E+03  0.23009769567E+03  0.80993582349E+02 0.  0.
         -6    2    1    2    0  502 -0.16773873585E+03 -0.13838718496E+02  0.15275300956E+04  0.15462053993E+04  0.17051436959E+03 0.  0.
        -24    2    5    5    0    0 -0.51296297102E+02 -0.24111235509E+02  0.10484867349E+04  0.10530837130E+04  0.80300755827E+02 0.  0.
          5    1    3    3  501    0  0.40929671668E+02 -0.58297529893E+02  0.10685593572E+03  0.12850728000E+03  0.47000000000E+01 0. -1.
        -13    1    4    4    0    0  0.77278519319E+02  0.36851991819E+02  0.34992104972E+02  0.92490465777E+02  0.00000000000E+00 0.  1.
         14    1    4    4    0    0  0.49530544860E+02  0.35284256570E+02  0.12344025309E+03  0.13760722989E+03  0.00000000000E+00 0. -1.
         -5    1    5    5    0  502 -0.11644243875E+03  0.10272517013E+02  0.47904336064E+03  0.49312168632E+03  0.47000000000E+01 0.  1.
         13    1    6    6    0    0 -0.31808983303E+02  0.23969748768E+02  0.65226519799E+03  0.65348010589E+03  0.00000000000E+00 0. -1.
        -14    1    6    6    0    0 -0.19487313799E+02 -0.48080984277E+02  0.39622153695E+03  0.39960360708E+03  0.00000000000E+00 0.  1.
</event>
<event>
12    1  0.8358445E-002  0.1824415E+03  0.7818608E-02  0.1165863E+00
         21   -1    0    0  503  502  0.00000000000E+00  0.00000000000E+00  0.49021658616E+02  0.49021658616E+02  0.00000000000E+00 0. -1.
         21   -1    0    0  501  503 -0.00000000000E+00 -0.00000000000E+00 -0.68423495326E+03  0.68423495326E+03  0.00000000000E+00 0. -1.
          6    2    1    2  501    0  0.43168744143E+02  0.34846802050E+02 -0.36369946141E+03  0.40614096516E+03  0.17203297727E+03 0.  0.
         24    2    3    3    0    0  0.13929258013E+02  0.25659066893E+02 -0.36521650577E+03  0.37509658644E+03  0.80386199892E+02 0.  0.
         -6    2    1    2    0  502 -0.43168744143E+02 -0.34846802050E+02 -0.27151383323E+03  0.32711564671E+03  0.17380173935E+03 0.  0.
        -24    2    5    5    0    0 -0.13154750265E+02 -0.99762830840E+01 -0.38713305933E+02  0.91027616406E+02  0.80713897277E+02 0.  0.
          5    1    3    3  501    0  0.29239486130E+02  0.91877351568E+01  0.15170443597E+01  0.31044378719E+02  0.47000000000E+01 0. -1.
        -11    1    4    4    0    0 -0.79977405866E+01 -0.24302005590E+02 -0.63039015146E+02  0.68032850600E+02  0.00000000000E+00 0.  1.
         12    1    4    4    0    0  0.21926998599E+02  0.49961072483E+02 -0.30217749062E+03  0.30706373584E+03  0.00000000000E+00 0. -1.
         -5    1    5    5    0  502 -0.30013993878E+02 -0.24870518966E+02 -0.23280052730E+03  0.23608803031E+03  0.47000000000E+01 0.  1.
         11    1    6    6    0    0  0.93664007485E+01 -0.33968068706E+02 -0.45379534578E+02  0.57453122745E+02  0.00000000000E+00 0. -1.
        -12    1    6    6    0    0 -0.22521151013E+02  0.23991785622E+02  0.66662286448E+01  0.33574493662E+02  0.00000000000E+00 0.  1.
</event>
<event>
12    1  0.8358445E-002  0.2196652E+03  0.7818608E-02  0.1134273E+00
         21   -1    0    0  501  502  0.00000000000E+00  0.00000000000E+00  0.64854365866E+03  0.64854365866E+03  0.00000000000E+00 0. -1.
         21   -1    0    0  502  503 -0.00000000000E+00 -0.00000000000E+00 -0.79953564367E+02  0.79953564367E+02  0.00000000000E+00 0. -1.
         -6    2    1    2    0  503  0.12789595703E+02  0.13651162780E+03  0.18659874442E+03  0.28822195723E+03  0.17162111445E+03 0.  0.
        -24    2    3    3    0    0 -0.30584483224E+02  0.13398034787E+03  0.18592354539E+03  0.24451539028E+03  0.79586852714E+02 0.  0.
          6    2    1    2  501    0 -0.12789595703E+02 -0.13651162780E+03  0.38199134988E+03  0.44027526580E+03  0.17066317708E+03 0.  0.
         24    2    5    5    0    0  0.31998902050E+02 -0.14530871838E+03  0.31941241985E+03  0.36267622704E+03  0.85855683178E+02 0.  0.
          5    1    5    5  501    0 -0.44788497753E+02  0.87970905792E+01  0.62578930026E+02  0.77599038762E+02  0.47000000000E+01 0. -1.
        -11    1    6    6    0    0  0.32347986675E+02 -0.10058646272E+03  0.29125205709E+03  0.30982541775E+03  0.00000000000E+00 0.  1.
         12    1    6    6    0    0 -0.34908462529E+00 -0.44722255664E+02  0.28160362759E+02  0.52850809289E+02  0.00000000000E+00 0. -1.
         -5    1    3    3    0  503  0.43374078927E+02  0.25312799349E+01  0.67519903194E+00  0.43706566950E+02  0.47000000000E+01 0.  1.
         11    1    4    4    0    0 -0.17196466870E+02  0.77029739875E+02  0.42549448230E+02  0.89664680018E+02  0.00000000000E+00 0. -1.
        -12    1    4    4    0    0 -0.13388016353E+02  0.56950607993E+02  0.14337409716E+03  0.15485071026E+03  0.00000000000E+00 0.  1.
</event>
<event>
12    1  0.8358445E-002  0.1904979E+03  0.7818608E-02  0.1158557E+00
         21   -1    0    0  501  502  0.00000000000E+00  0.00000000000E+00  0.46661291493E+03  0.46661291493E+03  0.00000000000E+00 0.  1.
         21   -1    0    0  502  503 -0.00000000000E+00 -0.00000000000E+00 -0.82309960395E+02  0.82309960395E+02  0.00000000000E+00 0.  1.
         -6    2    1    2    0  503  0.52305432679E+02 -0.57621889254E+02  0.11995772703E+03  0.22308878516E+03  0.17123845766E+03 0.  0.
        -24    2    3    3    0    0 -0.22931865183E+02 -0.14135399084E+01  0.93890277684E+02  0.12550993786E+03  0.80059301285E+02 0.  0.
          6    2    1    2  501    0 -0.52305432679E+02  0.57621889254E+02  0.26434522750E+03  0.32583409016E+03  0.17387729753E+03 0.  0.
         24    2    5    5    0    0 -0.30300788044E+02  0.23020326957E+02  0.27010587648E+03  0.28415978662E+03  0.79633702743E+02 0.  0.
          5    1    5    5  501    0 -0.22004644635E+02  0.34601562297E+02 -0.57606489784E+01  0.41674303540E+02  0.47000000000E+01 0. -1.
        -13    1    6    6    0    0 -0.54266535852E+02  0.29341318909E+02  0.16457788411E+03  0.17576020553E+03  0.00000000000E+00 0.  1.
         14    1    6    6    0    0  0.23965747807E+02 -0.63209919525E+01  0.10552799236E+03  0.10839958109E+03  0.00000000000E+00 0. -1.
         -5    1    3    3    0  503  0.75237297862E+02 -0.56208349346E+02  0.26067449349E+02  0.97578847304E+02  0.47000000000E+01 0.  1.
         13    1    4    4    0    0 -0.42144837594E+02  0.13035506964E+02  0.21193729441E+02  0.48941658587E+02  0.00000000000E+00 0. -1.
        -14    1    4    4    0    0  0.19212972411E+02 -0.14449046872E+02  0.72696548243E+02  0.76568279274E+02  0.00000000000E+00 0.  1.
</event>
<event>
12    1  0.8358445E-002  0.2206695E+03  0.7818608E-02  0.1133661E+00
         21   -1    0    0  503  502  0.00000000000E+00  0.00000000000E+00  0.40430884211E+03  0.40430884211E+03  0.00000000000E+00 0.  1.
         21   -1    0    0  501  503 -0.00000000000E+00 -0.00000000000E+00 -0.19159498487E+03  0.19159498487E+03  0.00000000000E+00 0.  1.
          6    2    1    2  501    0  0.79611696149E+02  0.11237838597E+03 -0.76467126072E+02  0.23214476109E+03  0.17051992533E+03 0.  0.
         24    2    3    3    0    0  0.54828096602E+02  0.13934599005E+03 -0.90436058894E+02  0.19266439179E+03  0.80730799546E+02 0.  0.
         -6    2    1    2    0  502 -0.79611696149E+02 -0.11237838597E+03  0.28918098331E+03  0.36375906589E+03  0.17241836651E+03 0.  0.
        -24    2    5    5    0    0 -0.11496971659E+03 -0.11315084367E+03  0.21146186906E+03  0.27824218440E+03  0.81740087802E+02 0.  0.
          5    1    3    3  501    0  0.24783599547E+02 -0.26967604076E+02  0.13968932822E+02  0.39480369303E+02  0.47000000000E+01 0. -1.
        -13    1    4    4    0    0  0.30116532827E+02  0.22048884038E+02  0.72587743252E+01  0.38024316451E+02  0.00000000000E+00 0.  1.
         14    1    4    4    0    0  0.24711563775E+02  0.11729710601E+03 -0.97694833220E+02  0.15464007534E+03  0.00000000000E+00 0. -1.
         -5    1    5    5    0  502  0.35358020441E+02  0.77245769697E+00  0.77719114246E+02  0.85516881489E+02  0.47000000000E+01 0.  1.
         11    1    6    6    0    0 -0.61839411964E+01 -0.18301063702E+02  0.82368876550E+02  0.84603793564E+02  0.00000000000E+00 0. -1.
        -12    1    6    6    0    0 -0.10878577539E+03 -0.94849779968E+02  0.12909299251E+03  0.19363839083E+03  0.00000000000E+00 0.  1.
</event>
<event>
12    1  0.8358445E-002  0.2015582E+03  0.7818608E-02  0.1149907E+00
         21   -1    0    0  503  502  0.00000000000E+00  0.00000000000E+00  0.42677639398E+02  0.42677639398E+02  0.00000000000E+00 0.  1.
         21   -1    0    0  501  503 -0.00000000000E+00 -0.00000000000E+00 -0.25430110081E+04  0.25430110081E+04  0.00000000000E+00 0.  1.
          6    2    1    2  501    0 -0.39029283326E+02  0.94098816831E+02 -0.22752123936E+04  0.22835212286E+04  0.16583091759E+03 0.  0.
         24    2    3    3    0    0  0.57952761431E+01  0.89438830602E+02 -0.20607219687E+04  0.20642971675E+04  0.81944333225E+02 0.  0.
         -6    2    1    2    0  502  0.39029283326E+02 -0.94098816831E+02 -0.22512097508E+03  0.30216741887E+03  0.17391901368E+03 0.  0.
        -24    2    5    5    0    0  0.41460006778E+02 -0.12958732711E+03 -0.14540298875E+03  0.21474665404E+03  0.80388362184E+02 0.  0.
          5    1    3    3  501    0 -0.44824559469E+02  0.46599862297E+01 -0.21449042494E+03  0.21922406116E+03  0.47000000000E+01 0. -1.
        -11    1    4    4    0    0 -0.35834302593E+02  0.25900379517E+02 -0.90718839604E+03  0.90826522162E+03  0.00000000000E+00 0.  1.
         12    1    4    4    0    0  0.41629578736E+02  0.63538451085E+02 -0.11535335727E+04  0.11560319458E+04  0.00000000000E+00 0. -1.
         -5    1    5    5    0  502 -0.24307234522E+01  0.35488510280E+02 -0.79717986329E+02  0.87420764826E+02  0.47000000000E+01 0.  1.
         11    1    6    6    0    0  0.53646585036E+02 -0.63349464731E+02 -0.46676228807E+02  0.95235398374E+02  0.00000000000E+00 0. -1.
        -12    1    6    6    0    0 -0.12186578258E+02 -0.66237862380E+02 -0.98726759943E+02  0.11951125567E+03  0.00000000000E+00 0.  1.
</event>
<event>
12    1  0.8358445E-002  0.2354058E+03  0.7818608E-02  0.1122897E+00
         21   -1    0    0  501  502  0.00000000000E+00  0.00000000000E+00  0.68434298056E+02  0.68434298056E+02  0.00000000000E+00 0. -1.
         21   -1    0    0  502  503 -0.00000000000E+00 -0.00000000000E+00 -0.85226877531E+03  0.85226877531E+03  0.00000000000E+00 0.  1.
         -6    2    1    2    0  503 -0.15277213191E+03 -0.52523346957E+02 -0.49482894221E+03  0.54795641135E+03  0.17117978977E+03 0.  0.
        -24    2    3    3    0    0 -0.65896830589E+02 -0.88829394854E+02 -0.23491855610E+03  0.27147685351E+03  0.79245822106E+02 0.  0.
          6    2    1    2  501    0  0.15277213191E+03  0.52523346957E+02 -0.28900553505E+03  0.37274666202E+03  0.17122455576E+03 0.  0.
         24    2    5    5    0    0  0.15109737936E+03  0.78294749395E+01 -0.15326226808E+03  0.22974781056E+03  0.80018840976E+02 0.  0.
          5    1    5    5  501    0  0.16747525438E+01  0.44693872018E+02 -0.13574326697E+03  0.14299885146E+03  0.47000000000E+01 0. -1.
        -11    1    6    6    0    0  0.17404383437E+02  0.25900288680E+02 -0.53589975778E+02  0.62013087493E+02  0.00000000000E+00 0.  1.
         12    1    6    6    0    0  0.13369299593E+03 -0.18070813740E+02 -0.99672292298E+02  0.16773472306E+03  0.00000000000E+00 0. -1.
         -5    1    3    3    0  503 -0.86875301319E+02  0.36306047897E+02 -0.25991038611E+03  0.27647955783E+03  0.47000000000E+01 0.  1.
         13    1    4    4    0    0 -0.68759357473E+02 -0.48696791539E+02 -0.10040041084E+03  0.13107047434E+03  0.00000000000E+00 0. -1.
        -14    1    4    4    0    0  0.28625268835E+01 -0.40132603315E+02 -0.13451814526E+03  0.14040637917E+03  0.00000000000E+00 0.  1.
</event>
<event>
12    1  0.8358445E-002  0.3013036E+03  0.7818608E-02  0.1085556E+00
         21   -1    0    0  503  502  0.00000000000E+00  0.00000000000E+00  0.28093748452E+03  0.28093748452E+03  0.00000000000E+00 0. -1.
         21   -1    0    0  501  503 -0.00000000000E+00 -0.00000000000E+00 -0.44346323116E+03  0.44346323116E+03  0.00000000000E+00 0. -1.
          6    2    1    2  501    0 -0.23018380181E+03  0.61564114302E+02 -0.27546480152E+03  0.40262578948E+03  0.17161569478E+03 0.  0.
         24    2    3    3    0    0 -0.48477765610E+02 -0.51484596380E+01 -0.12354864044E+03  0.15651959063E+03  0.82810115948E+02 0.  0.
         -6    2    1    2    0  502  0.23018380181E+03 -0.61564114302E+02  0.11293905487E+03  0.32177492621E+03  0.18441569953E+03 0.  0.
        -24    2    5    5    0    0  0.18067749394E+03 -0.56976563554E+02  0.15401075257E+03  0.25711508943E+03  0.80611238012E+02 0.  0.
          5    1    3    3  501    0 -0.18170603620E+03  0.66712573940E+02 -0.15191616108E+03  0.24610619885E+03  0.47000000000E+01 0. -1.
        -11    1    4    4    0    0 -0.30591113153E+02 -0.37425807630E+02 -0.10417045039E+03  0.11483897429E+03  0.00000000000E+00 0.  1.
         12    1    4    4    0    0 -0.17886652457E+02  0.32277347992E+02 -0.19378190043E+02  0.41680616345E+02  0.00000000000E+00 0. -1.
         -5    1    5    5    0  502  0.49506307867E+02 -0.45875507480E+01 -0.41071697696E+02  0.64659836777E+02  0.47000000000E+01 0.  1.
         13    1    6    6    0    0  0.87262720582E+01 -0.24797127524E+02  0.38461895351E+01  0.26567621862E+02  0.00000000000E+00 0. -1.
        -14    1    6    6    0    0  0.17195122188E+03 -0.32179436030E+02  0.15016456303E+03  0.23054746757E+03  0.00000000000E+00 0.  1.
</event>
<event>
12    1  0.8358445E-002  0.1890884E+03  0.7818608E-02  0.1159354E+00
         21   -1    0    0  501  502  0.00000000000E+00  0.00000000000E+00  0.23973873761E+03  0.23973873761E+03  0.00000000000E+00 0. -1.
         21   -1    0    0  502  503 -0.00000000000E+00 -0.00000000000E+00 -0.16019534200E+03  0.16019534200E+03  0.00000000000E+00 0. -1.
         -6    2    1    2    0  503 -0.69610279190E+02 -0.44486258319E+02 -0.13291527506E+02  0.18955498449E+03  0.17008765180E+03 0.  0.
        -24    2    3    3    0    0 -0.65143648087E+02 -0.93680148636E+02 -0.53696208709E+01  0.13930723586E+03  0.79737118081E+02 0.  0.
          6    2    1    2  501    0  0.69610279190E+02  0.44486258319E+02  0.92834923110E+02  0.21037909512E+03  0.16975400604E+03 0.  0.
         24    2    5    5    0    0  0.38798567969E+02 -0.27422203453E+02  0.67151078732E+01  0.93936401060E+02  0.80756725118E+02 0.  0.
          5    1    5    5  501    0  0.30811711221E+02  0.71908461772E+02  0.86119815237E+02  0.11644269406E+03  0.47000000000E+01 0. -1.
        -13    1    6    6    0    0  0.60536588663E+02 -0.99413628203E+01 -0.88663142386E+01  0.61984843227E+02  0.00000000000E+00 0.  1.
         14    1    6    6    0    0 -0.21738020694E+02 -0.17480840632E+02  0.15581422112E+02  0.31951557833E+02  0.00000000000E+00 0. -1.
         -5    1    3    3    0  503 -0.44666311034E+01  0.49193890317E+02 -0.79219066352E+01  0.50247748633E+02  0.47000000000E+01 0.  1.
         13    1    4    4    0    0 -0.42222679854E+02 -0.49307836943E+02 -0.42047292005E+02  0.77343340004E+02  0.00000000000E+00 0. -1.
        -14    1    4    4    0    0 -0.22920968233E+02 -0.44372311693E+02  0.36677671134E+02  0.61963895855E+02  0.00000000000E+00 0.  1.
</event>
<event>
12    1  0.8358445E-002  0.2636610E+03  0.7818608E-02  0.1105050E+00
         21   -1    0    0  501  502  0.00000000000E+00  0.00000000000E+00  0.78105329504E+03  0.78105329504E+03  0.00000000000E+00 0. -1.
         21   -1    0    0  502  503 -0.00000000000E+00 -0.00000000000E+00 -0.10837695919E+03  0.10837695919E+03  0.00000000000E+00 0.  1.
         -6    2    1    2    0  503 -0.19919224046E+03 -0.97218947578E+01  0.14766306311E+03  0.30219451333E+03  0.17246761953E+03 0.  0.
        -24    2    3    3    0    0 -0.15765738394E+03 -0.60323161992E+02  0.14558471351E+03  0.23652837222E+03  0.79095053412E+02 0.  0.
          6    2    1    2  501    0  0.19919224046E+03  0.97218947578E+01  0.52501327274E+03  0.58723574090E+03  0.17156577440E+03 0.  0.
         24    2    5    5    0    0  0.16224370331E+03 -0.68229228412E+01  0.24872788467E+03  0.30796055216E+03  0.81268502714E+02 0.  0.
          5    1    5    5  501    0  0.36948537141E+02  0.16544817599E+02  0.27628538807E+03  0.27927518874E+03  0.47000000000E+01 0. -1.
        -13    1    6    6    0    0  0.37332027294E+02 -0.28014549331E+02  0.30930200073E+02  0.55992611233E+02  0.00000000000E+00 0.  1.
         14    1    6    6    0    0  0.12491167602E+03  0.21191626490E+02  0.21779768460E+03  0.25196794093E+03  0.00000000000E+00 0. -1.
         -5    1    3    3    0  503 -0.41534856515E+02  0.50601267234E+02  0.20783496005E+01  0.65666141112E+02  0.47000000000E+01 0.  1.
         13    1    4    4    0    0 -0.48516934589E+02 -0.53113520920E+02  0.85486744741E+02  0.11172700020E+03  0.00000000000E+00 0. -1.
        -14    1    4    4    0    0 -0.10914044935E+03 -0.72096410720E+01  0.60097968766E+02  0.12480137202E+03  0.00000000000E+00 0.  1.
</event>
<event>
12    1  0.8358445E-002  0.2217864E+03  0.7818608E-02  0.1133109E+00
         21   -1    0    0  501  502  0.00000000000E+00  0.00000000000E+00  0.74416390610E+03  0.74416390610E+03  0.00000000000E+00 0.  1.
         21   -1    0    0  502  503 -0.00000000000E+00 -0.00000000000E+00 -0.17156772909E+03  0.17156772909E+03  0.00000000000E+00 0. -1.
         -6    2    1    2    0  503 -0.64396354502E+02 -0.12119298919E+03 -0.73449981580E+02  0.23363239268E+03  0.17422561238E+03 0.  0.
        -24    2    3    3    0    0 -0.89501302122E+02 -0.95727965369E+02 -0.98348302605E+02  0.18980611947E+03  0.95810479215E+02 0.  0.
          6    2    1    2  501    0  0.64396354502E+02  0.12119298919E+03  0.64604615859E+03  0.68209924251E+03  0.17043798434E+03 0.  0.
         24    2    5    5    0    0 -0.31170200996E+01  0.21555586563E+02  0.39654480444E+03  0.40504566741E+03  0.79623185282E+02 0.  0.
          5    1    5    5  501    0  0.67513374601E+02  0.99637402632E+02  0.24950135415E+03  0.27705357510E+03  0.47000000000E+01 0. -1.
        -13    1    6    6    0    0  0.28024692004E+02  0.38052951649E+02  0.23392904738E+03  0.23865500141E+03  0.00000000000E+00 0.  1.
         14    1    6    6    0    0 -0.31141712103E+02 -0.16497365086E+02  0.16261575706E+03  0.16639066600E+03  0.00000000000E+00 0. -1.
         -5    1    3    3    0  503  0.25104947620E+02 -0.25465023826E+02  0.24898321025E+02  0.43826273208E+02  0.47000000000E+01 0.  1.
         13    1    4    4    0    0 -0.54696475105E+02  0.57146059082E+01 -0.30239848311E+02  0.62759935750E+02  0.00000000000E+00 0. -1.
        -14    1    4    4    0    0 -0.34804827017E+02 -0.10144257128E+03 -0.68108454295E+02  0.12704618372E+03  0.00000000000E+00 0.  1.
</event>
<event>
12    1  0.8358445E-002  0.1833506E+03  0.7818608E-02  0.1164805E+00
         21   -1    0    0  503  502  0.00000000000E+00  0.00000000000E+00  0.88220251589E+02  0.88220251589E+02  0.00000000000E+00 0.  1.
         21   -1    0    0  501  503 -0.00000000000E+00 -0.00000000000E+00 -0.45038716632E+03  0.45038716632E+03  0.00000000000E+00 0. -1.
          6    2    1    2  501    0  0.54208483775E+02  0.30495986446E+02 -0.28774109279E+03  0.34072703346E+03  0.17155585083E+03 0.  0.
         24    2    3    3    0    0  0.62426190465E+02  0.18634502958E+02 -0.74530400718E+02  0.12697691134E+03  0.79524093374E+02 0.  0.
         -6    2    1    2    0  502 -0.54208483775E+02 -0.30495986446E+02 -0.74425821950E+02  0.19788038445E+03  0.17247863252E+03 0.  0.
        -24    2    5    5    0    0 -0.82052053022E+02  0.27019694033E+01 -0.94887447157E+01  0.11967371836E+03  0.86555892615E+02 0.  0.
          5    1    3    3  501    0 -0.82177066898E+01  0.11861483488E+02 -0.21321069207E+03  0.21375012212E+03  0.47000000000E+01 0. -1.
        -11    1    4    4    0    0  0.81770603026E+00 -0.15203273440E+02 -0.50417967210E+02  0.52666683815E+02  0.00000000000E+00 0.  1.
         12    1    4    4    0    0  0.61608484435E+02  0.33837776398E+02 -0.24112433508E+02  0.74310227530E+02  0.00000000000E+00 0. -1.
         -5    1    5    5    0  502  0.27843569247E+02 -0.33197955850E+02 -0.64937077234E+02  0.78206666089E+02  0.47000000000E+01 0.  1.
         11    1    6    6    0    0 -0.72517055606E+02 -0.29147104015E+02 -0.26244498773E+02  0.82444228070E+02  0.00000000000E+00 0. -1.
        -12    1    6    6    0    0 -0.95349974159E+01  0.31849073419E+02  0.16755754057E+02  0.37229490292E+02  0.00000000000E+00 0.  1.
</event>
<event>
12    1  0.8358445E-002  0.1901023E+03  0.7818608E-02  0.1158685E+00
         21   -1    0    0  503  502  0.00000000000E+00  0.00000000000E+00  0.26174500110E+03  0.26174500110E+03  0.00000000000E+00 0. -1.
         21   -1    0    0  501  503 -0.00000000000E+00 -0.00000000000E+00 -0.54323654395E+03  0.54323654395E+03  0.00000000000E+00 0. -1.
          6    2    1    2  501    0  0.72618961785E+02 -0.34146774299E+02 -0.48864779674E+03  0.52381861252E+03  0.17079155061E+03 0.  0.
         24    2    3    3    0    0  0.31438976024E+01 -0.60154219834E+01 -0.10224550131E+03  0.13018555822E+03  0.80299860754E+02 0.  0.
         -6    2    1    2    0  502 -0.72618961785E+02  0.34146774299E+02  0.20715625389E+03  0.28116293252E+03  0.17233503790E+03 0.  0.
        -24    2    5    5    0    0 -0.11852042172E+03  0.33913797066E+02  0.15132358699E+03  0.20873106800E+03  0.73976988149E+02 0.  0.
          5    1    3    3  501    0  0.69475064182E+02 -0.28131352316E+02 -0.38640229543E+03  0.39363305430E+03  0.47000000000E+01 0. -1.
        -13    1    4    4    0    0 -0.15869809814E+02 -0.22027887562E+02 -0.23579578206E+01  0.27251397378E+02  0.00000000000E+00 0.  1.
         14    1    4    4    0    0  0.19013707417E+02  0.16012465578E+02 -0.99887543493E+02  0.10293416084E+03  0.00000000000E+00 0. -1.
         -5    1    5    5    0  502  0.45901459936E+02  0.23297723305E+00  0.55832666907E+02  0.72431864511E+02  0.47000000000E+01 0.  1.
         13    1    6    6    0    0 -0.10877429501E+03  0.29156521402E+02  0.15942939170E+03  0.19519139565E+03  0.00000000000E+00 0. -1.
        -14    1    6    6    0    0 -0.97461267079E+01  0.47572756640E+01 -0.81058047139E+01  0.13539672360E+02  0.00000000000E+00 0.  1.
</event>
<event>
12    1  0.8358445E-002  0.2621754E+03  0.7818608E-02  0.1106041E+00
         21   -1    0    0  501  502  0.00000000000E+00  0.00000000000E+00  0.30785395009E+03  0.30785395009E+03  0.00000000000E+00 0.  1.
         21   -1    0    0  502  503 -0.00000000000E+00 -0.00000000000E+00 -0.24408021035E+03  0.24408021035E+03  0.00000000000E+00 0.  1.
         -6    2    1    2    0  503 -0.18493184869E+03 -0.63210648606E+02 -0.50763297863E+02  0.26704462373E+03  0.17475853025E+03 0.  0.
        -24    2    3    3    0    0 -0.17942248914E+03 -0.13347008042E+01 -0.57839147521E+02  0.20434579114E+03  0.78851913978E+02 0.  0.
          6    2    1    2  501    0  0.18493184869E+03  0.63210648606E+02  0.11453703761E+03  0.28488953671E+03  0.17276556482E+03 0.  0.
         24    2    5    5    0    0  0.17352176760E+03  0.54022004599E+01  0.47400137662E+02  0.19543865655E+03  0.76226687076E+02 0.  0.
          5    1    5    5  501    0  0.11410081091E+02  0.57808448146E+02  0.67136899948E+02  0.89450880165E+02  0.47000000000E+01 0. -1.
        -13    1    6    6    0    0  0.34833718021E+02 -0.30521636186E+02  0.12938371154E+02  0.48087000684E+02  0.00000000000E+00 0.  1.
         14    1    6    6    0    0  0.13868804958E+03  0.35923836646E+02  0.34461766508E+02  0.14735165587E+03  0.00000000000E+00 0. -1.
         -5    1    3    3    0  503 -0.55093595565E+01 -0.61875947802E+02  0.70758496578E+01  0.62698832584E+02  0.47000000000E+01 0.  1.
         13    1    4    4    0    0 -0.88512107626E+02  0.23296049478E+02  0.40974812678E+01  0.91618166705E+02  0.00000000000E+00 0. -1.
        -14    1    4    4    0    0 -0.90910381509E+02 -0.24630750282E+02 -0.61936628788E+02  0.11272762444E+03  0.00000000000E+00 0.  1.
</event>
<event>
12    1  0.8358445E-002  0.1950876E+03  0.7818608E-02  0.1154008E+00
         21   -1    0    0  503  502  0.00000000000E+00  0.00000000000E+00  0.32422165520E+03  0.32422165520E+03  0.00000000000E+00 0. -1.
         21   -1    0    0  501  503 -0.00000000000E+00 -0.00000000000E+00 -0.13269397833E+03  0.13269397833E+03  0.00000000000E+00 0. -1.
          6    2    1    2  501    0  0.66242049146E+02 -0.64782722960E+02  0.17829862372E+02  0.19590064936E+03  0.17168095456E+03 0.  0.
         24    2    3    3    0    0 -0.30598192257E+02 -0.31101338781E+02  0.19562631566E+02  0.93248028919E+02  0.80055953558E+02 0.  0.
         -6    2    1    2    0  502 -0.66242049146E+02  0.64782722960E+02  0.17369781451E+03  0.26101498417E+03  0.17138576641E+03 0.  0.
        -24    2    5    5    0    0 -0.80142168839E+02  0.86638793303E+02  0.77189036824E+02  0.16098031364E+03  0.77636758318E+02 0.  0.
          5    1    3    3  501    0  0.96840241403E+02 -0.33681384178E+02 -0.17327691944E+01  0.10265262045E+03  0.47000000000E+01 0. -1.
        -13    1    4    4    0    0 -0.83522650007E+01 -0.12933381710E+02  0.49453256707E+02  0.51794375100E+02  0.00000000000E+00 0.  1.
         14    1    4    4    0    0 -0.22245927256E+02 -0.18167957071E+02 -0.29890625141E+02  0.41453653819E+02  0.00000000000E+00 0. -1.
         -5    1    5    5    0  502  0.13900119693E+02 -0.21856070343E+02  0.96508777681E+02  0.10003467053E+03  0.47000000000E+01 0.  1.
         11    1    6    6    0    0 -0.33813906789E+02  0.41390209922E+02  0.79942088110E+02  0.96162712218E+02  0.00000000000E+00 0. -1.
        -12    1    6    6    0    0 -0.46328262050E+02  0.45248583381E+02 -0.27530512857E+01  0.64817601421E+02  0.00000000000E+00 0.  1.
</event>
<event>
12    1  0.8358445E-002  0.1924540E+03  0.7818608E-02  0.1156468E+00
         21   -1    0    0  503  502  0.00000000000E+00  0.00000000000E+00  0.62904800175E+03  0.62904800175E+03  0.00000000000E+00 0.  1.
         21   -1    0    0  501  503 -0.00000000000E+00 -0.00000000000E+00 -0.79360561686E+02  0.79360561686E+02  0.00000000000E+00 0.  1.
          6    2    1    2  501    0 -0.15990542690E+02 -0.84312810441E+02  0.93217327047E+02  0.21302636393E+03  0.17124956702E+03 0.  0.
         24    2    3    3    0    0 -0.40258378092E+02 -0.11923878387E+03  0.60666188582E+02  0.15926375545E+03  0.76458699809E+02 0.  0.
         -6    2    1    2    0  502  0.15990542690E+02  0.84312810441E+02  0.45647011302E+03  0.49538219951E+03  0.17226204473E+03 0.  0.
        -24    2    5    5    0    0 -0.16126272948E+02  0.15576370555E+02  0.37712508734E+03  0.38550084935E+03  0.76713058503E+02 0.  0.
          5    1    3    3  501    0  0.24267835402E+02  0.34925973430E+02  0.32551138466E+02  0.53762608480E+02  0.47000000000E+01 0. -1.
        -11    1    4    4    0    0 -0.58240274369E+02 -0.11100874600E+03  0.61158098807E+02  0.13948184217E+03  0.00000000000E+00 0.  1.
         12    1    4    4    0    0  0.17981896277E+02 -0.82300378745E+01 -0.49191022557E+00  0.19781913274E+02  0.00000000000E+00 0. -1.
         -5    1    5    5    0  502  0.32116815638E+02  0.68736439886E+02  0.79345025680E+02  0.10988135017E+03  0.47000000000E+01 0.  1.
         11    1    6    6    0    0 -0.31638803825E+02  0.36789531016E+02  0.30287359666E+03  0.30673587833E+03  0.00000000000E+00 0. -1.
        -12    1    6    6    0    0  0.15512530877E+02 -0.21213160461E+02  0.74251490683E+02  0.78764971019E+02  0.00000000000E+00 0.  1.
</event>
<event>
12    1  0.8358445E-002  0.1836048E+03  0.7818608E-02  0.1164446E+00
         21   -1    0    0  501  502  0.00000000000E+00  0.00000000000E+00  0.10824508999E+04  0.10824508999E+04  0.00000000000E+00 0.  1.
         21   -1    0    0  502  503 -0.00000000000E+00 -0.00000000000E+00 -0.38897878117E+02  0.38897878117E+02  0.00000000000E+00 0.  1.
         -6    2    1    2    0  503  0.64033001608E+02 -0.36025244837E+01  0.27000894889E+03  0.32631346304E+03  0.17164626475E+03 0.  0.
        -24    2    3    3    0    0  0.63657231013E+01  0.27187507083E+02  0.22165551360E+03  0.24486602134E+03  0.10024230010E+03 0.  0.
          6    2    1    2  501    0 -0.64033001608E+02  0.36025244837E+01  0.77354407286E+03  0.79503531494E+03  0.17203928584E+03 0.  0.
         24    2    5    5    0    0 -0.25273722146E+02 -0.13997748246E+02  0.17013745192E+03  0.19011078118E+03  0.79753737160E+02 0.  0.
          5    1    5    5  501    0 -0.38759279462E+02  0.17600272729E+02  0.60340662094E+03  0.60492453376E+03  0.47000000000E+01 0. -1.
        -13    1    6    6    0    0 -0.52714038550E+02  0.13032225539E+01  0.11787492504E+03  0.12913158484E+03  0.00000000000E+00 0.  1.
         14    1    6    6    0    0  0.27440316403E+02 -0.15300970800E+02  0.52262526872E+02  0.60979196344E+02  0.00000000000E+00 0. -1.
         -5    1    3    3    0  503  0.57667278507E+02 -0.30790031567E+02  0.48353435292E+02  0.81447441696E+02  0.47000000000E+01 0.  1.
         13    1    4    4    0    0 -0.15437119779E+01  0.65119210007E+02  0.14572522031E+03  0.15962059514E+03  0.00000000000E+00 0. -1.
        -14    1    4    4    0    0  0.79094350793E+01 -0.37931702924E+02  0.75930293291E+02  0.85245426207E+02  0.00000000000E+00 0.  1.
</event>
<event>
12    1  0.8358445E-002  0.2099216E+03  0.7818608E-02  0.1141666E+00
         21   -1    0    0  501  502  0.00000000000E+00  0.00000000000E+00  0.30041107711E+03  0.30041107711E+03  0.00000000000E+00 0.  1.
         21   -1    0    0  502  503 -0.00000000000E+00 -0.00000000000E+00 -0.18102608639E+03  0.18102608639E+03  0.00000000000E+00 0.  1.
         -6    2    1    2    0  503  0.14651586635E+02 -0.11960489172E+03 -0.45327490962E+02  0.21475950722E+03  0.17189259841E+03 0.  0.
        -24    2    3    3    0    0  0.62076286644E+02 -0.32670092512E+02 -0.87066304764E+01  0.10907157552E+03  0.83066255865E+02 0.  0.
          6    2    1    2  501    0 -0.14651586635E+02  0.11960489172E+03  0.16471248168E+03  0.26667765629E+03  0.17165888159E+03 0.  0.
         24    2    5    5    0    0  0.57958798661E+01  0.33563389191E+02  0.15434053398E+03  0.17750980142E+03  0.80799974325E+02 0.  0.
          5    1    5    5  501    0 -0.20447466501E+02  0.86041502526E+02  0.10371947694E+02  0.89167854871E+02  0.47000000000E+01 0. -1.
        -11    1    6    6    0    0 -0.16500596330E+02 -0.12522627191E+02  0.10279004371E+03  0.10485646836E+03  0.00000000000E+00 0.  1.
         12    1    6    6    0    0  0.22296476196E+02  0.46086016382E+02  0.51550490277E+02  0.72653333059E+02  0.00000000000E+00 0. -1.
         -5    1    3    3    0  503 -0.47424700010E+02 -0.86934799205E+02 -0.36620860485E+02  0.10568793170E+03  0.47000000000E+01 0.  1.
         13    1    4    4    0    0  0.33621257535E+02 -0.51269422586E+01 -0.44283224443E+02  0.55836175211E+02  0.00000000000E+00 0. -1.
        -14    1    4    4    0    0  0.28455029110E+02 -0.27543150253E+02  0.35576593967E+02  0.53235400307E+02  0.00000000000E+00 0.  1.
</event>
<event>
12    1  0.8358445E-002  0.2365532E+03  0.7818608E-02  0.1122310E+00
         21   -1    0    0  501  502  0.00000000000E+00  0.00000000000E+00  0.89134826370E+03  0.89134826370E+03  0.00000000000E+00 0. -1.
         21   -1    0    0  502  503 -0.00000000000E+00 -0.00000000000E+00 -0.12430801080E+03  0.12430801080E+03  0.00000000000E+00 0. -1.
         -6    2    1    2    0  503  0.12034561768E+03  0.10749465365E+03  0.24859391420E+02  0.23668910652E+03  0.17136386885E+03 0.  0.
        -24    2    3    3    0    0  0.63480578646E+02  0.10973607463E+03 -0.35064709528E+02  0.15391444550E+03  0.79927046360E+02 0.  0.
          6    2    1    2  501    0 -0.12034561768E+03 -0.10749465365E+03  0.74218086148E+03  0.77896716797E+03  0.17297181673E+03 0.  0.
         24    2    5    5    0    0  0.33306604873E+00 -0.25258682398E+02  0.36098310732E+03  0.37072714367E+03  0.80571082341E+02 0.  0.
          5    1    5    5  501    0 -0.12067868373E+03 -0.82235971251E+02  0.38119775415E+03  0.40824002431E+03  0.47000000000E+01 0. -1.
        -13    1    6    6    0    0 -0.25349118816E+02  0.20074833521E+02  0.13809778922E+03  0.14183291633E+03  0.00000000000E+00 0.  1.
         14    1    6    6    0    0  0.25682184864E+02 -0.45333515919E+02  0.22288531810E+03  0.22889422734E+03  0.00000000000E+00 0. -1.
         -5    1    3    3    0  503  0.56865039037E+02 -0.22414209798E+01  0.59924100948E+02  0.82774661021E+02  0.47000000000E+01 0.  1.
         11    1    4    4    0    0  0.55233944337E+02  0.10030049602E+03  0.22773099917E+01  0.11452582350E+03  0.00000000000E+00 0. -1.
        -12    1    4    4    0    0  0.82466343088E+01  0.94355786114E+01 -0.37342019519E+02  0.39388621999E+02  0.00000000000E+00 0.  1.
</event>
<event>
12    1  0.8358445E-002  0.2731810E+03  0.7818608E-02  0.1099562E+00
         21   -1    0    0  503  502  0.00000000000E+00  0.00000000000E+00  0.34456332501E+03  0.34456332501E+03  0.00000000000E+00 0.  1.
         21   -1    0    0  501  503 -0.00000000000E+00 -0.00000000000E+00 -0.39011156634E+03  0.39011156634E+03  0.00000000000E+00 0.  1.
          6    2    1    2  501    0 -0.16171437469E+03 -0.13642072716E+03  0.22258728090E+03  0.35188970723E+03  0.17181127627E+03 0.  0.
         24    2    3    3    0    0 -0.11814205831E+03 -0.42853196268E+02  0.19363470789E+03  0.24458746552E+03  0.80837403578E+02 0.  0.
         -6    2    1    2    0  502  0.16171437469E+03  0.13642072716E+03 -0.26813552223E+03  0.38278518412E+03  0.17281691213E+03 0.  0.
        -24    2    5    5    0    0  0.11351561602E+03  0.14511474844E+02 -0.11591748322E+03  0.18184388040E+03  0.80832888986E+02 0.  0.
          5    1    3    3  501    0 -0.43572316379E+02 -0.93567530892E+02  0.28952573011E+02  0.10730224171E+03  0.47000000000E+01 0. -1.
        -11    1    4    4    0    0 -0.55638834891E+02 -0.61561858631E+02  0.92823887403E+02  0.12450629084E+03  0.00000000000E+00 0.  1.
         12    1    4    4    0    0 -0.62503223418E+02  0.18708662362E+02  0.10081082048E+03  0.12008117468E+03  0.00000000000E+00 0. -1.
         -5    1    5    5    0  502  0.48198758668E+02  0.12190925232E+03 -0.15221803902E+03  0.20094130372E+03  0.47000000000E+01 0.  1.
         13    1    6    6    0    0 -0.93795042855E+01 -0.89431023603E+01 -0.21493000212E+02  0.25097873189E+02  0.00000000000E+00 0. -1.
        -14    1    6    6    0    0  0.12289512031E+03  0.23454577204E+02 -0.94424483007E+02  0.15674600722E+03  0.00000000000E+00 0.  1.
</event>
<event>
12    1  0.8358445E-002  0.1761562E+03  0.7818608E-02  0.1171845E+00
         21   -1    0    0  503  502  0.00000000000E+00  0.00000000000E+00  0.46731650290E+02  0.46731650290E+02  0.00000000000E+00 0.  1.
         21   -1    0    0  501  503 -0.00000000000E+00 -0.00000000000E+00 -0.66321444396E+03  0.66321444396E+03  0.00000000000E+00 0.  1.
          6    2    1    2  501    0 -0.33175781993E+02 -0.19630495286E+02 -0.33213527498E+03  0.37545463778E+03  0.17078160114E+03 0.  0.
         24    2    3    3    0    0  0.15502535212E+00 -0.67497672937E+02 -0.14196502297E+03  0.17648473009E+03  0.80229871769E+02 0.  0.
         -6    2    1    2    0  502  0.33175781993E+02  0.19630495286E+02 -0.28434751869E+03  0.33449145647E+03  0.17188669004E+03 0.  0.
        -24    2    5    5    0    0  0.88005414102E+02  0.84365280144E+01 -0.20963486686E+03  0.24102668341E+03  0.79567309843E+02 0.  0.
          5    1    3    3  501    0 -0.33330807345E+02  0.47867177652E+02 -0.19017025201E+03  0.19896990769E+03  0.47000000000E+01 0. -1.
        -11    1    4    4    0    0 -0.12356371995E+02 -0.44021536846E+02 -0.14272701181E+03  0.14987186372E+03  0.00000000000E+00 0.  1.
         12    1    4    4    0    0  0.12511397347E+02 -0.23476136091E+02  0.76198884231E+00  0.26612866368E+02  0.00000000000E+00 0. -1.
         -5    1    5    5    0  502 -0.54829632109E+02  0.11193967271E+02 -0.74712651830E+02  0.93464773064E+02  0.47000000000E+01 0.  1.
         13    1    6    6    0    0  0.56084363566E+02  0.26797409663E+02 -0.18868521128E+03  0.19865967370E+03  0.00000000000E+00 0. -1.
        -14    1    6    6    0    0  0.31921050536E+02 -0.18360881648E+02 -0.20949655577E+02  0.42367009701E+02  0.00000000000E+00 0.  1.
</event>
<event>
12    1  0.8358445E-002  0.2709622E+03  0.7818608E-02  0.1100875E+00
         21   -1    0    0  501  502  0.00000000000E+00  0.00000000000E+00  0.31201959693E+02  0.31201959693E+02  0.00000000000E+00 0.  1.
         21   -1    0    0  502  503 -0.00000000000E+00 -0.00000000000E+00 -0.25780793129E+04  0.25780793129E+04  0.00000000000E+00 0.  1.
         -6    2    1    2    0  503 -0.15998857094E+03 -0.13235423838E+03 -0.16641493251E+04  0.16859020059E+04  0.17250683970E+03 0.  0.
        -24    2    3    3    0    0 -0.99531490703E+02 -0.17054388339E+02 -0.10366759496E+04  0.10450478564E+04  0.85033097750E+02 0.  0.
          6    2    1    2  501    0  0.15998857094E+03  0.13235423838E+03 -0.88272802809E+03  0.92337926675E+03  0.17408765451E+03 0.  0.
         24    2    5    5    0    0  0.28463741063E+02  0.44387031518E+02 -0.50644756945E+03  0.51515618569E+03  0.78207173182E+02 0.  0.
          5    1    5    5  501    0  0.13152482987E+03  0.87967206863E+02 -0.37628045864E+03  0.40822308106E+03  0.47000000000E+01 0. -1.
        -13    1    6    6    0    0  0.18104906771E+02  0.15232762505E+02 -0.32503374238E+02  0.40203159572E+02  0.00000000000E+00 0.  1.
         14    1    6    6    0    0  0.10358834292E+02  0.29154269013E+02 -0.47394419521E+03  0.47495302612E+03  0.00000000000E+00 0. -1.
         -5    1    3    3    0  503 -0.60457080234E+02 -0.11529985004E+03 -0.62747337550E+03  0.64085414950E+03  0.47000000000E+01 0.  1.
         13    1    4    4    0    0 -0.35488621007E+02  0.27233417552E+02 -0.20992594768E+03  0.21463924329E+03  0.00000000000E+00 0. -1.
        -14    1    4    4    0    0 -0.64042869696E+02 -0.44287805891E+02 -0.82675000196E+03  0.83040861306E+03  0.00000000000E+00 0.  1.
</event>
<event>
12    1  0.8358445E-002  0.1747404E+03  0.7818608E-02  0.1173303E+00
         21   -1    0    0  501  502  0.00000000000E+00  0.00000000000E+00  0.94871722345E+02  0.94871722345E+02  0.00000000000E+00 0. -1.
         21   -1    0    0  502  503 -0.00000000000E+00 -0.00000000000E+00 -0.54666015871E+03  0.54666015871E+03  0.00000000000E+00 0. -1.
         -6    2    1    2    0  503 -0.12897740280E+02 -0.24602680398E+02 -0.19626156856E+02  0.17583912099E+03  0.17251830874E+03 0.  0.
        -24    2    3    3    0    0  0.18733534174E+02  0.39940979163E+02 -0.41633458107E+02  0.10052091057E+03  0.80155358572E+02 0.  0.
          6    2    1    2  501    0  0.12897740280E+02  0.24602680398E+02 -0.43216227951E+03  0.46569276006E+03  0.17127132673E+03 0.  0.
         24    2    5    5    0    0  0.72792491204E+02  0.94956585589E+01 -0.23126752494E+03  0.25546337175E+03  0.79924663955E+02 0.  0.
          5    1    5    5  501    0 -0.59894750925E+02  0.15107021839E+02 -0.20089475457E+03  0.21022938831E+03  0.47000000000E+01 0. -1.
        -13    1    6    6    0    0  0.16987407230E+02  0.32846030094E+02 -0.38310113898E+02  0.53245643242E+02  0.00000000000E+00 0.  1.
         14    1    6    6    0    0  0.55805083974E+02 -0.23350371535E+02 -0.19295741104E+03  0.20221772851E+03  0.00000000000E+00 0. -1.
         -5    1    3    3    0  503 -0.31631274453E+02 -0.64543659561E+02  0.22007301250E+02  0.75318210423E+02  0.47000000000E+01 0.  1.
         13    1    4    4    0    0 -0.24321649679E+02  0.35693485854E+02 -0.43543056111E+01  0.43411145491E+02  0.00000000000E+00 0. -1.
        -14    1    4    4    0    0  0.43055183853E+02  0.42474933094E+01 -0.37279152496E+02  0.57109765074E+02  0.00000000000E+00 0.  1.
</event>
<event>
12    1  0.8358445E-002  0.1871906E+03  0.7818608E-02  0.1161390E+00
         21   -1    0    0  501  502  0.00000000000E+00  0.00000000000E+00  0.24209675811E+03  0.24209675811E+03  0.00000000000E+00 0.  1.
         21   -1    0    0  502  503 -0.00000000000E+00 -0.00000000000E+00 -0.16190639968E+03  0.16190639968E+03  0.00000000000E+00 0.  1.
         -6    2    1    2    0  503  0.27744250126E+02 -0.69262848341E+02 -0.28164676874E+02  0.18771372407E+03  0.16992971372E+03 0.  0.
        -24    2    3    3    0    0  0.59628415706E+02 -0.72085657039E+02  0.25137237555E+02  0.12536188091E+03  0.79572800391E+02 0.  0.
          6    2    1    2  501    0 -0.27744250126E+02  0.69262848341E+02  0.10835503530E+03  0.21628943372E+03  0.17167766275E+03 0.  0.
         24    2    5    5    0    0 -0.48018288060E+02 -0.23464963352E+02  0.48363164708E+02  0.10390349949E+03  0.74837029683E+02 0.  0.
          5    1    5    5  501    0  0.20274037935E+02  0.92727811694E+02  0.59991870595E+02  0.11238593423E+03  0.47000000000E+01 0. -1.
        -11    1    6    6    0    0 -0.71683030176E+01  0.25362702222E+02  0.48689242314E+01  0.26802194972E+02  0.00000000000E+00 0.  1.
         12    1    6    6    0    0 -0.40849985043E+02 -0.48827665574E+02  0.43494240476E+02  0.77101304516E+02  0.00000000000E+00 0. -1.
         -5    1    3    3    0  503 -0.31884165580E+02  0.28228086975E+01 -0.53301914429E+02  0.62351843160E+02  0.47000000000E+01 0.  1.
         13    1    4    4    0    0 -0.10015099640E+02 -0.46256107031E+02  0.12788580155E+01  0.47345170147E+02  0.00000000000E+00 0. -1.
        -14    1    4    4    0    0  0.69643515346E+02 -0.25829550008E+02  0.23858379540E+02  0.78016710759E+02  0.00000000000E+00 0.  1.
</event>
<event>
12    1  0.8358445E-002  0.1753094E+03  0.7818608E-02  0.1172888E+00
         21   -1    0    0  503  502  0.00000000000E+00  0.00000000000E+00  0.93675414030E+02  0.93675414030E+02  0.00000000000E+00 0. -1.
         21   -1    0    0  501  503 -0.00000000000E+00 -0.00000000000E+00 -0.38041145947E+03  0.38041145947E+03  0.00000000000E+00 0.  1.
          6    2    1    2  501    0 -0.22434920580E+02  0.67424675693E+01 -0.23478887198E+03  0.29301741732E+03  0.17373717482E+03 0.  0.
         24    2    3    3    0    0  0.50400176733E+02 -0.17874884573E+02 -0.15944819506E+03  0.18527108083E+03  0.77730027469E+02 0.  0.
         -6    2    1    2    0  502  0.22434920580E+02 -0.67424675693E+01 -0.51947173455E+02  0.18106945618E+03  0.17186870745E+03 0.  0.
        -24    2    5    5    0    0  0.54408754625E+01 -0.74547086521E+02 -0.29557177167E+02  0.10751902549E+03  0.71413184264E+02 0.  0.
          5    1    3    3  501    0 -0.72835097313E+02  0.24617352142E+02 -0.75340676920E+02  0.10774633649E+03  0.47000000000E+01 0. -1.
        -13    1    4    4    0    0  0.65083128480E+01  0.28918428620E+02 -0.60023321458E+02  0.66943504306E+02  0.00000000000E+00 0.  1.
         14    1    4    4    0    0  0.43891863885E+02 -0.46793313193E+02 -0.99424873605E+02  0.11832757653E+03  0.00000000000E+00 0. -1.
         -5    1    5    5    0  502  0.16994045118E+02  0.67804618951E+02 -0.22389996288E+02  0.73550430688E+02  0.47000000000E+01 0.  1.
         11    1    6    6    0    0 -0.50547579456E+01  0.13380905735E+02 -0.46843018046E+00  0.14311486401E+02  0.00000000000E+00 0. -1.
        -12    1    6    6    0    0  0.10495633408E+02 -0.87927992255E+02 -0.29088746986E+02  0.93207539093E+02  0.00000000000E+00 0.  1.
</event>
<event>
12    1  0.8358445E-002  0.2079839E+03  0.7818608E-02  0.1143188E+00
         21   -1    0    0  503  502  0.00000000000E+00  0.00000000000E+00  0.37475513389E+02  0.37475513389E+02  0.00000000000E+00 0. -1.
         21   -1    0    0  501  503 -0.00000000000E+00 -0.00000000000E+00 -0.11620307800E+04  0.11620307800E+04  0.00000000000E+00 0.  1.
          6    2    1    2  501    0 -0.10212676623E+03  0.56677998295E+02 -0.51205708699E+03  0.55268413420E+03  0.17209015076E+03 0.  0.
         24    2    3    3    0    0 -0.20324631315E+02 -0.18926322477E+02 -0.31711987733E+03  0.32811742183E+03  0.79528168528E+02 0.  0.
         -6    2    1    2    0  502  0.10212676623E+03 -0.56677998295E+02 -0.61249817958E+03  0.64682215915E+03  0.17199597002E+03 0.  0.
        -24    2    5    5    0    0  0.11504952499E+03 -0.80142081215E+02 -0.38024580279E+03  0.41298286090E+03  0.79428121425E+02 0.  0.
          5    1    3    3  501    0 -0.81802134911E+02  0.75604320772E+02 -0.19493720966E+03  0.22456671237E+03  0.47000000000E+01 0. -1.
        -11    1    4    4    0    0  0.18159941052E+02 -0.10391424295E+02 -0.21940356240E+02  0.30317394180E+02  0.00000000000E+00 0.  1.
         12    1    4    4    0    0 -0.38484572367E+02 -0.85348981814E+01 -0.29517952109E+03  0.29780002765E+03  0.00000000000E+00 0. -1.
         -5    1    5    5    0  502 -0.12922758766E+02  0.23464082920E+02 -0.23225237679E+03  0.23383929825E+03  0.47000000000E+01 0.  1.
         13    1    6    6    0    0  0.13356164582E+02 -0.46184785247E+02 -0.71578764366E+02  0.86226104103E+02  0.00000000000E+00 0. -1.
        -14    1    6    6    0    0  0.10169336041E+03 -0.33957295968E+02 -0.30866703843E+03  0.32675675680E+03  0.00000000000E+00 0.  1.
</event>
<event>
12    1  0.8358445E-002  0.2182909E+03  0.7818608E-02  0.1135209E+00
         21   -1    0    0  501  502  0.00000000000E+00  0.00000000000E+00  0.13258686597E+04  0.13258686597E+04  0.00000000000E+00 0.  1.
         21   -1    0    0  502  503 -0.00000000000E+00 -0.00000000000E+00 -0.49441242451E+02  0.49441242451E+02  0.00000000000E+00 0.  1.
         -6    2    1    2    0  503 -0.12905025724E+03  0.41452223672E+02  0.27859135616E+03  0.35392661421E+03  0.17111004873E+03 0.  0.
        -24    2    3    3    0    0 -0.14648744694E+02 -0.15411472055E+02  0.14494381005E+03  0.16898083148E+03  0.84224189794E+02 0.  0.
          6    2    1    2  501    0  0.12905025724E+03 -0.41452223672E+02  0.99783606112E+03  0.10213832880E+04  0.17080620699E+03 0.  0.
         24    2    5    5    0    0  0.14463138638E+03 -0.26653361959E+02  0.59305039127E+03  0.61600037466E+03  0.78224391117E+02 0.  0.
          5    1    5    5  501    0 -0.15581129143E+02 -0.14798861713E+02  0.40478566985E+03  0.40538291331E+03  0.47000000000E+01 0. -1.
        -11    1    6    6    0    0  0.10018427559E+03  0.41691803916E+01  0.48394524994E+03  0.49422391290E+03  0.00000000000E+00 0.  1.
         12    1    6    6    0    0  0.44447110791E+02 -0.30822542350E+02  0.10910514133E+03  0.12177646176E+03  0.00000000000E+00 0. -1.
         -5    1    3    3    0  503 -0.11440151254E+03  0.56863695727E+02  0.13364754612E+03  0.18494578272E+03  0.47000000000E+01 0.  1.
         11    1    4    4    0    0 -0.16348891031E+02 -0.49710472974E+02  0.81901455914E+02  0.97191902142E+02  0.00000000000E+00 0. -1.
        -12    1    4    4    0    0  0.17001463371E+01  0.34299000918E+02  0.63042354132E+02  0.71788929342E+02  0.00000000000E+00 0.  1.
</event>
<event>
12    1  0.8358445E-002  0.2030182E+03  0.7818608E-02  0.1147474E+00
         21   -1    0    0  501  502  0.00000000000E+00  0.00000000000E+00  0.35574255079E+03  0.35574255079E+03  0.00000000000E+00 0. -1.
         21   -1    0    0  502  503 -0.00000000000E+00 -0.00000000000E+00 -0.14734916722E+03  0.14734916722E+03  0.00000000000E+00 0.  1.
         -6    2    1    2    0  503 -0.25549626691E+02  0.99962548677E+02 -0.13131486337E+02  0.20344239453E+03  0.17484586754E+03 0.  0.
        -24    2    3    3    0    0 -0.41967264515E+02  0.13371675629E+03 -0.26268395176E+02  0.16339799745E+03  0.79796333152E+02 0.  0.
          6    2    1    2  501    0  0.25549626691E+02 -0.99962548677E+02  0.22152486991E+03  0.29964932348E+03  0.17341036449E+03 0.  0.
         24    2    5    5    0    0  0.45994050405E+02 -0.51078307744E+02  0.32150253809E+02  0.10294528515E+03  0.69567569451E+02 0.  0.
          5    1    5    5  501    0 -0.20444423714E+02 -0.48884240932E+02  0.18937461610E+03  0.19670403833E+03  0.47000000000E+01 0. -1.
        -13    1    6    6    0    0  0.16893673692E+02 -0.55605393595E+01 -0.20753060804E+02  0.27331398455E+02  0.00000000000E+00 0.  1.
         14    1    6    6    0    0  0.29100376714E+02 -0.45517768385E+02  0.52903314613E+02  0.75613886692E+02  0.00000000000E+00 0. -1.
         -5    1    3    3    0  503  0.16417637824E+02 -0.33754207609E+02  0.13136908839E+02  0.40044397072E+02  0.47000000000E+01 0.  1.
         11    1    4    4    0    0  0.36676001001E+01  0.22090459271E+02  0.23929931423E+02  0.32773179571E+02  0.00000000000E+00 0. -1.
        -12    1    4    4    0    0 -0.45634864615E+02  0.11162629701E+03 -0.50198326599E+02  0.13062481788E+03  0.00000000000E+00 0.  1.
</event>
<event>
12    1  0.8358445E-002  0.1996626E+03  0.7818608E-02  0.1150957E+00
         21   -1    0    0  503  502  0.00000000000E+00  0.00000000000E+00  0.82954872576E+02  0.82954872576E+02  0.00000000000E+00 0.  1.
         21   -1    0    0  501  503 -0.00000000000E+00 -0.00000000000E+00 -0.47164159127E+03  0.47164159127E+03  0.00000000000E+00 0.  1.
          6    2    1    2  501    0  0.88983186079E+02 -0.32973927006E+01 -0.21223004758E+03  0.29138762789E+03  0.17870723653E+03 0.  0.
         24    2    3    3    0    0  0.67953779964E+02  0.33050243687E+02 -0.22219328796E+03  0.24797400386E+03  0.80070060287E+02 0.  0.
         -6    2    1    2    0  502 -0.88983186079E+02  0.32973927006E+01 -0.17645667112E+03  0.26320883596E+03  0.17381902756E+03 0.  0.
        -24    2    5    5    0    0 -0.95999364401E+02 -0.55726162306E+01 -0.20048259030E+03  0.23624147404E+03  0.79811233728E+02 0.  0.
          5    1    3    3  501    0  0.21029406115E+02 -0.36347636387E+02  0.99632403860E+01  0.43413624030E+02  0.47000000000E+01 0. -1.
        -13    1    4    4    0    0  0.43414086100E+02 -0.19763828591E+02 -0.67266377544E+02  0.82463066523E+02  0.00000000000E+00 0.  1.
         14    1    4    4    0    0  0.24539693864E+02  0.52814072278E+02 -0.15492691042E+03  0.16551093734E+03  0.00000000000E+00 0. -1.
         -5    1    5    5    0  502  0.70161783221E+01  0.88700089312E+01  0.24025919174E+02  0.26967361919E+02  0.47000000000E+01 0.  1.
         13    1    6    6    0    0 -0.16956345153E+01 -0.18475630729E+02 -0.56378882763E+01  0.19390974485E+02  0.00000000000E+00 0. -1.
        -14    1    6    6    0    0 -0.94303729886E+02  0.12903014499E+02 -0.19484470202E+03  0.21685049956E+03  0.00000000000E+00 0.  1.
</event>
<event>
12    1  0.8358445E-002  0.1903675E+03  0.7818608E-02  0.1158496E+00
         21   -1    0    0  501  502  0.00000000000E+00  0.00000000000E+00  0.10658164582E+03  0.10658164582E+03  0.00000000000E+00 0. -1.
         21   -1    0    0  502  503 -0.00000000000E+00 -0.00000000000E+00 -0.35399345528E+03  0.35399345528E+03  0.00000000000E+00 0. -1.
         -6    2    1    2    0  503  0.54915560453E+02  0.58832765793E+02 -0.17345512118E+03  0.25634632631E+03  0.17073296940E+03 0.  0.
        -24    2    3    3    0    0  0.33513877135E+02 -0.89794551950E+01 -0.16233846109E+03  0.18422005166E+03  0.79871402310E+02 0.  0.
          6    2    1    2  501    0 -0.54915560453E+02 -0.58832765793E+02 -0.73956688286E+02  0.20422877479E+03  0.17251894852E+03 0.  0.
         24    2    5    5    0    0 -0.32097342717E+02 -0.37149326356E+02 -0.11708991631E+03  0.15062459616E+03  0.81039549657E+02 0.  0.
          5    1    5    5  501    0 -0.22818217735E+02 -0.21683439437E+02  0.43133228025E+02  0.53604178627E+02  0.47000000000E+01 0. -1.
        -13    1    6    6    0    0  0.25730732288E+02 -0.26424117834E+01 -0.45509257338E+02  0.52346398420E+02  0.00000000000E+00 0.  1.
         14    1    6    6    0    0 -0.57828075005E+02 -0.34506914573E+02 -0.71580658972E+02  0.98278197740E+02  0.00000000000E+00 0. -1.
         -5    1    3    3    0  503  0.21401683318E+02  0.67812220988E+02 -0.11116660087E+02  0.72126274656E+02  0.47000000000E+01 0.  1.
         13    1    4    4    0    0  0.27189374646E+02  0.29054633543E+02 -0.42005569781E+02  0.57861055267E+02  0.00000000000E+00 0. -1.
        -14    1    4    4    0    0  0.63245024891E+01 -0.38034088738E+02 -0.12033289131E+03  0.12635899639E+03  0.00000000000E+00 0.  1.
</event>
<event>
12    1  0.8358445E-002  0.2115489E+03  0.7818608E-02  0.1140738E+00
         21   -1    0    0  501  502  0.00000000000E+00  0.00000000000E+00  0.70011430909E+02  0.70011430909E+02  0.00000000000E+00 0.  1.
         21   -1    0    0  502  503 -0.00000000000E+00 -0.00000000000E+00 -0.10181539586E+04  0.10181539586E+04  0.00000000000E+00 0.  1.
         -6    2    1    2    0  503 -0.25422676106E+02  0.11627388088E+03 -0.80721917541E+03  0.83397586614E+03  0.17247324522E+03 0.  0.
        -24    2    3    3    0    0 -0.22251954402E+01 -0.60076640897E+01 -0.35047572036E+03  0.36055472901E+03  0.84412312648E+02 0.  0.
          6    2    1    2  501    0  0.25422676106E+02 -0.11627388088E+03 -0.14092335225E+03  0.25418952334E+03  0.17489137981E+03 0.  0.
         24    2    5    5    0    0  0.54037106710E+02 -0.87297291951E+02 -0.16477379260E+03  0.20676208562E+03  0.71128976067E+02 0.  0.
          5    1    5    5  501    0 -0.28614430604E+02 -0.28976588925E+02  0.23850440349E+02  0.47427437727E+02  0.47000000000E+01 0. -1.
        -11    1    6    6    0    0 -0.67687281320E+01 -0.34014064757E+02 -0.90725249815E+02  0.97127973498E+02  0.00000000000E+00 0.  1.
         12    1    6    6    0    0  0.60805834842E+02 -0.53283227194E+02 -0.74048542786E+02  0.10963411212E+03  0.00000000000E+00 0. -1.
         -5    1    3    3    0  503 -0.23197480666E+02  0.12228154497E+03 -0.45674345505E+03  0.47342113713E+03  0.47000000000E+01 0.  1.
         11    1    4    4    0    0 -0.20388738683E+02  0.45244080200E+01 -0.18453747196E+02  0.27869548231E+02  0.00000000000E+00 0. -1.
        -12    1    4    4    0    0  0.18163543243E+02 -0.10532072110E+02 -0.33202197316E+03  0.33268518078E+03  0.00000000000E+00 0.  1.
</event>
<event>
12    1  0.8358445E-002  0.2153928E+03  0.7818608E-02  0.1137555E+00
         21   -1    0    0  503  502  0.00000000000E+00  0.00000000000E+00  0.31695285353E+02  0.31695285353E+02  0.00000000000E+00 0. -1.
         21   -1    0    0  501  503 -0.00000000000E+00 -0.00000000000E+00 -0.14575524193E+04  0.14575524193E+04  0.00000000000E+00 0. -1.
          6    2    1    2  501    0 -0.10347288197E+03 -0.77348468649E+02 -0.69757047466E+03  0.72977716621E+03  0.17111610767E+03 0.  0.
         24    2    3    3    0    0 -0.93762263485E+02  0.65082834308E+01 -0.49688944611E+03  0.51201303647E+03  0.80153029000E+02 0.  0.
         -6    2    1    2    0  502  0.10347288197E+03  0.77348468649E+02 -0.72828665927E+03  0.75947053842E+03  0.17235027634E+03 0.  0.
        -24    2    5    5    0    0  0.19615886778E+02  0.63740692378E+02 -0.58139568811E+03  0.58971714486E+03  0.72785341287E+02 0.  0.
          5    1    3    3  501    0 -0.97106184891E+01 -0.83856752080E+02 -0.20068102855E+03  0.21776412974E+03  0.47000000000E+01 0. -1.
        -11    1    4    4    0    0 -0.18366248314E+02  0.11543944332E+02 -0.30516331960E+03  0.30593338059E+03  0.00000000000E+00 0.  1.
         12    1    4    4    0    0 -0.75396015171E+02 -0.50356609010E+01 -0.19172612650E+03  0.20607965588E+03  0.00000000000E+00 0. -1.
         -5    1    5    5    0  502  0.83856995197E+02  0.13607776271E+02 -0.14689097115E+03  0.16975339356E+03  0.47000000000E+01 0.  1.
         13    1    6    6    0    0  0.22655528667E+02 -0.10035908448E+02 -0.13483091142E+03  0.13708890222E+03  0.00000000000E+00 0. -1.
        -14    1    6    6    0    0 -0.30396418898E+01  0.73776600826E+02 -0.44656477669E+03  0.45262824264E+03  0.00000000000E+00 0.  1.
</event>
<event>
12    1  0.8358445E-002  0.1889851E+03  0.7818608E-02  0.1160242E+00
         21   -1    0    0  503  502  0.00000000000E+00  0.00000000000E+00  0.10291520354E+03  0.10291520354E+03  0.00000000000E+00 0.  1.
         21   -1    0    0  501  503 -0.00000000000E+00 -0.00000000000E+00 -0.48745712443E+03  0.48745712443E+03  0.00000000000E+00 0.  1.
          6    2    1    2  501    0 -0.19264793308E+01 -0.76785754811E+02 -0.35317534730E+03  0.39880194282E+03  0.16855384953E+03 0.  0.
         24    2    3    3    0    0  0.11268057381E+02 -0.92934972435E+02 -0.14585990972E+03  0.19038727518E+03  0.78792912550E+02 0.  0.
         -6    2    1    2    0  502  0.19264793308E+01  0.76785754811E+02 -0.31366573598E+02  0.19157038515E+03  0.17267190583E+03 0.  0.
        -24    2    5    5    0    0  0.49322354154E+02  0.99240115939E+02 -0.16875123741E+02  0.13695665608E+03  0.78683293092E+02 0.  0.
          5    1    3    3  501    0 -0.13194536712E+02  0.16149217625E+02 -0.20731543758E+03  0.20841466764E+03  0.47000000000E+01 0. -1.
        -11    1    4    4    0    0  0.34948693504E+02 -0.48352484701E+02 -0.11920431779E+03  0.13330057514E+03  0.00000000000E+00 0.  1.
         12    1    4    4    0    0 -0.23680636122E+02 -0.44582487734E+02 -0.26655591932E+02  0.57086700035E+02  0.00000000000E+00 0. -1.
         -5    1    5    5    0  502 -0.47395874823E+02 -0.22454361129E+02 -0.14491449857E+02  0.54613729070E+02  0.47000000000E+01 0.  1.
         11    1    6    6    0    0  0.22576657768E+01  0.16877317147E+02 -0.36328406918E+02  0.40120992485E+02  0.00000000000E+00 0. -1.
        -12    1    6    6    0    0  0.47064688377E+02  0.82362798793E+02  0.19453283177E+02  0.96835663592E+02  0.00000000000E+00 0.  1.
</event>
<event>
12    1  0.8358445E-002  0.1756915E+03  0.7818608E-02  0.1173309E+00
         21   -1    0    0  503  502  0.00000000000E+00  0.00000000000E+00  0.10035658604E+04  0.10035658604E+04  0.00000000000E+00 0.  1.
         21   -1    0    0  501  503 -0.00000000000E+00 -0.00000000000E+00 -0.30231653247E+02  0.30231653247E+02  0.00000000000E+00 0.  1.
          6    2    1    2  501    0 -0.35220952256E+01  0.77471411039E+01  0.42455949385E+03  0.45758470247E+03  0.17047161866E+03 0.  0.
         24    2    3    3    0    0  0.59778603251E+02  0.29149765556E+02  0.28255578700E+03  0.30057453235E+03  0.78000554449E+02 0.  0.
         -6    2    1    2    0  502  0.35220952256E+01 -0.77471411039E+01  0.54877471329E+03  0.57621281116E+03  0.17548531121E+03 0.  0.
        -24    2    5    5    0    0  0.21601290838E+02 -0.70892773654E+02  0.37199915634E+03  0.38757051538E+03  0.79593535855E+02 0.  0.
          5    1    3    3  501    0 -0.63300698477E+02 -0.21402624452E+02  0.14200370685E+03  0.15701017012E+03  0.47000000000E+01 0. -1.
        -13    1    4    4    0    0 -0.23223448981E+01 -0.19789929596E+02  0.30702463328E+02  0.36601582666E+02  0.00000000000E+00 0.  1.
         14    1    4    4    0    0  0.62100948149E+02  0.48939695153E+02  0.25185332367E+03  0.26397294969E+03  0.00000000000E+00 0. -1.
         -5    1    5    5    0  502 -0.18079195612E+02  0.63145632550E+02  0.17677555695E+03  0.18864229578E+03  0.47000000000E+01 0.  1.
         13    1    6    6    0    0  0.13593695596E+02 -0.91184203124E+01  0.25049729373E+03  0.25103152852E+03  0.00000000000E+00 0. -1.
        -14    1    6    6    0    0  0.80075952419E+01 -0.61774353342E+02  0.12150186262E+03  0.13653898686E+03  0.00000000000E+00 0.  1.
</event>
<event>
12    1  0.8358445E-002  0.2508772E+03  0.7818608E-02  0.1112788E+00
         21   -1    0    0  501  502  0.00000000000E+00  0.00000000000E+00  0.39663233717E+03  0.39663233717E+03  0.00000000000E+00 0.  1.
         21   -1    0    0  502  503 -0.00000000000E+00 -0.00000000000E+00 -0.22580991195E+03  0.22580991195E+03  0.00000000000E+00 0.  1.
         -6    2    1    2    0  503 -0.22457093830E+02 -0.18036040137E+03 -0.84482414317E+02  0.26450382876E+03  0.17260012066E+03 0.  0.
        -24    2    3    3    0    0 -0.61103532798E+02 -0.78675206506E+02  0.84474698130E+01  0.12135537622E+03  0.68791989008E+02 0.  0.
          6    2    1    2  501    0  0.22457093830E+02  0.18036040137E+03  0.25530483954E+03  0.35793842037E+03  0.17293107366E+03 0.  0.
         24    2    5    5    0    0 -0.93894513277E+01  0.14145242308E+03  0.26038289814E+03  0.30718499790E+03  0.80414050376E+02 0.  0.
          5    1    5    5  501    0  0.31846545158E+02  0.38907978293E+02 -0.50780586011E+01  0.50753422470E+02  0.47000000000E+01 0. -1.
        -11    1    6    6    0    0  0.35457065355E+02  0.69382818184E+02  0.13186884867E+03  0.15316844386E+03  0.00000000000E+00 0.  1.
         12    1    6    6    0    0 -0.44846516683E+02  0.72069604896E+02  0.12851404947E+03  0.15401655404E+03  0.00000000000E+00 0. -1.
         -5    1    3    3    0  503  0.38646438967E+02 -0.10168519487E+03 -0.92929884130E+02  0.14314845254E+03  0.47000000000E+01 0.  1.
         13    1    4    4    0    0 -0.52610435282E+02 -0.32741349119E+02 -0.21817876245E+02  0.65695308558E+02  0.00000000000E+00 0. -1.
        -14    1    4    4    0    0 -0.84930975151E+01 -0.45933857388E+02  0.30265346058E+02  0.55660067660E+02  0.00000000000E+00 0.  1.
</event>
<event>
12    1  0.8358445E-002  0.2243666E+03  0.7818608E-02  0.1130999E+00
         21   -1    0    0  503  502  0.00000000000E+00  0.00000000000E+00  0.28293179780E+02  0.28293179780E+02  0.00000000000E+00 0.  1.
         21   -1    0    0  501  503 -0.00000000000E+00 -0.00000000000E+00 -0.18081815949E+04  0.18081815949E+04  0.00000000000E+00 0.  1.
          6    2    1    2  501    0 -0.10859376770E+03  0.94438648173E+02 -0.10354638567E+04  0.10594931709E+04  0.17213110151E+03 0.  0.
         24    2    3    3    0    0 -0.48585204600E+02  0.12484482740E+03 -0.67908978358E+03  0.69679476543E+03  0.80082819154E+02 0.  0.
         -6    2    1    2    0  502  0.10859376770E+03 -0.94438648173E+02 -0.74442455849E+03  0.77698160380E+03  0.16976814986E+03 0.  0.
        -24    2    5    5    0    0  0.17771057207E+02  0.90723562936E+01 -0.32908059624E+03  0.33937905608E+03  0.80535624198E+02 0.  0.
          5    1    3    3  501    0 -0.60008563103E+02 -0.30406179226E+02 -0.35637407307E+03  0.36269840548E+03  0.47000000000E+01 0. -1.
        -13    1    4    4    0    0  0.19237735738E+02  0.21294829703E+02 -0.78494222899E+02  0.83575733780E+02  0.00000000000E+00 0.  1.
         14    1    4    4    0    0 -0.67822940338E+02  0.10354999770E+03 -0.60059556069E+03  0.61321903165E+03  0.00000000000E+00 0. -1.
         -5    1    5    5    0  502  0.90822710496E+02 -0.10351100447E+03 -0.41534396226E+03  0.43760254772E+03  0.47000000000E+01 0.  1.
         13    1    6    6    0    0  0.15738328118E+02 -0.27433268023E+02 -0.59995648568E+02  0.67821508487E+02  0.00000000000E+00 0. -1.
        -14    1    6    6    0    0  0.20327290891E+01  0.36505624316E+02 -0.26908494767E+03  0.27155754760E+03  0.00000000000E+00 0.  1.
</event>
<event>
12    1  0.8358445E-002  0.2086884E+03  0.7818608E-02  0.1142821E+00
         21   -1    0    0  501  502  0.00000000000E+00  0.00000000000E+00  0.51314017914E+02  0.51314017914E+02  0.00000000000E+00 0. -1.
         21   -1    0    0  502  503 -0.00000000000E+00 -0.00000000000E+00 -0.10175624316E+04  0.10175624316E+04  0.00000000000E+00 0. -1.
         -6    2    1    2    0  503 -0.88231773680E+02  0.75033978346E+02 -0.70256818684E+03  0.73260556837E+03  0.17231923242E+03 0.  0.
        -24    2    3    3    0    0 -0.56298189768E+02  0.11715863146E+03 -0.55110086217E+03  0.57211045747E+03  0.81869311509E+02 0.  0.
          6    2    1    2  501    0  0.88231773680E+02 -0.75033978346E+02 -0.26368022689E+03  0.33627088118E+03  0.17359694607E+03 0.  0.
         24    2    5    5    0    0  0.10720693067E+03 -0.43928874681E+02 -0.11027608162E+03  0.17852898490E+03  0.79301401360E+02 0.  0.
          5    1    5    5  501    0 -0.18975156989E+02 -0.31105103664E+02 -0.15340414527E+03  0.15774189628E+03  0.47000000000E+01 0. -1.
        -11    1    6    6    0    0  0.28129282664E+02 -0.23861439295E+02 -0.85735506187E+02  0.93333819431E+02  0.00000000000E+00 0.  1.
         12    1    6    6    0    0  0.79077648005E+02 -0.20067435387E+02 -0.24540575438E+02  0.85195165472E+02  0.00000000000E+00 0. -1.
         -5    1    3    3    0  503 -0.31933583913E+02 -0.42124653115E+02 -0.15146732467E+03  0.16049511090E+03  0.47000000000E+01 0.  1.
         13    1    4    4    0    0 -0.30709902935E+02  0.37869693992E+02 -0.36460225287E+03  0.36784781454E+03  0.00000000000E+00 0. -1.
        -14    1    4    4    0    0 -0.25588286833E+02  0.79288937469E+02 -0.18649860930E+03  0.20426264293E+03  0.00000000000E+00 0.  1.
</event>
<event>
12    1  0.8358445E-002  0.1969082E+03  0.7818608E-02  0.1152534E+00
         21   -1    0    0  503  502  0.00000000000E+00  0.00000000000E+00  0.99241614495E+03  0.99241614495E+03  0.00000000000E+00 0. -1.
         21   -1    0    0  501  503 -0.00000000000E+00 -0.00000000000E+00 -0.73268229409E+02  0.73268229409E+02  0.00000000000E+00 0. -1.
          6    2    1    2  501    0 -0.94287304472E+02  0.18982917739E+02  0.95213421739E+02  0.21871999575E+03  0.17182081920E+03 0.  0.
         24    2    3    3    0    0 -0.12182042653E+03 -0.50758630726E+01  0.10535085344E+03  0.18048708760E+03  0.81306861728E+02 0.  0.
         -6    2    1    2    0  502  0.94287304472E+02 -0.18982917739E+02  0.82393449380E+03  0.84696437861E+03  0.17096830586E+03 0.  0.
        -24    2    5    5    0    0  0.43872737441E+01 -0.15008564477E+02  0.61118235888E+03  0.61591595961E+03  0.74592816792E+02 0.  0.
          5    1    3    3  501    0  0.27533122054E+02  0.24058780811E+02 -0.10137431700E+02  0.38232908151E+02  0.47000000000E+01 0. -1.
        -13    1    4    4    0    0 -0.20132898158E+02 -0.24265301010E+02  0.59424752082E+02  0.67271387538E+02  0.00000000000E+00 0.  1.
         14    1    4    4    0    0 -0.10168752837E+03  0.19189437937E+02  0.45926101357E+02  0.11321570006E+03  0.00000000000E+00 0. -1.
         -5    1    5    5    0  502  0.89900030728E+02 -0.39743532615E+01  0.21275213492E+03  0.23104841900E+03  0.47000000000E+01 0.  1.
         13    1    6    6    0    0  0.34049488244E+02 -0.17644022759E+01  0.46107084661E+03  0.46232975932E+03  0.00000000000E+00 0. -1.
        -14    1    6    6    0    0 -0.29662214500E+02 -0.13244162201E+02  0.15011151228E+03  0.15358620029E+03  0.00000000000E+00 0.  1.
</event>
<event>
12    1  0.8358445E-002  0.2080009E+03  0.7818608E-02  0.1143565E+00
         21   -1    0    0  503  502  0.00000000000E+00  0.00000000000E+00  0.12456302424E+03  0.12456302424E+03  0.00000000000E+00 0. -1.
         21   -1    0    0  501  503 -0.00000000000E+00 -0.00000000000E+00 -0.13658960050E+04  0.13658960050E+04  0.00000000000E+00 0.  1.
          6    2    1    2  501    0  0.29031112333E+02 -0.11248689774E+03 -0.12645042857E+04  0.12811714685E+04  0.17009742919E+03 0.  0.
         24    2    3    3    0    0  0.46403066485E+02 -0.13619188556E+03 -0.11837173836E+04  0.11950766092E+04  0.79497065294E+02 0.  0.
         -6    2    1    2    0  502 -0.29031112333E+02  0.11248689774E+03  0.23171304927E+02  0.20928756079E+03  0.17253482571E+03 0.  0.
        -24    2    5    5    0    0  0.11566481647E+02 -0.62377652416E+01  0.19652420231E+02  0.83676324087E+02  0.80267156290E+02 0.  0.
          5    1    3    3  501    0 -0.17371954151E+02  0.23704987818E+02 -0.80786902097E+02  0.86094859248E+02  0.47000000000E+01 0. -1.
        -13    1    4    4    0    0  0.20417589149E+02  0.36698096452E+01 -0.10597018571E+03  0.10798159893E+03  0.00000000000E+00 0.  1.
         14    1    4    4    0    0  0.25985477336E+02 -0.13986169520E+03 -0.10777471979E+04  0.10870950103E+04  0.00000000000E+00 0. -1.
         -5    1    5    5    0  502 -0.40597593981E+02  0.11872466298E+03  0.35188846960E+01  0.12561123670E+03  0.47000000000E+01 0.  1.
         11    1    6    6    0    0 -0.33500267661E+02  0.70482032989E+01  0.60653771036E+01  0.34766850626E+02  0.00000000000E+00 0. -1.
        -12    1    6    6    0    0  0.45066749308E+02 -0.13285968540E+02  0.13587043127E+02  0.48909473460E+02  0.00000000000E+00 0.  1.
</event>
<event>
12    1  0.8358445E-002  0.2335672E+03  0.7818608E-02  0.1124647E+00
         21   -1    0    0  503  502  0.00000000000E+00  0.00000000000E+00  0.70527872692E+03  0.70527872692E+03  0.00000000000E+00 0.  1.
         21   -1    0    0  501  503 -0.00000000000E+00 -0.00000000000E+00 -0.85084417704E+02  0.85084417704E+02  0.00000000000E+00 0. -1.
          6    2    1    2  501    0  0.15022024852E+03 -0.39676151065E+02  0.18563975509E+03  0.29835505393E+03  0.17439409253E+03 0.  0.
         24    2    3    3    0    0  0.16845651417E+02 -0.15384748670E+02  0.41100435577E+02  0.10013154304E+03  0.88411614874E+02 0.  0.
         -6    2    1    2    0  502 -0.15022024852E+03  0.39676151065E+02  0.43455455412E+03  0.49200809069E+03  0.17056957749E+03 0.  0.
        -24    2    5    5    0    0 -0.15642924012E+03  0.60323654163E+02  0.27830359317E+03  0.33420655787E+03  0.78307617359E+02 0.  0.
          5    1    3    3  501    0  0.13337459710E+03 -0.24291402396E+02  0.14453931952E+03  0.19822351089E+03  0.47000000000E+01 0. -1.
        -13    1    4    4    0    0 -0.28742423165E+02  0.82932437561E+01  0.38417712344E+02  0.48691122426E+02  0.00000000000E+00 0.  1.
         14    1    4    4    0    0  0.45588074582E+02 -0.23677992426E+02  0.26827232331E+01  0.51440420618E+02  0.00000000000E+00 0. -1.
         -5    1    5    5    0  502  0.62089916012E+01 -0.20647503097E+02  0.15625096095E+03  0.15780153282E+03  0.47000000000E+01 0.  1.
         11    1    6    6    0    0 -0.11310227040E+02  0.29791687904E+02  0.24272372897E+02  0.40057633354E+02  0.00000000000E+00 0. -1.
        -12    1    6    6    0    0 -0.14511901308E+03  0.30531966259E+02  0.25403122027E+03  0.29414892452E+03  0.00000000000E+00 0.  1.
</event>
<event>
12    1  0.8358445E-002  0.2561533E+03  0.7818608E-02  0.1109920E+00
         21   -1    0    0  503  502  0.00000000000E+00  0.00000000000E+00  0.22167287654E+03  0.22167287654E+03  0.00000000000E+00 0. -1.
         21   -1    0    0  501  503 -0.00000000000E+00 -0.00000000000E+00 -0.63082520655E+03  0.63082520655E+03  0.00000000000E+00 0. -1.
          6    2    1    2  501    0 -0.16026492475E+03  0.94809989361E+02  0.10696062509E+03  0.27758794099E+03  0.17589971426E+03 0.  0.
         24    2    3    3    0    0 -0.13959519231E+03  0.10601007293E+03  0.27567816949E+02  0.19465430671E+03  0.80033501166E+02 0.  0.
         -6    2    1    2    0  502  0.16026492475E+03 -0.94809989361E+02 -0.51611295510E+03  0.57491014210E+03  0.17168374671E+03 0.  0.
        -24    2    5    5    0    0  0.18062101325E+03 -0.57435282707E+02 -0.46340716085E+03  0.50700410567E+03  0.79901215944E+02 0.  0.
          5    1    3    3  501    0 -0.20669732435E+02 -0.11200083567E+02  0.79392808141E+02  0.82933634283E+02  0.47000000000E+01 0. -1.
        -11    1    4    4    0    0 -0.69926064384E+02  0.66581084028E+01  0.11391400243E+00  0.70242422112E+02  0.00000000000E+00 0.  1.
         12    1    4    4    0    0 -0.69669127930E+02  0.99351964526E+02  0.27453902947E+02  0.12441188460E+03  0.00000000000E+00 0. -1.
         -5    1    5    5    0  502 -0.20356088504E+02 -0.37374706655E+02 -0.52705794248E+02  0.67906036433E+02  0.47000000000E+01 0.  1.
         13    1    6    6    0    0  0.12987577923E+03 -0.22750182156E+02 -0.22487796047E+03  0.26068253858E+03  0.00000000000E+00 0. -1.
        -14    1    6    6    0    0  0.50745234027E+02 -0.34685100551E+02 -0.23852920038E+03  0.24632156709E+03  0.00000000000E+00 0.  1.
</event>
<event>
12    1  0.8358445E-002  0.2113089E+03  0.7818608E-02  0.1140782E+00
         21   -1    0    0  503  502  0.00000000000E+00  0.00000000000E+00  0.24922190996E+02  0.24922190996E+02  0.00000000000E+00 0.  1.
         21   -1    0    0  501  503 -0.00000000000E+00 -0.00000000000E+00 -0.18144544627E+04  0.18144544627E+04  0.00000000000E+00 0.  1.
          6    2    1    2  501    0  0.88766300333E+02 -0.84129969187E+02 -0.10223151755E+04  0.10439251641E+04  0.17231982595E+03 0.  0.
         24    2    3    3    0    0  0.52182615193E+02 -0.12127373816E+03 -0.66281386917E+03  0.68063285089E+03  0.80675322448E+02 0.  0.
         -6    2    1    2    0  502 -0.88766300333E+02  0.84129969187E+02 -0.76721709625E+03  0.79545148963E+03  0.17077380299E+03 0.  0.
        -24    2    5    5    0    0 -0.75946453284E+02  0.12517524205E+03 -0.59782093428E+03  0.62061953433E+03  0.79636875527E+02 0.  0.
          5    1    3    3  501    0  0.36583685140E+02  0.37143768972E+02 -0.35950130630E+03  0.36329231319E+03  0.47000000000E+01 0. -1.
        -13    1    4    4    0    0  0.39924135301E+02 -0.85629729207E+01 -0.20102816976E+03  0.20513309368E+03  0.00000000000E+00 0.  1.
         14    1    4    4    0    0  0.12258479892E+02 -0.11271076524E+03 -0.46178569940E+03  0.47549975721E+03  0.00000000000E+00 0. -1.
         -5    1    5    5    0  502 -0.12819847048E+02 -0.41045272864E+02 -0.16939616197E+03  0.17483195529E+03  0.47000000000E+01 0.  1.
         11    1    6    6    0    0 -0.80357024065E+01  0.67493252244E+02 -0.36614129383E+03  0.37239677584E+03  0.00000000000E+00 0. -1.
        -12    1    6    6    0    0 -0.67910750878E+02  0.57681989807E+02 -0.23167964045E+03  0.24822275849E+03  0.00000000000E+00 0.  1.
</event>
<event>
12    1  0.8358445E-002  0.2187717E+03  0.7818608E-02  0.1135373E+00
         21   -1    0    0  501  502  0.00000000000E+00  0.00000000000E+00  0.17361933518E+03  0.17361933518E+03  0.00000000000E+00 0. -1.
         21   -1    0    0  502  503 -0.00000000000E+00 -0.00000000000E+00 -0.27282002102E+03  0.27282002102E+03  0.00000000000E+00 0. -1.
         -6    2    1    2    0  503  0.13093593583E+03  0.14222807799E+02 -0.36828738719E+02  0.22184993820E+03  0.17468409066E+03 0.  0.
        -24    2    3    3    0    0  0.15546339534E+03  0.19655330870E+01 -0.60651854731E+02  0.18522388313E+03  0.80352403763E+02 0.  0.
          6    2    1    2  501    0 -0.13093593583E+03 -0.14222807799E+02 -0.62371947119E+02  0.22458941800E+03  0.17089072338E+03 0.  0.
         24    2    5    5    0    0 -0.15976039200E+03 -0.24003659965E+02 -0.70858188917E+02  0.19264226410E+03  0.77398969234E+02 0.  0.
          5    1    5    5  501    0  0.28824456168E+02  0.97808521654E+01  0.84862417974E+01  0.31947153900E+02  0.47000000000E+01 0. -1.
        -11    1    6    6    0    0 -0.45202895929E+02 -0.28981801162E+02  0.68426267213E+01  0.54130103819E+02  0.00000000000E+00 0.  1.
         12    1    6    6    0    0 -0.11455749607E+03  0.49781411973E+01 -0.77700815638E+02  0.13851216028E+03  0.00000000000E+00 0. -1.
         -5    1    3    3    0  503 -0.24527459509E+02  0.12257274712E+02  0.23823116012E+02  0.36626055068E+02  0.47000000000E+01 0.  1.
         13    1    4    4    0    0  0.73258701132E+02 -0.36877370985E+02 -0.43003841535E+02  0.92607279244E+02  0.00000000000E+00 0. -1.
        -14    1    4    4    0    0  0.82204694205E+02  0.38842904072E+02 -0.17648013196E+02  0.92616603889E+02  0.00000000000E+00 0.  1.
</event>
<event>
12    1  0.8358445E-002  0.1897874E+03  0.7818608E-02  0.1158900E+00
         21   -1    0    0  501  502  0.00000000000E+00  0.00000000000E+00  0.70340302755E+03  0.70340302755E+03  0.00000000000E+00 0. -1.
         21   -1    0    0  502  503 -0.00000000000E+00 -0.00000000000E+00 -0.64702380912E+02  0.64702380912E+02  0.00000000000E+00 0. -1.
         -6    2    1    2    0  503  0.43601299864E+02  0.63983428172E+02  0.14277976668E+03  0.23749807163E+03  0.17327527182E+03 0.  0.
        -24    2    3    3    0    0  0.26451169917E+01  0.10489676156E+03  0.99136653409E+02  0.16484739304E+03  0.79600626340E+02 0.  0.
          6    2    1    2  501    0 -0.43601299864E+02 -0.63983428172E+02  0.49592087996E+03  0.53060733683E+03  0.17208042972E+03 0.  0.
         24    2    5    5    0    0  0.30055160564E+02 -0.41452907346E+02  0.37052463151E+03  0.38336872893E+03  0.84032276914E+02 0.  0.
          5    1    5    5  501    0 -0.73656460428E+02 -0.22530520826E+02  0.12539624845E+03  0.14723860790E+03  0.47000000000E+01 0. -1.
        -13    1    6    6    0    0  0.35124130468E+02  0.14840892044E+02  0.10046644285E+03  0.10745912133E+03  0.00000000000E+00 0.  1.
         14    1    6    6    0    0 -0.50689699031E+01 -0.56293799389E+02  0.27005818866E+03  0.27590960760E+03  0.00000000000E+00 0. -1.
         -5    1    3    3    0  503  0.40956182872E+02 -0.40913333384E+02  0.43643113276E+02  0.72650678596E+02  0.47000000000E+01 0.  1.
         11    1    4    4    0    0  0.58322597575E+00  0.11056378693E+02  0.63482536186E+02  0.64440795021E+02  0.00000000000E+00 0. -1.
        -12    1    4    4    0    0  0.20618910160E+01  0.93840382863E+02  0.35654117223E+02  0.10040659802E+03  0.00000000000E+00 0.  1.
</event>
<event>
12    1  0.8358445E-002  0.1868093E+03  0.7818608E-02  0.1161420E+00
         21   -1    0    0  503  502  0.00000000000E+00  0.00000000000E+00  0.17053126545E+03  0.17053126545E+03  0.00000000000E+00 0.  1.
         21   -1    0    0  501  503 -0.00000000000E+00 -0.00000000000E+00 -0.31837814816E+03  0.31837814816E+03  0.00000000000E+00 0.  1.
          6    2    1    2  501    0 -0.23210685313E+02 -0.71769883911E+02 -0.22020923488E+03  0.28877295929E+03  0.17090366509E+03 0.  0.
         24    2    3    3    0    0  0.49687657616E+02 -0.67532858629E+02 -0.15098439409E+03  0.18804416813E+03  0.74396045579E+02 0.  0.
         -6    2    1    2    0  502  0.23210685313E+02  0.71769883911E+02  0.72362352165E+02  0.20013645433E+03  0.17067114048E+03 0.  0.
        -24    2    5    5    0    0  0.50003899835E+02  0.80452617049E+02  0.16581627908E+01  0.12388398818E+03  0.79821547430E+02 0.  0.
          5    1    3    3  501    0 -0.72898342929E+02 -0.42370252819E+01 -0.69224840790E+02  0.10072879115E+03  0.47000000000E+01 0. -1.
        -11    1    4    4    0    0  0.59460176992E+02 -0.46110887544E+02 -0.66763056514E+02  0.10059340094E+03  0.00000000000E+00 0.  1.
         12    1    4    4    0    0 -0.97725193757E+01 -0.21421971085E+02 -0.84221337571E+02  0.87450767192E+02  0.00000000000E+00 0. -1.
         -5    1    5    5    0  502 -0.26793214522E+02 -0.86827331386E+01  0.70704189374E+02  0.76252466152E+02  0.47000000000E+01 0.  1.
         11    1    6    6    0    0  0.21686589659E+02 -0.10087230490E+01  0.26382939405E+02  0.34167018964E+02  0.00000000000E+00 0. -1.
        -12    1    6    6    0    0  0.28317310175E+02  0.81461340098E+02 -0.24724776614E+02  0.89716969213E+02  0.00000000000E+00 0.  1.
</event>
<event>
12    1  0.8358445E-002  0.2559930E+03  0.7818608E-02  0.1109838E+00
         21   -1    0    0  501  502  0.00000000000E+00  0.00000000000E+00  0.10767891940E+04  0.10767891940E+04  0.00000000000E+00 0. -1.
         21   -1    0    0  502  503 -0.00000000000E+00 -0.00000000000E+00 -0.11929701086E+03  0.11929701086E+03  0.00000000000E+00 0. -1.
         -6    2    1    2    0  503 -0.61150166111E+02  0.17946500962E+03  0.57915376812E+02  0.26079436383E+03  0.16944756369E+03 0.  0.
        -24    2    3    3    0    0  0.10345747887E+02  0.73752834614E+02 -0.20142915965E+02  0.11112166513E+03  0.79973572419E+02 0.  0.
          6    2    1    2  501    0  0.61150166111E+02 -0.17946500962E+03  0.89957680637E+03  0.93529184106E+03  0.17200396771E+03 0.  0.
         24    2    5    5    0    0  0.83878954932E+02 -0.15676483467E+03  0.53664251583E+03  0.57090840973E+03  0.79626189351E+02 0.  0.
          5    1    5    5  501    0 -0.22728788820E+02 -0.22700174954E+02  0.36293429054E+03  0.36438343133E+03  0.47000000000E+01 0. -1.
        -11    1    6    6    0    0  0.57278551481E+02 -0.94307104487E+02  0.20932862245E+03  0.23662868506E+03  0.00000000000E+00 0.  1.
         12    1    6    6    0    0  0.26600403451E+02 -0.62457730182E+02  0.32731389338E+03  0.33427972467E+03  0.00000000000E+00 0. -1.
         -5    1    3    3    0  503 -0.71495913998E+02  0.10571217501E+03  0.78058292777E+02  0.14967269870E+03  0.47000000000E+01 0.  1.
         11    1    4    4    0    0  0.13131377458E+01  0.67363138046E+02  0.19357002562E+02  0.70101428276E+02  0.00000000000E+00 0. -1.
        -12    1    4    4    0    0  0.90326101411E+01  0.63896965678E+01 -0.39499918527E+02  0.41020236857E+02  0.00000000000E+00 0.  1.
</event>
<event>
12    1  0.8358445E-002  0.2161296E+03  0.7818608E-02  0.1137555E+00
         21   -1    0    0  501  502  0.00000000000E+00  0.00000000000E+00  0.48126282923E+03  0.48126282923E+03  0.00000000000E+00 0.  1.
         21   -1    0    0  502  503 -0.00000000000E+00 -0.00000000000E+00 -0.11574555465E+03  0.11574555465E+03  0.00000000000E+00 0.  1.
         -6    2    1    2    0  503 -0.64309430387E+02 -0.10733823564E+03  0.55969079902E+02  0.21947418464E+03  0.17140355933E+03 0.  0.
        -24    2    3    3    0    0 -0.11057801003E+02 -0.76957153642E+02  0.95380217526E+02  0.14643943987E+03  0.79387941109E+02 0.  0.
          6    2    1    2  501    0  0.64309430387E+02  0.10733823564E+03  0.30954819468E+03  0.37753419924E+03  0.17622368486E+03 0.  0.
         24    2    5    5    0    0  0.92879747882E+02  0.92541746196E+02  0.14978379692E+03  0.21449447423E+03  0.79887867034E+02 0.  0.
          5    1    5    5  501    0 -0.28570317496E+02  0.14796489442E+02  0.15976439776E+03  0.16303972502E+03  0.47000000000E+01 0. -1.
        -13    1    6    6    0    0  0.10684628378E+03  0.77500461866E+02  0.12044260874E+03  0.17868651864E+03  0.00000000000E+00 0.  1.
         14    1    6    6    0    0 -0.13966535893E+02  0.15041284330E+02  0.29341188179E+02  0.35807955582E+02  0.00000000000E+00 0. -1.
         -5    1    3    3    0  503 -0.53251629384E+02 -0.30381081996E+02 -0.39411137624E+02  0.73034744773E+02  0.47000000000E+01 0.  1.
         11    1    4    4    0    0  0.33314542183E+02 -0.33144911846E+02  0.28322768837E+02  0.54869145580E+02  0.00000000000E+00 0. -1.
        -12    1    4    4    0    0 -0.44372343186E+02 -0.43812241796E+02  0.67057448689E+02  0.91570294286E+02  0.00000000000E+00 0.  1.
</event>
<event>
12    1  0.8358445E-002  0.2109957E+03  0.7818608E-02  0.1140845E+00
         21   -1    0    0  503  502  0.00000000000E+00  0.00000000000E+00  0.10513546721E+03  0.10513546721E+03  0.00000000000E+00 0. -1.
         21   -1    0    0  501  503 -0.00000000000E+00 -0.00000000000E+00 -0.42694841139E+03  0.42694841139E+03  0.00000000000E+00 0.  1.
          6    2    1    2  501    0 -0.12085995766E+03  0.17000038129E+02 -0.18704762509E+03  0.28172237148E+03  0.17171065744E+03 0.  0.
         24    2    3    3    0    0 -0.90894842651E+02 -0.11130003534E+02 -0.20403676505E+03  0.23700181426E+03  0.78441755915E+02 0.  0.
         -6    2    1    2    0  502  0.12085995766E+03 -0.17000038129E+02 -0.13476531909E+03  0.25036150713E+03  0.17211351591E+03 0.  0.
        -24    2    5    5    0    0  0.15122508975E+03  0.61423500700E+01 -0.10060298966E+03  0.19891477612E+03  0.80866373718E+02 0.  0.
          5    1    3    3  501    0 -0.29965115005E+02  0.28130041662E+02  0.16989139961E+02  0.44720557217E+02  0.47000000000E+01 0. -1.
        -11    1    4    4    0    0  0.82104198701E+01 -0.18052288014E+02 -0.49052083900E+02  0.52909385102E+02  0.00000000000E+00 0.  1.
         12    1    4    4    0    0 -0.99105262521E+02  0.69222844804E+01 -0.15498468115E+03  0.18409242916E+03  0.00000000000E+00 0. -1.
         -5    1    5    5    0  502 -0.30365132091E+02 -0.23142388199E+02 -0.34162329435E+02  0.51446731003E+02  0.47000000000E+01 0.  1.
         11    1    6    6    0    0  0.10107797247E+03 -0.24447800722E+02 -0.32443622296E+02  0.10893594497E+03  0.00000000000E+00 0. -1.
        -12    1    6    6    0    0  0.50147117281E+02  0.30590150792E+02 -0.68159367362E+02  0.89978831156E+02  0.00000000000E+00 0.  1.
</event>
<event>
12    1  0.8358445E-002  0.1832268E+03  0.7818608E-02  0.1164917E+00
         21   -1    0    0  503  502  0.00000000000E+00  0.00000000000E+00  0.46338356011E+03  0.46338356011E+03  0.00000000000E+00 0.  1.
         21   -1    0    0  501  503 -0.00000000000E+00 -0.00000000000E+00 -0.72602674701E+02  0.72602674701E+02  0.00000000000E+00 0. -1.
          6    2    1    2  501    0  0.50327641087E+02 -0.36638412624E+02  0.21691820732E+03  0.28339905511E+03  0.17142424284E+03 0.  0.
         24    2    3    3    0    0  0.13435399769E+02  0.28545127166E+02  0.72880528604E+02  0.12098331013E+03  0.91269138420E+02 0.  0.
         -6    2    1    2    0  502 -0.50327641087E+02  0.36638412624E+02  0.17386267809E+03  0.25258717970E+03  0.17232761757E+03 0.  0.
        -24    2    5    5    0    0  0.24588809889E+02 -0.19968954018E+02  0.51782229293E+02  0.98500857907E+02  0.77573520234E+02 0.  0.
          5    1    3    3  501    0  0.36892241318E+02 -0.65183539791E+02  0.14403767871E+03  0.16241574498E+03  0.47000000000E+01 0. -1.
        -13    1    4    4    0    0 -0.27446734237E+02  0.30835769400E+02  0.48292445395E+01  0.41563078539E+02  0.00000000000E+00 0.  1.
         14    1    4    4    0    0  0.40882134007E+02 -0.22906422338E+01  0.68051284065E+02  0.79420231589E+02  0.00000000000E+00 0. -1.
         -5    1    5    5    0  502 -0.74916450976E+02  0.56607366642E+02  0.12208044880E+03  0.15408632179E+03  0.47000000000E+01 0.  1.
         13    1    6    6    0    0  0.10824944459E+02  0.23356417550E+02  0.45949155959E+02  0.52669028818E+02  0.00000000000E+00 0. -1.
        -14    1    6    6    0    0  0.13763865430E+02 -0.43325371568E+02  0.58330733341E+01  0.45831829089E+02  0.00000000000E+00 0.  1.
</event>
<event>
12    1  0.8358445E-002  0.3013340E+03  0.7818608E-02  0.1084586E+00
         21   -1    0    0  501  502  0.00000000000E+00  0.00000000000E+00  0.22486006595E+03  0.22486006595E+03  0.00000000000E+00 0.  1.
         21   -1    0    0  502  503 -0.00000000000E+00 -0.00000000000E+00 -0.67112980913E+03  0.67112980913E+03  0.00000000000E+00 0. -1.
         -6    2    1    2    0  503 -0.24212511049E+03 -0.50864754470E+02 -0.50590971352E+03  0.58881055413E+03  0.17187622884E+03 0.  0.
        -24    2    3    3    0    0 -0.19957661835E+03 -0.71819561316E+02 -0.48985190942E+03  0.53851720282E+03  0.71112647215E+02 0.  0.
          6    2    1    2  501    0  0.24212511049E+03  0.50864754470E+02  0.59639970342E+02  0.30717932094E+03  0.17201865240E+03 0.  0.
         24    2    5    5    0    0  0.87802058613E+02 -0.26033642023E+02  0.10399728303E+02  0.12780357241E+03  0.88536132501E+02 0.  0.
          5    1    5    5  501    0  0.15432305188E+03  0.76898396493E+02  0.49240242039E+02  0.17937574853E+03  0.47000000000E+01 0. -1.
        -13    1    6    6    0    0  0.10495635638E+03 -0.12925689838E+02  0.98569325698E+01  0.10620767073E+03  0.00000000000E+00 0.  1.
         14    1    6    6    0    0 -0.17154297764E+02 -0.13107952185E+02  0.54279573334E+00  0.21595901682E+02  0.00000000000E+00 0. -1.
         -5    1    3    3    0  503 -0.42548492141E+02  0.20954806846E+02 -0.16057804107E+02  0.50293351312E+02  0.47000000000E+01 0.  1.
         11    1    4    4    0    0 -0.94518590758E+02 -0.11238713875E+02 -0.28482497216E+03  0.30030873689E+03  0.00000000000E+00 0. -1.
        -12    1    4    4    0    0 -0.10505802759E+03 -0.60580847440E+02 -0.20502693726E+03  0.23820846593E+03  0.00000000000E+00 0.  1.
</event>
<event>
12    1  0.8358445E-002  0.1788992E+03  0.7818608E-02  0.1169374E+00
         21   -1    0    0  503  502  0.00000000000E+00  0.00000000000E+00  0.54558921499E+03  0.54558921499E+03  0.00000000000E+00 0.  1.
         21   -1    0    0  501  503 -0.00000000000E+00 -0.00000000000E+00 -0.62747713506E+02  0.62747713506E+02  0.00000000000E+00 0.  1.
          6    2    1    2  501    0  0.47713724036E+02  0.53213565584E+01  0.15641207726E+03  0.23609897347E+03  0.17021477922E+03 0.  0.
         24    2    3    3    0    0  0.29926168867E+01  0.63806281380E+02  0.82598559150E+02  0.13173907067E+03  0.80327227443E+02 0.  0.
         -6    2    1    2    0  502 -0.47713724036E+02 -0.53213565584E+01  0.32642942422E+03  0.37223795503E+03  0.17233690802E+03 0.  0.
        -24    2    5    5    0    0 -0.41375870277E+02 -0.82288292931E+01  0.66106498368E+02  0.11177924906E+03  0.79654598869E+02 0.  0.
          5    1    3    3  501    0  0.44721107149E+02 -0.58484924822E+02  0.73813518108E+02  0.10435990280E+03  0.47000000000E+01 0. -1.
        -11    1    4    4    0    0  0.17819200400E+02  0.74994564693E+02  0.82850267297E+02  0.11316304798E+03  0.00000000000E+00 0.  1.
         12    1    4    4    0    0 -0.14826583513E+02 -0.11188283313E+02 -0.25170814731E+00  0.18576022695E+02  0.00000000000E+00 0. -1.
         -5    1    5    5    0  502 -0.63378537585E+01  0.29074727347E+01  0.26032292586E+03  0.26045870597E+03  0.47000000000E+01 0.  1.
         11    1    6    6    0    0 -0.47848342649E+02 -0.35792084604E+02  0.33159214977E+02  0.68337915921E+02  0.00000000000E+00 0. -1.
        -12    1    6    6    0    0  0.64724723718E+01  0.27563255311E+02  0.32947283391E+02  0.43441333138E+02  0.00000000000E+00 0.  1.
</event>
<event>
12    1  0.8358445E-002  0.1861055E+03  0.7818608E-02  0.1162268E+00
         21   -1    0    0  503  502  0.00000000000E+00  0.00000000000E+00  0.10914714923E+04  0.10914714923E+04  0.00000000000E+00 0. -1.
         21   -1    0    0  501  503 -0.00000000000E+00 -0.00000000000E+00 -0.31565043314E+02  0.31565043314E+02  0.00000000000E+00 0. -1.
          6    2    1    2  501    0  0.50276897314E+01  0.66941296663E+02  0.53995899884E+03  0.57078602662E+03  0.17243709835E+03 0.  0.
         24    2    3    3    0    0 -0.15760918841E+02 -0.25143849294E+02  0.19343707495E+03  0.21160449300E+03  0.80485649489E+02 0.  0.
         -6    2    1    2    0  502 -0.50276897314E+01 -0.66941296663E+02  0.51994745013E+03  0.55225050898E+03  0.17357666581E+03 0.  0.
        -24    2    5    5    0    0  0.89153969609E+01  0.13401315124E+02  0.39185996931E+03  0.40033659363E+03  0.80349692600E+02 0.  0.
          5    1    3    3  501    0  0.20788608572E+02  0.92085145956E+02  0.34652192389E+03  0.35918153362E+03  0.47000000000E+01 0. -1.
        -11    1    4    4    0    0 -0.28219910947E+02  0.62806107521E+01  0.16475364853E+03  0.16727096027E+03  0.00000000000E+00 0.  1.
         12    1    4    4    0    0  0.12458992106E+02 -0.31424460046E+02  0.28683426419E+02  0.44333532733E+02  0.00000000000E+00 0. -1.
         -5    1    5    5    0  502 -0.13943086692E+02 -0.80342611787E+02  0.12808748082E+03  0.15191391535E+03  0.47000000000E+01 0.  1.
         13    1    6    6    0    0 -0.28255864832E+02 -0.13592327718E+02  0.97617153916E+02  0.10252928367E+03  0.00000000000E+00 0. -1.
        -14    1    6    6    0    0  0.37171261793E+02  0.26993642842E+02  0.29424281540E+03  0.29780730997E+03  0.00000000000E+00 0.  1.
</event>
<event>
12    1  0.8358445E-002  0.1920398E+03  0.7818608E-02  0.1156773E+00
         21   -1    0    0  501  502  0.00000000000E+00  0.00000000000E+00  0.39530520254E+03  0.39530520254E+03  0.00000000000E+00 0.  1.
         21   -1    0    0  502  503 -0.00000000000E+00 -0.00000000000E+00 -0.11835775296E+03  0.11835775296E+03  0.00000000000E+00 0.  1.
         -6    2    1    2    0  503  0.58137952627E+02 -0.62475214082E+02  0.25719799557E+03  0.32061027459E+03  0.17133874442E+03 0.  0.
        -24    2    3    3    0    0  0.33622893086E+02  0.39597159027E+01  0.44565383317E+02  0.96446705164E+02  0.78547535018E+02 0.  0.
          6    2    1    2  501    0 -0.58137952627E+02  0.62475214082E+02  0.19749454006E+02  0.19305268091E+03  0.17203523698E+03 0.  0.
         24    2    5    5    0    0 -0.47048238014E+02  0.10667478504E+03  0.48278863395E+01  0.14487252914E+03  0.85858574110E+02 0.  0.
          5    1    5    5  501    0 -0.11089714613E+02 -0.44199570957E+02  0.14921567666E+02  0.48180151770E+02  0.47000000000E+01 0. -1.
        -13    1    6    6    0    0 -0.40250176575E+02  0.72220638242E+02  0.42841592697E+02  0.93119811894E+02  0.00000000000E+00 0.  1.
         14    1    6    6    0    0 -0.67980614397E+01  0.34454146797E+02 -0.38013706357E+02  0.51752717242E+02  0.00000000000E+00 0. -1.
         -5    1    3    3    0  503  0.24515059542E+02 -0.66434929985E+02  0.21263261225E+03  0.22416356943E+03  0.47000000000E+01 0.  1.
         11    1    4    4    0    0  0.19415336390E+02  0.21927405336E+02  0.61394826043E+02  0.68022724562E+02  0.00000000000E+00 0. -1.
        -12    1    4    4    0    0  0.14207556695E+02 -0.17967689433E+02 -0.16829442726E+02  0.28423980603E+02  0.00000000000E+00 0.  1.
</event>
<event>
12    1  0.8358445E-002  0.3434498E+03  0.7818608E-02  0.1065424E+00
         21   -1    0    0  503  502  0.00000000000E+00  0.00000000000E+00  0.65969498479E+03  0.65969498479E+03  0.00000000000E+00 0.  1.
         21   -1    0    0  501  503 -0.00000000000E+00 -0.00000000000E+00 -0.35763163954E+03  0.35763163954E+03  0.00000000000E+00 0. -1.
          6    2    1    2  501    0  0.26050708602E+02 -0.29521536210E+03 -0.20918289342E+03  0.40142849848E+03  0.17192035090E+03 0.  0.
         24    2    3    3    0    0 -0.23429342403E+02 -0.94425660832E+02 -0.34010888208E+02  0.13037112265E+03  0.79842028997E+02 0.  0.
         -6    2    1    2    0  502 -0.26050708602E+02  0.29521536210E+03  0.51124623866E+03  0.61589812585E+03  0.17357141308E+03 0.  0.
        -24    2    5    5    0    0  0.41459021302E+02  0.22172235150E+03  0.39867083257E+03  0.46538534136E+03  0.82252243777E+02 0.  0.
          5    1    3    3  501    0  0.49480051005E+02 -0.20078970127E+03 -0.17517200521E+03  0.27105737583E+03  0.47000000000E+01 0. -1.
        -11    1    4    4    0    0  0.27507264113E+02 -0.25550573699E+02 -0.22934561181E+02  0.43994039277E+02  0.00000000000E+00 0.  1.
         12    1    4    4    0    0 -0.50936606516E+02 -0.68875087133E+02 -0.11076327027E+02  0.86377083369E+02  0.00000000000E+00 0. -1.
         -5    1    5    5    0  502 -0.67509729904E+02  0.73493010604E+02  0.11257540609E+03  0.15051278450E+03  0.47000000000E+01 0.  1.
         13    1    6    6    0    0 -0.76524517442E+01  0.53875260771E+01  0.24302541618E+00  0.93618650002E+01  0.00000000000E+00 0. -1.
        -14    1    6    6    0    0  0.49111473047E+02  0.21633482542E+03  0.39842780715E+03  0.45602347636E+03  0.00000000000E+00 0.  1.
</event>
<event>
12    1  0.8358445E-002  0.2066200E+03  0.7818608E-02  0.1145145E+00
         21   -1    0    0  501  502  0.00000000000E+00  0.00000000000E+00  0.39593794675E+03  0.39593794675E+03  0.00000000000E+00 0. -1.
         21   -1    0    0  502  503 -0.00000000000E+00 -0.00000000000E+00 -0.12947575100E+03  0.12947575100E+03  0.00000000000E+00 0.  1.
         -6    2    1    2    0  503  0.11340049146E+03 -0.23751641973E+02  0.19302231194E+02  0.20326483333E+03  0.16589214682E+03 0.  0.
        -24    2    3    3    0    0  0.73676446323E+02  0.24575599908E+02  0.60869338236E+02  0.12800902652E+03  0.81541741948E+02 0.  0.
          6    2    1    2  501    0 -0.11340049146E+03  0.23751641973E+02  0.24715996455E+03  0.32214886443E+03  0.17107901921E+03 0.  0.
         24    2    5    5    0    0 -0.60287007762E+02  0.79165364698E+02  0.13787562890E+03  0.18851923135E+03  0.81413348248E+02 0.  0.
          5    1    5    5  501    0 -0.53113483702E+02 -0.55413722725E+02  0.10928433565E+03  0.13362963308E+03  0.47000000000E+01 0. -1.
        -13    1    6    6    0    0 -0.71385849251E+02  0.47258512590E+02  0.62743595063E+02  0.10614172227E+03  0.00000000000E+00 0.  1.
         14    1    6    6    0    0  0.11098841490E+02  0.31906852108E+02  0.75132033839E+02  0.82377509082E+02  0.00000000000E+00 0. -1.
         -5    1    3    3    0  503  0.39724045141E+02 -0.48327241881E+02 -0.41567107042E+02  0.75255806806E+02  0.47000000000E+01 0.  1.
         13    1    4    4    0    0 -0.12510764078E+02 -0.55930507425E+00  0.30933052195E+02  0.33371930692E+02  0.00000000000E+00 0. -1.
        -14    1    4    4    0    0  0.86187210401E+02  0.25134904982E+02  0.29936286041E+02  0.94637095829E+02  0.00000000000E+00 0.  1.
</event>
<event>
12    1  0.8358445E-002  0.2198068E+03  0.7818608E-02  0.1136125E+00
         21   -1    0    0  503  502  0.00000000000E+00  0.00000000000E+00  0.48028188068E+03  0.48028188068E+03  0.00000000000E+00 0.  1.
         21   -1    0    0  501  503 -0.00000000000E+00 -0.00000000000E+00 -0.24608539699E+03  0.24608539699E+03  0.00000000000E+00 0. -1.
          6    2    1    2  501    0  0.13709891340E+03  0.26719833058E+02 -0.16566252483E+03  0.27524375034E+03  0.16972032417E+03 0.  0.
         24    2    3    3    0    0  0.93840303228E+02  0.54180283955E+02 -0.41840204329E+02  0.14115631331E+03  0.80205962430E+02 0.  0.
         -6    2    1    2    0  502 -0.13709891340E+03 -0.26719833058E+02  0.39985900852E+03  0.45112352733E+03  0.15529052993E+03 0.  0.
        -24    2    5    5    0    0 -0.10478118251E+03 -0.57057407063E+02  0.36815142238E+03  0.39642192640E+03  0.85908265114E+02 0.  0.
          5    1    3    3  501    0  0.43258610172E+02 -0.27460450897E+02 -0.12382232050E+03  0.13408743704E+03  0.47000000000E+01 0. -1.
        -11    1    4    4    0    0  0.11346095454E+02 -0.19209229126E+02 -0.16827178897E+02  0.27944271601E+02  0.00000000000E+00 0.  1.
         12    1    4    4    0    0  0.82494207774E+02  0.73389513081E+02 -0.25013025432E+02  0.11321204171E+03  0.00000000000E+00 0. -1.
         -5    1    5    5    0  502 -0.32317730890E+02  0.30337574005E+02  0.31707586131E+02  0.54701600933E+02  0.47000000000E+01 0.  1.
         13    1    6    6    0    0 -0.54205810081E+00 -0.66570772662E+01 -0.32235542562E+01  0.74163202975E+01  0.00000000000E+00 0. -1.
        -14    1    6    6    0    0 -0.10423912441E+03 -0.50400329797E+02  0.37137497664E+03  0.38900560610E+03  0.00000000000E+00 0.  1.
</event>
<event>
12    1  0.8358445E-002  0.2053016E+03  0.7818608E-02  0.1146166E+00
         21   -1    0    0  503  502  0.00000000000E+00  0.00000000000E+00  0.34891955046E+03  0.34891955046E+03  0.00000000000E+00 0.  1.
         21   -1    0    0  501  503 -0.00000000000E+00 -0.00000000000E+00 -0.13309221560E+03  0.13309221560E+03  0.00000000000E+00 0.  1.
          6    2    1    2  501    0  0.85281694150E+02 -0.71151159136E+02  0.27050568370E+02  0.20311143365E+03  0.16789004266E+03 0.  0.
         24    2    3    3    0    0 -0.18041203311E+02 -0.48045522010E+02  0.17502394587E+02  0.96703025948E+02  0.80070495247E+02 0.  0.
         -6    2    1    2    0  502 -0.85281694150E+02  0.71151159136E+02  0.18877676648E+03  0.27890033241E+03  0.17266520510E+03 0.  0.
        -24    2    5    5    0    0 -0.11270470615E+03  0.73453183657E+02  0.19545676206E+03  0.25019435316E+03  0.79348267431E+02 0.  0.
          5    1    3    3  501    0  0.10332289746E+03 -0.23105637127E+02  0.95481737824E+01  0.10640840770E+03  0.47000000000E+01 0. -1.
        -13    1    4    4    0    0  0.16321812356E+02 -0.53189928976E+02 -0.41007328992E+01  0.55788763325E+02  0.00000000000E+00 0.  1.
         14    1    4    4    0    0 -0.34363015667E+02  0.51444069663E+01  0.21603127487E+02  0.40914262622E+02  0.00000000000E+00 0. -1.
         -5    1    5    5    0  502  0.27423011996E+02 -0.23020245208E+01 -0.66799955733E+01  0.28705979250E+02  0.47000000000E+01 0.  1.
         13    1    6    6    0    0 -0.45609207503E+02  0.19603639383E+01  0.21390511636E+02  0.50414252190E+02  0.00000000000E+00 0. -1.
        -14    1    6    6    0    0 -0.67095498644E+02  0.71492819719E+02  0.17406625042E+03  0.19978010097E+03  0.00000000000E+00 0.  1.
</event>
<event>
12    1  0.8358445E-002  0.2051287E+03  0.7818608E-02  0.1147326E+00
         21   -1    0    0  501  502  0.00000000000E+00  0.00000000000E+00  0.26140550187E+02  0.26140550187E+02  0.00000000000E+00 0.  1.
         21   -1    0    0  502  503 -0.00000000000E+00 -0.00000000000E+00 -0.15577192819E+04  0.15577192819E+04  0.00000000000E+00 0.  1.
         -6    2    1    2    0  503  0.80895669218E+01  0.11091144410E+03 -0.83068779323E+03  0.85356818406E+03  0.16177034804E+03 0.  0.
        -24    2    3    3    0    0 -0.50081081285E+02  0.28334698283E+02 -0.47708657475E+03  0.48579290626E+03  0.71219225828E+02 0.  0.
          6    2    1    2  501    0 -0.80895669218E+01 -0.11091144410E+03 -0.70089093852E+03  0.73029164806E+03  0.17236877326E+03 0.  0.
         24    2    5    5    0    0  0.57962690853E+02 -0.61714635665E+02 -0.30146608753E+03  0.32243685980E+03  0.76911357025E+02 0.  0.
          5    1    5    5  501    0 -0.66052257774E+02 -0.49196808434E+02 -0.39942485099E+03  0.40785478826E+03  0.47000000000E+01 0. -1.
        -13    1    6    6    0    0 -0.12800627713E+02 -0.15194449246E+02 -0.18781228541E+02  0.27339749510E+02  0.00000000000E+00 0.  1.
         14    1    6    6    0    0  0.70763318565E+02 -0.46520186419E+02 -0.28268485899E+03  0.29509711029E+03  0.00000000000E+00 0. -1.
         -5    1    3    3    0  503  0.58170648206E+02  0.82576745816E+02 -0.35360121847E+03  0.36777527781E+03  0.47000000000E+01 0.  1.
         13    1    4    4    0    0 -0.65152860059E+02  0.79527046346E+01 -0.31846453597E+03  0.32515811747E+03  0.00000000000E+00 0. -1.
        -14    1    4    4    0    0  0.15071778775E+02  0.20381993649E+02 -0.15862203879E+03  0.16063478879E+03  0.00000000000E+00 0.  1.
</event>
<event>
12    1  0.8358445E-002  0.2683746E+03  0.7818608E-02  0.1102655E+00
         21   -1    0    0  503  502  0.00000000000E+00  0.00000000000E+00  0.48286620374E+02  0.48286620374E+02  0.00000000000E+00 0.  1.
         21   -1    0    0  501  503 -0.00000000000E+00 -0.00000000000E+00 -0.18527333413E+04  0.18527333413E+04  0.00000000000E+00 0. -1.
          6    2    1    2  501    0 -0.18609803250E+03 -0.78379456847E+02 -0.46880238087E+03  0.53867979097E+03  0.17211748296E+03 0.  0.
         24    2    3    3    0    0 -0.10776733066E+03  0.60659309667E-01 -0.15144645551E+03  0.20248725086E+03  0.80319715111E+02 0.  0.
         -6    2    1    2    0  502  0.18609803250E+03  0.78379456847E+02 -0.13356443401E+04  0.13623401707E+04  0.17677420802E+03 0.  0.
        -24    2    5    5    0    0  0.65382339471E+02  0.88781563170E+02 -0.89543121224E+03  0.90573293219E+03  0.79987951122E+02 0.  0.
          5    1    3    3  501    0 -0.78330701840E+02 -0.78440116157E+02 -0.31735592535E+03  0.33619254012E+03  0.47000000000E+01 0. -1.
        -11    1    4    4    0    0 -0.82907055722E+01 -0.19200852795E+02 -0.79228541823E+00  0.20929315878E+02  0.00000000000E+00 0.  1.
         12    1    4    4    0    0 -0.99476625084E+02  0.19261512104E+02 -0.15065417010E+03  0.18155793498E+03  0.00000000000E+00 0. -1.
         -5    1    5    5    0  502  0.12071569302E+03 -0.10402106323E+02 -0.44021312784E+03  0.45660723853E+03  0.47000000000E+01 0.  1.
         13    1    6    6    0    0  0.74634582440E+02  0.42771730045E+02 -0.66752399156E+03  0.67304384783E+03  0.00000000000E+00 0. -1.
        -14    1    6    6    0    0 -0.92522429684E+01  0.46009833124E+02 -0.22790722068E+03  0.23268908436E+03  0.00000000000E+00 0.  1.
</event>
<event>
12    1  0.8358445E-002  0.2048556E+03  0.7818608E-02  0.1146686E+00
         21   -1    0    0  503  502  0.00000000000E+00  0.00000000000E+00  0.27515091103E+04  0.27515091103E+04  0.00000000000E+00 0.  1.
         21   -1    0    0  501  503 -0.00000000000E+00 -0.00000000000E+00 -0.25677968083E+02  0.25677968083E+02  0.00000000000E+00 0. -1.
          6    2    1    2  501    0 -0.10078392134E+03  0.44942862774E+02  0.47262855393E+03  0.51511508686E+03  0.17259357754E+03 0.  0.
         24    2    3    3    0    0 -0.10422073129E+03  0.13880952568E+02  0.18846978775E+03  0.22920435197E+03  0.77195416921E+02 0.  0.
         -6    2    1    2    0  502  0.10078392134E+03 -0.44942862774E+02  0.22532025883E+04  0.22620719915E+04  0.16694469518E+03 0.  0.
        -24    2    5    5    0    0  0.91149185877E+02  0.18047070225E+02  0.10259372654E+04  0.10331444825E+04  0.78780570293E+02 0.  0.
          5    1    3    3  501    0  0.34368099492E+01  0.31061910206E+02  0.28415876618E+03  0.28591073489E+03  0.47000000000E+01 0. -1.
        -13    1    4    4    0    0 -0.53962801311E+02 -0.28464318758E+02  0.63815782112E+02  0.88287345720E+02  0.00000000000E+00 0.  1.
         14    1    4    4    0    0 -0.50257929978E+02  0.42345271326E+02  0.12465400564E+03  0.14091700625E+03  0.00000000000E+00 0. -1.
         -5    1    5    5    0  502  0.96347354622E+01 -0.62989932999E+02  0.12272653229E+04  0.12289275091E+04  0.47000000000E+01 0.  1.
         13    1    6    6    0    0  0.77338809240E+02 -0.16150801083E+02  0.53230538187E+03  0.53813674782E+03  0.00000000000E+00 0. -1.
        -14    1    6    6    0    0  0.13810376637E+02  0.34197871308E+02  0.49363188355E+03  0.49500773465E+03  0.00000000000E+00 0.  1.
</event>
<event>
12    1  0.8358445E-002  0.1881637E+03  0.7818608E-02  0.1160267E+00
         21   -1    0    0  503  502  0.00000000000E+00  0.00000000000E+00  0.44931063938E+03  0.44931063938E+03  0.00000000000E+00 0. -1.
         21   -1    0    0  501  503 -0.00000000000E+00 -0.00000000000E+00 -0.13217662129E+03  0.13217662129E+03  0.00000000000E+00 0. -1.
          6    2    1    2  501    0  0.38036330178E+02  0.63972229507E+02 -0.26783107711E+02  0.18946101352E+03  0.17215961264E+03 0.  0.
         24    2    3    3    0    0  0.32703162057E+02  0.41245357916E+02  0.50319797080E+02  0.10876466106E+03  0.80789808505E+02 0.  0.
         -6    2    1    2    0  502 -0.38036330178E+02 -0.63972229507E+02  0.34391712580E+03  0.39202624715E+03  0.17281892394E+03 0.  0.
        -24    2    5    5    0    0  0.89734741391E+01  0.17380546328E+02  0.98066309755E+02  0.12879078299E+03  0.81163156948E+02 0.  0.
          5    1    3    3  501    0  0.53331681214E+01  0.22726871591E+02 -0.77102904791E+02  0.80696352468E+02  0.47000000000E+01 0. -1.
        -13    1    4    4    0    0  0.21669429137E+01  0.47829629600E+02  0.59343219420E+02  0.76249503607E+02  0.00000000000E+00 0.  1.
         14    1    4    4    0    0  0.30536219143E+02 -0.65842716839E+01 -0.90234223397E+01  0.32515157448E+02  0.00000000000E+00 0. -1.
         -5    1    5    5    0  502 -0.47009804317E+02 -0.81352775834E+02  0.24585081605E+03  0.26323546416E+03  0.47000000000E+01 0.  1.
         11    1    6    6    0    0  0.75220959986E+01 -0.28387611694E+02  0.67838588367E+02  0.73922340991E+02  0.00000000000E+00 0. -1.
        -12    1    6    6    0    0  0.14513781405E+01  0.45768158022E+02  0.30227721388E+02  0.54868442000E+02  0.00000000000E+00 0.  1.
</event>
<event>
12    1  0.8358445E-002  0.1725054E+03  0.7818608E-02  0.1175261E+00
         21   -1    0    0  501  502  0.00000000000E+00  0.00000000000E+00  0.35543997572E+03  0.35543997572E+03  0.00000000000E+00 0.  1.
         21   -1    0    0  502  503 -0.00000000000E+00 -0.00000000000E+00 -0.12809660921E+03  0.12809660921E+03  0.00000000000E+00 0.  1.
         -6    2    1    2    0  503 -0.26567389623E+01 -0.64014477453E+01 -0.28629407893E+02  0.17486174080E+03  0.17236283997E+03 0.  0.
        -24    2    3    3    0    0 -0.62314042741E+02 -0.10024066818E+02 -0.48312340578E+02  0.11176162113E+03  0.78568797033E+02 0.  0.
          6    2    1    2  501    0  0.26567389623E+01  0.64014477453E+01  0.25597277440E+03  0.30867484413E+03  0.17236606791E+03 0.  0.
         24    2    5    5    0    0 -0.11521120491E+02  0.69214752325E+02  0.11123560854E+03  0.15018995490E+03  0.72527538145E+02 0.  0.
          5    1    5    5  501    0  0.14177859454E+02 -0.62813304580E+02  0.14473716586E+03  0.15848488922E+03  0.47000000000E+01 0. -1.
        -13    1    6    6    0    0 -0.26254304008E+01  0.56425753028E+02  0.11977343799E+03  0.13242520507E+03  0.00000000000E+00 0.  1.
         14    1    6    6    0    0 -0.88956900903E+01  0.12788999297E+02 -0.85378294440E+01  0.17764749838E+02  0.00000000000E+00 0. -1.
         -5    1    3    3    0  503  0.59657303778E+02  0.36226190729E+01  0.19682932685E+02  0.63100119668E+02  0.47000000000E+01 0.  1.
         13    1    4    4    0    0 -0.53587448294E+02  0.16534898911E+02 -0.15805433075E+00  0.56080678293E+02  0.00000000000E+00 0. -1.
        -14    1    4    4    0    0 -0.87265944470E+01 -0.26558965729E+02 -0.48154286247E+02  0.55680942837E+02  0.00000000000E+00 0.  1.
</event>
<event>
12    1  0.8358445E-002  0.3061882E+03  0.7818608E-02  0.1083739E+00
         21   -1    0    0  501  502  0.00000000000E+00  0.00000000000E+00  0.44626537916E+03  0.44626537916E+03  0.00000000000E+00 0.  1.
         21   -1    0    0  502  503 -0.00000000000E+00 -0.00000000000E+00 -0.27429624348E+03  0.27429624348E+03  0.00000000000E+00 0. -1.
         -6    2    1    2    0  503 -0.22863475005E+03 -0.88598422003E+02 -0.98128039642E+02  0.32152807481E+03  0.18337846498E+03 0.  0.
        -24    2    3    3    0    0 -0.25922905387E+02  0.67082302304E+00 -0.33949252103E+02  0.90872277482E+02  0.80204563892E+02 0.  0.
          6    2    1    2  501    0  0.22863475005E+03  0.88598422003E+02  0.27009717532E+03  0.39903354783E+03  0.16171505454E+03 0.  0.
         24    2    5    5    0    0  0.16472818277E+03  0.52928039210E+02  0.10310830231E+03  0.21664988831E+03  0.79806644878E+02 0.  0.
          5    1    5    5  501    0  0.63906567276E+02  0.35670382793E+02  0.16698887301E+03  0.18238365951E+03  0.47000000000E+01 0. -1.
        -11    1    6    6    0    0  0.11189663536E+03  0.61583514234E+02  0.39888387353E+02  0.13380758453E+03  0.00000000000E+00 0.  1.
         12    1    6    6    0    0  0.52831547409E+02 -0.86554750235E+01  0.63219914960E+02  0.82842303788E+02  0.00000000000E+00 0. -1.
         -5    1    3    3    0  503 -0.20271184466E+03 -0.89269245026E+02 -0.64178787539E+02  0.23065579733E+03  0.47000000000E+01 0.  1.
         13    1    4    4    0    0 -0.21111129735E+02 -0.28554085551E+02  0.10881917444E+02  0.37140701765E+02  0.00000000000E+00 0. -1.
        -14    1    4    4    0    0 -0.48117756525E+01  0.29224908574E+02 -0.44831169547E+02  0.53731575717E+02  0.00000000000E+00 0.  1.
</event>
<event>
12    1  0.8358445E-002  0.1986022E+03  0.7818608E-02  0.1150924E+00
         21   -1    0    0  501  502  0.00000000000E+00  0.00000000000E+00  0.85506810878E+03  0.85506810878E+03  0.00000000000E+00 0. -1.
         21   -1    0    0  502  503 -0.00000000000E+00 -0.00000000000E+00 -0.75088909815E+02  0.75088909815E+02  0.00000000000E+00 0.  1.
         -6    2    1    2    0  503 -0.77583632547E+02 -0.61345883717E+02  0.10115591355E+03  0.22287779548E+03  0.17221920736E+03 0.  0.
        -24    2    3    3    0    0 -0.16126812056E+02 -0.15841692371E+01 -0.98866525619E+01  0.82517741361E+02  0.80304720168E+02 0.  0.
          6    2    1    2  501    0  0.77583632547E+02  0.61345883717E+02  0.67882328542E+03  0.70727922312E+03  0.17222168605E+03 0.  0.
         24    2    5    5    0    0  0.89804102975E+02 -0.12280565905E+02  0.41487283128E+03  0.43293978698E+03  0.84272200688E+02 0.  0.
          5    1    5    5  501    0 -0.12220470428E+02  0.73626449622E+02  0.26395045414E+03  0.27433943614E+03  0.47000000000E+01 0. -1.
        -13    1    6    6    0    0  0.94497822933E+01 -0.32192450653E+02  0.62100809428E+02  0.70584437350E+02  0.00000000000E+00 0.  1.
         14    1    6    6    0    0  0.80354320681E+02  0.19911884748E+02  0.35277202185E+03  0.36235534963E+03  0.00000000000E+00 0. -1.
         -5    1    3    3    0  503 -0.61456820491E+02 -0.59761714480E+02  0.11104256612E+03  0.14036005412E+03  0.47000000000E+01 0.  1.
         11    1    4    4    0    0  0.12741275092E+02 -0.31994884931E+02  0.10348593931E+02  0.35959785164E+02  0.00000000000E+00 0. -1.
        -12    1    4    4    0    0 -0.28868087148E+02  0.30410715694E+02 -0.20235246493E+02  0.46557956197E+02  0.00000000000E+00 0.  1.
</event>
<event>
12    1  0.8358445E-002  0.2187958E+03  0.7818608E-02  0.1135449E+00
         21   -1    0    0  503  502  0.00000000000E+00  0.00000000000E+00  0.54407380072E+03  0.54407380072E+03  0.00000000000E+00 0. -1.
         21   -1    0    0  501  503 -0.00000000000E+00 -0.00000000000E+00 -0.39488732897E+03  0.39488732897E+03  0.00000000000E+00 0.  1.
          6    2    1    2  501    0  0.74996669365E+02 -0.11231078052E+03 -0.34010341941E+03  0.40440320112E+03  0.17214354867E+03 0.  0.
         24    2    3    3    0    0  0.10706708582E+03 -0.52102358769E+02 -0.27238999019E+03  0.30817033690E+03  0.81207346537E+02 0.  0.
         -6    2    1    2    0  502 -0.74996669365E+02  0.11231078052E+03  0.48928989116E+03  0.53455792857E+03  0.16765849088E+03 0.  0.
        -24    2    5    5    0    0 -0.92028966602E+02  0.23797959897E+02  0.25300088073E+03  0.28161681879E+03  0.79138570795E+02 0.  0.
          5    1    3    3  501    0 -0.32070416452E+02 -0.60208421747E+02 -0.67713429222E+02  0.96232864229E+02  0.47000000000E+01 0. -1.
        -13    1    4    4    0    0  0.24692772192E+02 -0.41430122415E+02 -0.16788774499E+03  0.17467822692E+03  0.00000000000E+00 0.  1.
         14    1    4    4    0    0  0.82374313626E+02 -0.10672236354E+02 -0.10450224520E+03  0.13349210998E+03  0.00000000000E+00 0. -1.
         -5    1    5    5    0  502  0.17032297237E+02  0.88512820618E+02  0.23628901043E+03  0.25294110977E+03  0.47000000000E+01 0.  1.
         11    1    6    6    0    0 -0.37127431391E+02  0.43321278104E+02  0.17623841046E+03  0.18524350628E+03  0.00000000000E+00 0. -1.
        -12    1    6    6    0    0 -0.54901535211E+02 -0.19523318207E+02  0.76762470272E+02  0.96373312512E+02  0.00000000000E+00 0.  1.
</event>
<event>
12    1  0.8358445E-002  0.1935534E+03  0.7818608E-02  0.1155462E+00
         21   -1    0    0  503  502  0.00000000000E+00  0.00000000000E+00  0.62460290715E+03  0.62460290715E+03  0.00000000000E+00 0. -1.
         21   -1    0    0  501  503 -0.00000000000E+00 -0.00000000000E+00 -0.72097797349E+02  0.72097797349E+02  0.00000000000E+00 0. -1.
          6    2    1    2  501    0 -0.12040403935E+02 -0.82353377351E+02  0.13250788107E+03  0.23456610356E+03  0.17474515245E+03 0.  0.
         24    2    3    3    0    0 -0.12028630613E+02  0.18585361521E+01  0.12831867125E+03  0.15011916168E+03  0.76954136996E+02 0.  0.
         -6    2    1    2    0  502  0.12040403935E+02  0.82353377351E+02  0.41999722873E+03  0.46213460094E+03  0.17390706471E+03 0.  0.
        -24    2    5    5    0    0  0.68903261439E+02  0.48634460301E+02  0.32693178262E+03  0.34788217344E+03  0.83813160915E+02 0.  0.
          5    1    3    3  501    0 -0.11773321582E-01 -0.84211913503E+02  0.41892098247E+01  0.84446941883E+02  0.47000000000E+01 0. -1.
        -13    1    4    4    0    0 -0.39425933365E+02  0.63165328962E+01  0.36152304961E+02  0.53863642316E+02  0.00000000000E+00 0.  1.
         14    1    4    4    0    0  0.27397302752E+02 -0.44579967441E+01  0.92166366285E+02  0.96255519360E+02  0.00000000000E+00 0. -1.
         -5    1    5    5    0  502 -0.56862857504E+02  0.33718917050E+02  0.93065446106E+02  0.11425242750E+03  0.47000000000E+01 0.  1.
         11    1    6    6    0    0  0.22332316368E+02 -0.19391334054E+02  0.42747774183E+02  0.51982000619E+02  0.00000000000E+00 0. -1.
        -12    1    6    6    0    0  0.46570945070E+02  0.68025794355E+02  0.28418400844E+03  0.29590017282E+03  0.00000000000E+00 0.  1.
</event>
<event>
12    1  0.8358445E-002  0.2018360E+03  0.7818608E-02  0.1148276E+00
         21   -1    0    0  503  502  0.00000000000E+00  0.00000000000E+00  0.18012300203E+04  0.18012300203E+04  0.00000000000E+00 0. -1.
         21   -1    0    0  501  503 -0.00000000000E+00 -0.00000000000E+00 -0.36904303025E+02  0.36904303025E+02  0.00000000000E+00 0. -1.
          6    2    1    2  501    0  0.10217164497E+03 -0.23993162452E+02  0.30898757786E+03  0.36886686315E+03  0.17197302864E+03 0.  0.
         24    2    3    3    0    0 -0.10013444006E+02 -0.10472926320E+02  0.79496573679E+02  0.11302217985E+03  0.79021241859E+02 0.  0.
         -6    2    1    2    0  502 -0.10217164497E+03  0.23993162452E+02  0.14553381394E+04  0.14692674601E+04  0.17240374882E+03 0.  0.
        -24    2    5    5    0    0 -0.56773463501E+02 -0.21510020985E+02  0.12733117766E+04  0.12761684665E+04  0.59976390301E+02 0.  0.
          5    1    3    3  501    0  0.11218508897E+03 -0.13520236132E+02  0.22949100418E+03  0.25584468330E+03  0.47000000000E+01 0. -1.
        -13    1    4    4    0    0 -0.31440960735E+02 -0.33521135284E+02  0.31832258032E+02  0.55906110346E+02  0.00000000000E+00 0.  1.
         14    1    4    4    0    0  0.21427516729E+02  0.23048208963E+02  0.47664315647E+02  0.57116069505E+02  0.00000000000E+00 0. -1.
         -5    1    5    5    0  502 -0.45398181465E+02  0.45503183438E+02  0.18202636279E+03  0.19309899361E+03  0.47000000000E+01 0.  1.
         13    1    6    6    0    0 -0.17817679716E+02 -0.26156179379E+02  0.23569942428E+03  0.23781470526E+03  0.00000000000E+00 0. -1.
        -14    1    6    6    0    0 -0.38955783785E+02  0.46461583938E+01  0.10376123523E+04  0.10383537613E+04  0.00000000000E+00 0.  1.
</event>
<event>
12    1  0.8358445E-002  0.1979101E+03  0.7818608E-02  0.1151594E+00
         21   -1    0    0  503  502  0.00000000000E+00  0.00000000000E+00  0.31095917500E+03  0.31095917500E+03  0.00000000000E+00 0.  1.
         21   -1    0    0  501  503 -0.00000000000E+00 -0.00000000000E+00 -0.19739029925E+03  0.19739029925E+03  0.00000000000E+00 0. -1.
          6    2    1    2  501    0 -0.80617513610E+02  0.54807979155E+02 -0.96336613689E+02  0.22011169166E+03  0.17223622031E+03 0.  0.
         24    2    3    3    0    0  0.21507425842E+02  0.42886139696E+02 -0.56630285807E+02  0.10979253653E+03  0.80905015062E+02 0.  0.
         -6    2    1    2    0  502  0.80617513610E+02 -0.54807979155E+02  0.20990548944E+03  0.28823778259E+03  0.17180688793E+03 0.  0.
        -24    2    5    5    0    0  0.51852228373E+01 -0.82797346813E+02  0.15336679579E+03  0.18978906969E+03  0.74941508845E+02 0.  0.
          5    1    3    3  501    0 -0.10212493945E+03  0.11921839459E+02 -0.39706327882E+02  0.11031915513E+03  0.47000000000E+01 0. -1.
        -11    1    4    4    0    0 -0.10860850305E+02 -0.11788722177E+02  0.90512958008E+01  0.18408095926E+02  0.00000000000E+00 0.  1.
         12    1    4    4    0    0  0.32368276148E+02  0.54674861874E+02 -0.65681581608E+02  0.91384440603E+02  0.00000000000E+00 0. -1.
         -5    1    5    5    0  502  0.75432290772E+02  0.27989367657E+02  0.56538693649E+02  0.98448712904E+02  0.47000000000E+01 0.  1.
         11    1    6    6    0    0 -0.28211633700E+02 -0.29482355789E+02  0.27895979957E+02  0.49429659888E+02  0.00000000000E+00 0. -1.
        -12    1    6    6    0    0  0.33396856537E+02 -0.53314991023E+02  0.12547081583E+03  0.14035940980E+03  0.00000000000E+00 0.  1.
</event>
<event>
12    1  0.8358445E-002  0.2448915E+03  0.7818608E-02  0.1117336E+00
         21   -1    0    0  501  502  0.00000000000E+00  0.00000000000E+00  0.81704820680E+02  0.81704820680E+02  0.00000000000E+00 0.  1.
         21   -1    0    0  502  503 -0.00000000000E+00 -0.00000000000E+00 -0.13736335159E+04  0.13736335159E+04  0.00000000000E+00 0.  1.
         -6    2    1    2    0  503 -0.12410645671E+03 -0.11230609561E+03 -0.11446022404E+04  0.11695466109E+04  0.17236564237E+03 0.  0.
        -24    2    3    3    0    0 -0.26965983360E+02 -0.38931601974E+02 -0.26236626898E+03  0.27893867970E+03  0.82023740727E+02 0.  0.
          6    2    1    2  501    0  0.12410645671E+03  0.11230609561E+03 -0.14732645484E+03  0.28579172568E+03  0.17876452239E+03 0.  0.
         24    2    5    5    0    0  0.10138299765E+03  0.13803400054E+03 -0.70767561821E+02  0.20175819200E+03  0.79789865991E+02 0.  0.
          5    1    5    5  501    0  0.22723459063E+02 -0.25727904931E+02 -0.76558893019E+02  0.84033533688E+02  0.47000000000E+01 0. -1.
        -13    1    6    6    0    0  0.60654213350E+02  0.11089333128E+03 -0.14567848751E+02  0.12723398420E+03  0.00000000000E+00 0.  1.
         14    1    6    6    0    0  0.40728784297E+02  0.27140669264E+02 -0.56199713070E+02  0.74524207795E+02  0.00000000000E+00 0. -1.
         -5    1    3    3    0  503 -0.97140473349E+02 -0.73374493635E+02 -0.88223597144E+03  0.89060793124E+03  0.47000000000E+01 0.  1.
         13    1    4    4    0    0 -0.49458332487E+02 -0.34133878482E+02 -0.11466637802E+03  0.12945897636E+03  0.00000000000E+00 0. -1.
        -14    1    4    4    0    0  0.22492349127E+02 -0.47977234922E+01 -0.14769989096E+03  0.14947970334E+03  0.00000000000E+00 0.  1.
</event>
<event>
12    1  0.8358445E-002  0.2515542E+03  0.7818608E-02  0.1113228E+00
         21   -1    0    0  503  502  0.00000000000E+00  0.00000000000E+00  0.61111609816E+03  0.61111609816E+03  0.00000000000E+00 0.  1.
         21   -1    0    0  501  503 -0.00000000000E+00 -0.00000000000E+00 -0.11849598489E+03  0.11849598489E+03  0.00000000000E+00 0. -1.
          6    2    1    2  501    0  0.10547370941E+03  0.14205013382E+03  0.10943651295E+03  0.27432798566E+03  0.17881987992E+03 0.  0.
         24    2    3    3    0    0  0.10740307981E+03  0.17364116541E+03  0.99562636153E+02  0.24084217986E+03  0.80034749972E+02 0.  0.
         -6    2    1    2    0  502 -0.10547370941E+03 -0.14205013382E+03  0.38318360031E+03  0.45528409739E+03  0.17073662141E+03 0.  0.
        -24    2    5    5    0    0 -0.51927681028E+02 -0.15370391822E+03  0.33989995493E+03  0.38529444241E+03  0.81230840563E+02 0.  0.
          5    1    3    3  501    0 -0.19293704003E+01 -0.31591031592E+02  0.98738768016E+01  0.33485805803E+02  0.47000000000E+01 0. -1.
        -11    1    4    4    0    0  0.76595046679E+01  0.13020594526E+02 -0.13741029201E+02  0.20421062094E+02  0.00000000000E+00 0.  1.
         12    1    4    4    0    0  0.99743575139E+02  0.16062057089E+03  0.11330366535E+03  0.22042111776E+03  0.00000000000E+00 0. -1.
         -5    1    5    5    0  502 -0.53546028379E+02  0.11653784400E+02  0.43283645378E+02  0.69989654973E+02  0.47000000000E+01 0.  1.
         11    1    6    6    0    0 -0.20995132854E+02 -0.34312877315E+01  0.15118698607E+02  0.26098743008E+02  0.00000000000E+00 0. -1.
        -12    1    6    6    0    0 -0.30932548173E+02 -0.15027263049E+03  0.32478125633E+03  0.35919569941E+03  0.00000000000E+00 0.  1.
</event>
<event>
12    1  0.8358445E-002  0.2044311E+03  0.7818608E-02  0.1146602E+00
         21   -1    0    0  501  502  0.00000000000E+00  0.00000000000E+00  0.50945119830E+03  0.50945119830E+03  0.00000000000E+00 0. -1.
         21   -1    0    0  502  503 -0.00000000000E+00 -0.00000000000E+00 -0.10561978902E+03  0.10561978902E+03  0.00000000000E+00 0. -1.
         -6    2    1    2    0  503 -0.37188962230E+02  0.10174117400E+03  0.34946939410E+03  0.40353536484E+03  0.17022822288E+03 0.  0.
        -24    2    3    3    0    0 -0.44958471914E+02  0.57175759675E+02  0.34045404855E+03  0.35716934398E+03  0.79816348020E+02 0.  0.
          6    2    1    2  501    0  0.37188962230E+02 -0.10174117400E+03  0.54362015177E+02  0.21153562248E+03  0.17337187051E+03 0.  0.
         24    2    5    5    0    0  0.33162575145E+02 -0.43987460205E+02 -0.36717764671E+02  0.10351099775E+03  0.79571850346E+02 0.  0.
          5    1    5    5  501    0  0.40263870846E+01 -0.57753713799E+02  0.91079779848E+02  0.10802462473E+03  0.47000000000E+01 0. -1.
        -13    1    6    6    0    0  0.44398531163E+02 -0.61281990642E+02 -0.24512231971E+02  0.79545970751E+02  0.00000000000E+00 0.  1.
         14    1    6    6    0    0 -0.11235956018E+02  0.17294530436E+02 -0.12205532700E+02  0.23965027001E+02  0.00000000000E+00 0. -1.
         -5    1    3    3    0  503  0.77695096844E+01  0.44565414329E+02  0.90153455475E+01  0.46366020860E+02  0.47000000000E+01 0.  1.
         13    1    4    4    0    0 -0.39144996020E+01  0.65906584804E+02  0.20741112782E+03  0.21766574643E+03  0.00000000000E+00 0. -1.
        -14    1    4    4    0    0 -0.41043972312E+02 -0.87308251285E+01  0.13304292073E+03  0.13950359755E+03  0.00000000000E+00 0.  1.
</event>
<event>
12    1  0.8358445E-002  0.1750177E+03  0.7818608E-02  0.1173061E+00
         21   -1    0    0  503  502  0.00000000000E+00  0.00000000000E+00  0.21268984697E+02  0.21268984697E+02  0.00000000000E+00 0. -1.
         21   -1    0    0  501  503 -0.00000000000E+00 -0.00000000000E+00 -0.14350344634E+04  0.14350344634E+04  0.00000000000E+00 0. -1.
          6    2    1    2  501    0 -0.26603258028E+02  0.16952192291E+01 -0.75743056337E+03  0.77738809488E+03  0.17297567639E+03 0.  0.
         24    2    3    3    0    0 -0.10857831421E+02  0.65164605892E+02 -0.36405358954E+03  0.37858511715E+03  0.80170795849E+02 0.  0.
         -6    2    1    2    0  502  0.26603258028E+02 -0.16952192291E+01 -0.65633491537E+03  0.67891535326E+03  0.17158067680E+03 0.  0.
        -24    2    5    5    0    0  0.13438033198E+02  0.58038544200E+02 -0.26715155285E+03  0.28492648882E+03  0.79146057972E+02 0.  0.
          5    1    3    3  501    0 -0.15745426607E+02 -0.63469386663E+02 -0.39337697383E+03  0.39880297772E+03  0.47000000000E+01 0. -1.
        -13    1    4    4    0    0  0.63938324522E+01  0.65254687882E+02 -0.35067926897E+03  0.35675622639E+03  0.00000000000E+00 0.  1.
         14    1    4    4    0    0 -0.17251663873E+02 -0.90081989395E-01 -0.13374320576E+02  0.21828890765E+02  0.00000000000E+00 0. -1.
         -5    1    5    5    0  502  0.13165224830E+02 -0.59733763430E+02 -0.38918336252E+03  0.39398886444E+03  0.47000000000E+01 0.  1.
         11    1    6    6    0    0  0.42104493954E+02  0.20050652640E+02 -0.88383648538E+02  0.99932409214E+02  0.00000000000E+00 0. -1.
        -12    1    6    6    0    0 -0.28666460756E+02  0.37987891560E+02 -0.17876790431E+03  0.18499407961E+03  0.00000000000E+00 0.  1.
</event>
<event>
12    1  0.8358445E-002  0.2394976E+03  0.7818608E-02  0.1120405E+00
         21   -1    0    0  501  502  0.00000000000E+00  0.00000000000E+00  0.25007003813E+03  0.25007003813E+03  0.00000000000E+00 0.  1.
         21   -1    0    0  502  503 -0.00000000000E+00 -0.00000000000E+00 -0.23330005892E+03  0.23330005892E+03  0.00000000000E+00 0.  1.
         -6    2    1    2    0  503 -0.96163684348E+02  0.13586696469E+03  0.45492655935E+02  0.24215635001E+03  0.16989064078E+03 0.  0.
        -24    2    3    3    0    0 -0.62277522473E+02  0.14998639025E+03  0.73897906740E+02  0.19550253540E+03  0.79912037019E+02 0.  0.
          6    2    1    2  501    0  0.96163684348E+02 -0.13586696469E+03 -0.28722676724E+02  0.24121374704E+03  0.17219696084E+03 0.  0.
         24    2    5    5    0    0  0.54426674105E+02 -0.64100572207E+02  0.47659393857E+02  0.12830358886E+03  0.84375629662E+02 0.  0.
          5    1    5    5  501    0  0.41737010243E+02 -0.71766392481E+02 -0.76382070581E+02  0.11291015818E+03  0.47000000000E+01 0. -1.
        -11    1    6    6    0    0  0.68658141851E+02 -0.66133475190E+02  0.20402082433E+02  0.97487547670E+02  0.00000000000E+00 0.  1.
         12    1    6    6    0    0 -0.14231467746E+02  0.20329029830E+01  0.27257311424E+02  0.30816041193E+02  0.00000000000E+00 0. -1.
         -5    1    3    3    0  503 -0.33886161875E+02 -0.14119425561E+02 -0.28405250805E+02  0.46653814615E+02  0.47000000000E+01 0.  1.
         11    1    4    4    0    0 -0.12435452429E+02 -0.82651126615E+01  0.39467763435E+01  0.15444403774E+02  0.00000000000E+00 0. -1.
        -12    1    4    4    0    0 -0.49842070044E+02  0.15825150291E+03  0.69951130397E+02  0.18005813162E+03  0.00000000000E+00 0.  1.
</event>
<event>
12    1  0.8358445E-002  0.1717398E+03  0.7818608E-02  0.1176168E+00
         21   -1    0    0  503  502  0.00000000000E+00  0.00000000000E+00  0.25660911685E+03  0.25660911685E+03  0.00000000000E+00 0. -1.
         21   -1    0    0  501  503 -0.00000000000E+00 -0.00000000000E+00 -0.11607095042E+03  0.11607095042E+03  0.00000000000E+00 0. -1.
          6    2    1    2  501    0  0.50698369173E+01  0.59470252592E+01  0.49347603191E+02  0.17823137708E+03  0.17108526377E+03 0.  0.
         24    2    3    3    0    0  0.70750315450E+02  0.33541099325E+01  0.43505671137E+02  0.11207348534E+03  0.75172238926E+02 0.  0.
         -6    2    1    2    0  502 -0.50698369173E+01 -0.59470252592E+01  0.91190563238E+02  0.19444869018E+03  0.17156195363E+03 0.  0.
        -24    2    5    5    0    0  0.51255825036E+02 -0.41488517517E+02  0.66294426862E+02  0.12319081011E+03  0.80203291554E+02 0.  0.
          5    1    3    3  501    0 -0.65680478532E+02  0.25929153267E+01  0.58419320535E+01  0.66157891746E+02  0.47000000000E+01 0. -1.
        -11    1    4    4    0    0  0.29453403429E+02 -0.26130462091E+02 -0.75499145512E+01  0.40091211410E+02  0.00000000000E+00 0.  1.
         12    1    4    4    0    0  0.41296912021E+02  0.29484572023E+02  0.51055585688E+02  0.71982273928E+02  0.00000000000E+00 0. -1.
         -5    1    5    5    0  502 -0.56325661953E+02  0.35541492258E+02  0.24896136377E+02  0.71257880075E+02  0.47000000000E+01 0.  1.
         13    1    6    6    0    0 -0.16810313489E+02 -0.97448421667E+01 -0.45382652688E+01  0.19953557079E+02  0.00000000000E+00 0. -1.
        -14    1    6    6    0    0  0.68066138525E+02 -0.31743675350E+02  0.70832692130E+02  0.10323725303E+03  0.00000000000E+00 0.  1.
</event>
<event>
12    1  0.8358445E-002  0.2617606E+03  0.7818608E-02  0.1106227E+00
         21   -1    0    0  501  502  0.00000000000E+00  0.00000000000E+00  0.10866351440E+03  0.10866351440E+03  0.00000000000E+00 0. -1.
         21   -1    0    0  502  503 -0.00000000000E+00 -0.00000000000E+00 -0.12650529455E+04  0.12650529455E+04  0.00000000000E+00 0.  1.
         -6    2    1    2    0  503  0.22624733807E+01  0.19729451598E+03 -0.90406148756E+02  0.27606489411E+03  0.17061157405E+03 0.  0.
        -24    2    3    3    0    0  0.27974847574E+02  0.20553082639E+03 -0.10015350722E+03  0.24697771492E+03  0.89116519038E+02 0.  0.
          6    2    1    2  501    0 -0.22624733807E+01 -0.19729451598E+03 -0.10659832824E+04  0.10976515658E+04  0.17201266473E+03 0.  0.
         24    2    5    5    0    0  0.45387765744E+02 -0.17392051343E+03 -0.67978959563E+03  0.70779961577E+03  0.80981525531E+02 0.  0.
          5    1    5    5  501    0 -0.47650239125E+02 -0.23374002554E+02 -0.38619368673E+03  0.38985195005E+03  0.47000000000E+01 0. -1.
        -11    1    6    6    0    0  0.60989888962E+01 -0.94028592892E+02 -0.21778345631E+03  0.23729350558E+03  0.00000000000E+00 0.  1.
         12    1    6    6    0    0  0.39288776848E+02 -0.79891920539E+02 -0.46200613932E+03  0.47050611019E+03  0.00000000000E+00 0. -1.
         -5    1    3    3    0  503 -0.25712374194E+02 -0.82363104077E+01  0.97473584643E+01  0.29087179183E+02  0.47000000000E+01 0.  1.
         13    1    4    4    0    0  0.32406226673E+02  0.18715885235E+02 -0.27686124972E+02  0.46550718611E+02  0.00000000000E+00 0. -1.
        -14    1    4    4    0    0 -0.44313790983E+01  0.18681494116E+03 -0.72467382248E+02  0.20042699631E+03  0.00000000000E+00 0.  1.
</event>
<event>
12    1  0.8358445E-002  0.2244395E+03  0.7818608E-02  0.1131866E+00
         21   -1    0    0  501  502  0.00000000000E+00  0.00000000000E+00  0.13195572860E+03  0.13195572860E+03  0.00000000000E+00 0.  1.
         21   -1    0    0  502  503 -0.00000000000E+00 -0.00000000000E+00 -0.59016102552E+03  0.59016102552E+03  0.00000000000E+00 0.  1.
         -6    2    1    2    0  503 -0.10361516722E+03  0.83418072066E+02 -0.45165984047E+03  0.50435077882E+03  0.18077173169E+03 0.  0.
        -24    2    3    3    0    0 -0.14038444441E+03  0.91513229469E+02 -0.36784185383E+03  0.41234503876E+03  0.81475997470E+02 0.  0.
          6    2    1    2  501    0  0.10361516722E+03 -0.83418072066E+02 -0.65454564523E+01  0.21776597531E+03  0.17229190165E+03 0.  0.
         24    2    5    5    0    0  0.37871451284E+02 -0.10075077589E+03  0.27571001407E+02  0.14155126870E+03  0.87701971965E+02 0.  0.
          5    1    5    5  501    0  0.65743715937E+02  0.17332703822E+02 -0.34116457859E+02  0.76214706611E+02  0.47000000000E+01 0. -1.
        -11    1    6    6    0    0  0.41754565581E+02 -0.32441115432E+02  0.46658550294E+02  0.70518721151E+02  0.00000000000E+00 0.  1.
         12    1    6    6    0    0 -0.38831142960E+01 -0.68309660456E+02 -0.19087548887E+02  0.71032547545E+02  0.00000000000E+00 0. -1.
         -5    1    3    3    0  503  0.36769277194E+02 -0.80951574031E+01 -0.83817986640E+02  0.92005740055E+02  0.47000000000E+01 0.  1.
         11    1    4    4    0    0  0.41759806137E+01 -0.27184406870E+01 -0.53681525566E+02  0.53912289146E+02  0.00000000000E+00 0. -1.
        -12    1    4    4    0    0 -0.14456042503E+03  0.94231670156E+02 -0.31416032826E+03  0.35843274962E+03  0.00000000000E+00 0.  1.
</event>
<event>
12    1  0.8358445E-002  0.2374262E+03  0.7818608E-02  0.1121582E+00
         21   -1    0    0  501  502  0.00000000000E+00  0.00000000000E+00  0.29761895704E+03  0.29761895704E+03  0.00000000000E+00 0.  1.
         21   -1    0    0  502  503 -0.00000000000E+00 -0.00000000000E+00 -0.35406975663E+03  0.35406975663E+03  0.00000000000E+00 0.  1.
         -6    2    1    2    0  503 -0.10488623310E+03  0.12532370023E+03 -0.25064727440E+03  0.34524666646E+03  0.17223255443E+03 0.  0.
        -24    2    3    3    0    0 -0.33252357232E+02  0.13380142128E+01 -0.13690156880E+03  0.16231488122E+03  0.80601312536E+02 0.  0.
          6    2    1    2  501    0  0.10488623310E+03 -0.12532370023E+03  0.19419647482E+03  0.30644204721E+03  0.17171868196E+03 0.  0.
         24    2    5    5    0    0  0.60922924576E+02 -0.10735378178E+03  0.50959129136E+02  0.15546285108E+03  0.79595402028E+02 0.  0.
          5    1    5    5  501    0  0.43963308526E+02 -0.17969918457E+02  0.14323734568E+03  0.15097919613E+03  0.47000000000E+01 0. -1.
        -13    1    6    6    0    0  0.42101510637E+02 -0.53140373490E+02  0.67570497089E+02  0.95719426291E+02  0.00000000000E+00 0.  1.
         14    1    6    6    0    0  0.18821413939E+02 -0.54213408285E+02 -0.16611367953E+02  0.59743424791E+02  0.00000000000E+00 0. -1.
         -5    1    3    3    0  503 -0.71633875870E+02  0.12398568602E+03 -0.11374570560E+03  0.18293178524E+03  0.47000000000E+01 0.  1.
         11    1    4    4    0    0 -0.85272812856E+01  0.10132082486E+02  0.77219339457E+01  0.15329771215E+02  0.00000000000E+00 0. -1.
        -12    1    4    4    0    0 -0.24725075946E+02 -0.87940682736E+01 -0.14462350274E+03  0.14698511000E+03  0.00000000000E+00 0.  1.
</event>
<event>
12    1  0.8358445E-002  0.2640614E+03  0.7818608E-02  0.1106507E+00
         21   -1    0    0  503  502  0.00000000000E+00  0.00000000000E+00  0.35409205485E+03  0.35409205485E+03  0.00000000000E+00 0.  1.
         21   -1    0    0  501  503 -0.00000000000E+00 -0.00000000000E+00 -0.19066794620E+03  0.19066794620E+03  0.00000000000E+00 0.  1.
          6    2    1    2  501    0  0.18335840967E+03  0.20343853640E+02  0.49027659908E+02  0.25698408656E+03  0.17205502181E+03 0.  0.
         24    2    3    3    0    0  0.16514305621E+03  0.37253292741E+02 -0.15669397784E+02  0.18751806964E+03  0.79104105973E+02 0.  0.
         -6    2    1    2    0  502 -0.18335840967E+03 -0.20343853640E+02  0.11439644874E+03  0.28777591449E+03  0.18892922139E+03 0.  0.
        -24    2    5    5    0    0 -0.22787377170E+02  0.22331614692E+02 -0.38587549001E+01  0.83789063775E+02  0.77380563747E+02 0.  0.
          5    1    3    3  501    0  0.18215353467E+02 -0.16909439101E+02  0.64697057692E+02  0.69466016920E+02  0.47000000000E+01 0. -1.
        -11    1    4    4    0    0  0.86219189951E+01 -0.77870996996E+00 -0.24716525361E+02  0.26188747627E+02  0.00000000000E+00 0.  1.
         12    1    4    4    0    0  0.15652113721E+03  0.38032002711E+02  0.90471275770E+01  0.16132932201E+03  0.00000000000E+00 0. -1.
         -5    1    5    5    0  502 -0.16057103250E+03 -0.42675468332E+02  0.11825520364E+03  0.20398685071E+03  0.47000000000E+01 0.  1.
         11    1    6    6    0    0  0.11649579978E+02  0.37091912690E+02  0.15211339466E+02  0.41748144258E+02  0.00000000000E+00 0. -1.
        -12    1    6    6    0    0 -0.34436957149E+02 -0.14760297998E+02 -0.19070094366E+02  0.42040919516E+02  0.00000000000E+00 0.  1.
</event>
<event>
12    1  0.8358445E-002  0.2322450E+03  0.7818608E-02  0.1125664E+00
         21   -1    0    0  501  502  0.00000000000E+00  0.00000000000E+00  0.44043162573E+03  0.44043162573E+03  0.00000000000E+00 0.  1.
         21   -1    0    0  502  503 -0.00000000000E+00 -0.00000000000E+00 -0.12439616448E+03  0.12439616448E+03  0.00000000000E+00 0.  1.
         -6    2    1    2    0  503 -0.28392121885E+02  0.14822877220E+03  0.11034364966E+03  0.25712539019E+03  0.17652156743E+03 0.  0.
        -24    2    3    3    0    0  0.26042294812E+01  0.11813998436E+03  0.14461678801E+03  0.20178239637E+03  0.76408652618E+02 0.  0.
          6    2    1    2  501    0  0.28392121885E+02 -0.14822877220E+03  0.20569181159E+03  0.30770240003E+03  0.17202838177E+03 0.  0.
         24    2    5    5    0    0 -0.47170037930E+02 -0.58057311538E+02  0.82373581879E+02  0.13720310944E+03  0.80272176661E+02 0.  0.
          5    1    5    5  501    0  0.75562159815E+02 -0.90171460663E+02  0.12331822971E+03  0.17049929059E+03  0.47000000000E+01 0. -1.
        -13    1    6    6    0    0  0.11582286686E+01 -0.56538745156E+02  0.24073875726E+02  0.61461554568E+02  0.00000000000E+00 0.  1.
         14    1    6    6    0    0 -0.48328266598E+02 -0.15185663820E+01  0.58299706152E+02  0.75741554867E+02  0.00000000000E+00 0. -1.
         -5    1    3    3    0  503 -0.30996351367E+02  0.30088787846E+02 -0.34273138355E+02  0.55342993818E+02  0.47000000000E+01 0.  1.
         11    1    4    4    0    0  0.54005602774E+01  0.40889305563E+01  0.58378391529E+02  0.58770077437E+02  0.00000000000E+00 0. -1.
        -12    1    4    4    0    0 -0.27963307962E+01  0.11405105380E+03  0.86238396486E+02  0.14301231893E+03  0.00000000000E+00 0.  1.
</event>
<event>
12    1  0.8358445E-002  0.1911194E+03  0.7818608E-02  0.1157618E+00
         21   -1    0    0  501  502  0.00000000000E+00  0.00000000000E+00  0.12351005864E+03  0.12351005864E+03  0.00000000000E+00 0.  1.
         21   -1    0    0  502  503 -0.00000000000E+00 -0.00000000000E+00 -0.40588794215E+03  0.40588794215E+03  0.00000000000E+00 0.  1.
         -6    2    1    2    0  503  0.38364178214E+02 -0.72965819963E+02 -0.27958616329E+03  0.33825823532E+03  0.17162281318E+03 0.  0.
        -24    2    3    3    0    0  0.31777789863E+02 -0.85562316567E+01 -0.25341699757E+03  0.26826615854E+03  0.81630387304E+02 0.  0.
          6    2    1    2  501    0 -0.38364178214E+02  0.72965819963E+02 -0.27917202211E+01  0.19113976547E+03  0.17242620216E+03 0.  0.
         24    2    5    5    0    0 -0.68878822347E+02 -0.64757595232E+01  0.40345725682E+01  0.10563657061E+03  0.79728160932E+02 0.  0.
          5    1    5    5  501    0  0.30514644133E+02  0.79441579486E+02 -0.68262927893E+01  0.85503194859E+02  0.47000000000E+01 0. -1.
        -13    1    6    6    0    0 -0.95582121498E+01  0.26219765439E+02 -0.19371869460E+02  0.33972118649E+02  0.00000000000E+00 0.  1.
         14    1    6    6    0    0 -0.59320610198E+02 -0.32695524962E+02  0.23406442028E+02  0.71664451963E+02  0.00000000000E+00 0. -1.
         -5    1    3    3    0  503  0.65863883513E+01 -0.64409588307E+02 -0.26169165723E+02  0.69992076780E+02  0.47000000000E+01 0.  1.
         11    1    4    4    0    0  0.17597501793E+02  0.34935114712E+02 -0.15298755516E+03  0.15790923451E+03  0.00000000000E+00 0. -1.
        -12    1    4    4    0    0  0.14180288069E+02 -0.43491346369E+02 -0.10042944241E+03  0.11035692403E+03  0.00000000000E+00 0.  1.
</event>
<event>
12    1  0.8358445E-002  0.1924125E+03  0.7818608E-02  0.1156535E+00
         21   -1    0    0  501  502  0.00000000000E+00  0.00000000000E+00  0.62100417525E+02  0.62100417525E+02  0.00000000000E+00 0. -1.
         21   -1    0    0  502  503 -0.00000000000E+00 -0.00000000000E+00 -0.62335207561E+03  0.62335207561E+03  0.00000000000E+00 0. -1.
         -6    2    1    2    0  503 -0.13690635607E+02  0.83015809267E+02 -0.35703326607E+03  0.40558023751E+03  0.17304195411E+03 0.  0.
        -24    2    3    3    0    0  0.29296494744E+02  0.47900327683E+01 -0.27320220167E+03  0.28303676422E+03  0.67743175952E+02 0.  0.
          6    2    1    2  501    0  0.13690635607E+02 -0.83015809267E+02 -0.20421839201E+03  0.27987225563E+03  0.17188446626E+03 0.  0.
         24    2    5    5    0    0  0.74558669205E+02 -0.46329422983E+02 -0.13879254528E+03  0.18315907207E+03  0.81107733727E+02 0.  0.
          5    1    5    5  501    0 -0.60868033597E+02 -0.36686386285E+02 -0.65425846732E+02  0.96713183554E+02  0.47000000000E+01 0. -1.
        -11    1    6    6    0    0  0.13256716422E+02 -0.18988098977E+02 -0.10591433256E+03  0.10841648525E+03  0.00000000000E+00 0.  1.
         12    1    6    6    0    0  0.61301952782E+02 -0.27341324006E+02 -0.32878212724E+02  0.74742586825E+02  0.00000000000E+00 0. -1.
         -5    1    3    3    0  503 -0.42987130351E+02  0.78225776499E+02 -0.83831064407E+02  0.12254347328E+03  0.47000000000E+01 0.  1.
         13    1    4    4    0    0  0.55279618586E+01  0.29469801876E+02 -0.59742623271E+02  0.66844660372E+02  0.00000000000E+00 0. -1.
        -14    1    4    4    0    0  0.23768532886E+02 -0.24679769108E+02 -0.21345957840E+03  0.21619210385E+03  0.00000000000E+00 0.  1.
</event>
<event>
12    1  0.8358445E-002  0.3030047E+03  0.7818608E-02  0.1083930E+00
         21   -1    0    0  503  502  0.00000000000E+00  0.00000000000E+00  0.10629474022E+03  0.10629474022E+03  0.00000000000E+00 0.  1.
         21   -1    0    0  501  503 -0.00000000000E+00 -0.00000000000E+00 -0.13682427442E+04  0.13682427442E+04  0.00000000000E+00 0. -1.
          6    2    1    2  501    0 -0.22876168547E+03 -0.98756374453E+02 -0.10795484619E+04  0.11208689585E+04  0.16981640119E+03 0.  0.
         24    2    3    3    0    0 -0.21815170205E+03 -0.31701183755E+02 -0.81154409824E+03  0.84435964701E+03  0.75790896333E+02 0.  0.
         -6    2    1    2    0  502  0.22876168547E+03  0.98756374453E+02 -0.18239954202E+03  0.35366852594E+03  0.17241549548E+03 0.  0.
        -24    2    5    5    0    0  0.16997209913E+03  0.58291763124E+01 -0.86085648688E+02  0.20741485705E+03  0.81766070210E+02 0.  0.
          5    1    3    3  501    0 -0.10609983420E+02 -0.67055190698E+02 -0.26800436371E+03  0.27650931145E+03  0.47000000000E+01 0. -1.
        -13    1    4    4    0    0 -0.75879654299E+02 -0.43207554425E+02 -0.24442410341E+03  0.25955299463E+03  0.00000000000E+00 0.  1.
         14    1    4    4    0    0 -0.14227204775E+03  0.11506370669E+02 -0.56711999483E+03  0.58480665238E+03  0.00000000000E+00 0. -1.
         -5    1    5    5    0  502  0.58789586345E+02  0.92927198141E+02 -0.96313893328E+02  0.14625366889E+03  0.47000000000E+01 0.  1.
         11    1    6    6    0    0  0.33703833964E+02  0.15964589373E+02 -0.56348331472E+02  0.67571821031E+02  0.00000000000E+00 0. -1.
        -12    1    6    6    0    0  0.13626826516E+03 -0.10135413061E+02 -0.29737317216E+02  0.13984303602E+03  0.00000000000E+00 0.  1.
</event>
<event>
12    1  0.8358445E-002  0.1796565E+03  0.7818608E-02  0.1168721E+00
         21   -1    0    0  503  502  0.00000000000E+00  0.00000000000E+00  0.10314996414E+03  0.10314996414E+03  0.00000000000E+00 0. -1.
         21   -1    0    0  501  503 -0.00000000000E+00 -0.00000000000E+00 -0.33402962318E+03  0.33402962318E+03  0.00000000000E+00 0. -1.
          6    2    1    2  501    0  0.45456613643E+02 -0.28786240570E+02 -0.17628913752E+03  0.25170281102E+03  0.17141030803E+03 0.  0.
         24    2    3    3    0    0  0.35869880642E+02  0.27682034431E+02 -0.17095164322E+03  0.19398669216E+03  0.79708400107E+02 0.  0.
         -6    2    1    2    0  502 -0.45456613643E+02  0.28786240570E+02 -0.54590521530E+02  0.18547677630E+03  0.16889807025E+03 0.  0.
        -24    2    5    5    0    0 -0.25839734059E+02 -0.92169400862E-01 -0.98363848654E+02  0.12928977874E+03  0.79829191488E+02 0.  0.
          5    1    3    3  501    0  0.95867330008E+01 -0.56468275001E+02 -0.53374943001E+01  0.57716118864E+02  0.47000000000E+01 0. -1.
        -13    1    4    4    0    0  0.52800738072E+02 -0.32326749456E+01 -0.75107332899E+02  0.91866640210E+02  0.00000000000E+00 0.  1.
         14    1    4    4    0    0 -0.16930857430E+02  0.30914709377E+02 -0.95844310319E+02  0.10212005195E+03  0.00000000000E+00 0. -1.
         -5    1    5    5    0  502 -0.19616879584E+02  0.28878409971E+02  0.43773327124E+02  0.56186997558E+02  0.47000000000E+01 0.  1.
         11    1    6    6    0    0  0.10486894652E+02  0.29180235298E+02 -0.64740689907E+02  0.71783131870E+02  0.00000000000E+00 0. -1.
        -12    1    6    6    0    0 -0.36326628710E+02 -0.29272404698E+02 -0.33623158747E+02  0.57506646872E+02  0.00000000000E+00 0.  1.
</event>
<event>
12    1  0.8358445E-002  0.1843988E+03  0.7818608E-02  0.1164489E+00
         21   -1    0    0  503  502  0.00000000000E+00  0.00000000000E+00  0.90470168845E+02  0.90470168845E+02  0.00000000000E+00 0. -1.
         21   -1    0    0  501  503 -0.00000000000E+00 -0.00000000000E+00 -0.37174471587E+03  0.37174471587E+03  0.00000000000E+00 0. -1.
          6    2    1    2  501    0  0.40900990152E+02  0.45627041026E+02 -0.16414437902E+03  0.24687303877E+03  0.17392010303E+03 0.  0.
         24    2    3    3    0    0 -0.28630573798E+02  0.91514281315E+01 -0.28206284089E+02  0.89817747949E+02  0.79800845808E+02 0.  0.
         -6    2    1    2    0  502 -0.40900990152E+02 -0.45627041026E+02 -0.11713016801E+03  0.21534184595E+03  0.16999387192E+03 0.  0.
        -24    2    5    5    0    0 -0.50469543647E+02 -0.54638766749E+02 -0.14599380441E+03  0.18327990710E+03  0.82126510667E+02 0.  0.
          5    1    3    3  501    0  0.69531563949E+02  0.36475612894E+02 -0.13593809493E+03  0.15705529082E+03  0.47000000000E+01 0. -1.
        -13    1    4    4    0    0  0.11982301478E+02  0.10740393218E+02  0.20705450436E+02  0.26223029438E+02  0.00000000000E+00 0.  1.
         14    1    4    4    0    0 -0.40612875276E+02 -0.15889650861E+01 -0.48911734525E+02  0.63594718510E+02  0.00000000000E+00 0. -1.
         -5    1    5    5    0  502  0.95685534954E+01  0.90117257232E+01  0.28863636398E+02  0.32061938847E+02  0.47000000000E+01 0.  1.
         11    1    6    6    0    0  0.22985252729E+01 -0.54082634987E+02 -0.49762305312E+02  0.73528917138E+02  0.00000000000E+00 0. -1.
        -12    1    6    6    0    0 -0.52768068920E+02 -0.55613176223E+00 -0.96231499093E+02  0.10975098996E+03  0.00000000000E+00 0.  1.
</event>
<event>
12    1  0.8358445E-002  0.2472748E+03  0.7818608E-02  0.1115522E+00
         21   -1    0    0  503  502  0.00000000000E+00  0.00000000000E+00  0.73532845568E+02  0.73532845568E+02  0.00000000000E+00 0. -1.
         21   -1    0    0  501  503 -0.00000000000E+00 -0.00000000000E+00 -0.82535426141E+03  0.82535426141E+03  0.00000000000E+00 0. -1.
          6    2    1    2  501    0  0.17316244299E+03 -0.38646834939E+02 -0.34748535253E+03  0.42648670056E+03  0.17223828268E+03 0.  0.
         24    2    3    3    0    0  0.12462105633E+03 -0.17525834371E+02 -0.34438449157E+03  0.37325073318E+03  0.69841744227E+02 0.  0.
         -6    2    1    2    0  502 -0.17316244299E+03  0.38646834939E+02 -0.40433606332E+03  0.47240040642E+03  0.16791570021E+03 0.  0.
        -24    2    5    5    0    0 -0.46701197329E+02  0.31846271624E+02 -0.27222854319E+03  0.28933434952E+03  0.80067466795E+02 0.  0.
          5    1    3    3  501    0  0.48541386660E+02 -0.21121000569E+02 -0.31008609594E+01  0.53235967377E+02  0.47000000000E+01 0. -1.
        -13    1    4    4    0    0  0.11078624436E+02  0.12090349148E+02 -0.10913779278E+03  0.11036290262E+03  0.00000000000E+00 0.  1.
         14    1    4    4    0    0  0.11354243189E+03 -0.29616183518E+02 -0.23524669879E+03  0.26288783056E+03  0.00000000000E+00 0. -1.
         -5    1    5    5    0  502 -0.12646124566E+03  0.68005633150E+01 -0.13210752013E+03  0.18306605690E+03  0.47000000000E+01 0.  1.
         13    1    6    6    0    0 -0.66977327736E+02  0.28097484476E+02 -0.24258184694E+03  0.25322200443E+03  0.00000000000E+00 0. -1.
        -14    1    6    6    0    0  0.20276130407E+02  0.37487871485E+01 -0.29646696246E+02  0.36112345087E+02  0.00000000000E+00 0.  1.
</event>
<event>
12    1  0.8358445E-002  0.1759349E+03  0.7818608E-02  0.1172488E+00
         21   -1    0    0  503  502  0.00000000000E+00  0.00000000000E+00  0.14004403268E+04  0.14004403268E+04  0.00000000000E+00 0. -1.
         21   -1    0    0  501  503 -0.00000000000E+00 -0.00000000000E+00 -0.33981613556E+03  0.33981613556E+03  0.00000000000E+00 0. -1.
          6    2    1    2  501    0 -0.79850695746E+01 -0.33331133100E+02 -0.31176490571E+03  0.35663623576E+03  0.16975665659E+03 0.  0.
         24    2    3    3    0    0 -0.52484254457E+02  0.46017410508E+01 -0.10574595283E+03  0.14242844099E+03  0.79547980965E+02 0.  0.
         -6    2    1    2    0  502  0.79850695746E+01  0.33331133100E+02  0.13723890969E+04  0.13836202266E+04  0.17256411056E+03 0.  0.
        -24    2    5    5    0    0 -0.18738820460E+02 -0.13343764855E+02  0.12006760206E+04  0.12036197183E+04  0.80921692885E+02 0.  0.
          5    1    3    3  501    0  0.44499184883E+02 -0.37932874151E+02 -0.20601895288E+03  0.21420779477E+03  0.47000000000E+01 0. -1.
        -11    1    4    4    0    0  0.61220009581E+01 -0.96083684541E+01  0.78378656921E+01  0.13828657877E+02  0.00000000000E+00 0.  1.
         12    1    4    4    0    0 -0.58606255416E+02  0.14210109505E+02 -0.11358381852E+03  0.12859978311E+03  0.00000000000E+00 0. -1.
         -5    1    5    5    0  502  0.26723890035E+02  0.46674897955E+02  0.17171307629E+03  0.18000050824E+03  0.47000000000E+01 0.  1.
         13    1    6    6    0    0 -0.37659714491E+02 -0.15877406679E+00  0.10857363450E+04  0.10863892904E+04  0.00000000000E+00 0. -1.
        -14    1    6    6    0    0  0.18920894031E+02 -0.13184990788E+02  0.11493967563E+03  0.11723042799E+03  0.00000000000E+00 0.  1.
</event>
<event>
12    1  0.8358445E-002  0.2313536E+03  0.7818608E-02  0.1125958E+00
         21   -1    0    0  503  502  0.00000000000E+00  0.00000000000E+00  0.24210576218E+03  0.24210576218E+03  0.00000000000E+00 0. -1.
         21   -1    0    0  501  503 -0.00000000000E+00 -0.00000000000E+00 -0.26549893635E+03  0.26549893635E+03  0.00000000000E+00 0.  1.
          6    2    1    2  501    0  0.15177502470E+03 -0.14755672998E+02  0.93835464671E+02  0.24824575079E+03  0.17195194196E+03 0.  0.
         24    2    3    3    0    0  0.17566302218E+03  0.11675181472E+02  0.84699503143E+02  0.21116769414E+03  0.80149747301E+02 0.  0.
         -6    2    1    2    0  502 -0.15177502470E+03  0.14755672998E+02 -0.11722863884E+03  0.25935894774E+03  0.17398598219E+03 0.  0.
        -24    2    5    5    0    0 -0.10520763467E+03 -0.57989147909E+02 -0.71755504066E+02  0.16163368606E+03  0.80902462495E+02 0.  0.
          5    1    3    3  501    0 -0.23887997478E+02 -0.26430854470E+02  0.91359615279E+01  0.37078056645E+02  0.47000000000E+01 0. -1.
        -13    1    4    4    0    0  0.64766658098E+02 -0.34413648442E+02  0.31584503061E+02  0.79853616285E+02  0.00000000000E+00 0.  1.
         14    1    4    4    0    0  0.11089636408E+03  0.46088829913E+02  0.53115000082E+02  0.13131407785E+03  0.00000000000E+00 0. -1.
         -5    1    5    5    0  502 -0.46567390026E+02  0.72744820908E+02 -0.45473134778E+02  0.97725261674E+02  0.47000000000E+01 0.  1.
         13    1    6    6    0    0 -0.11730931939E+03 -0.54513375810E+02 -0.54730348113E+02  0.14045851901E+03  0.00000000000E+00 0. -1.
        -14    1    6    6    0    0  0.12101684714E+02 -0.34757720995E+01 -0.17025155953E+02  0.21175167055E+02  0.00000000000E+00 0.  1.
</event>
<event>
12    1  0.8358445E-002  0.2136071E+03  0.7818608E-02  0.1140232E+00
         21   -1    0    0  501  502  0.00000000000E+00  0.00000000000E+00  0.30251162676E+03  0.30251162676E+03  0.00000000000E+00 0. -1.
         21   -1    0    0  502  503 -0.00000000000E+00 -0.00000000000E+00 -0.14560605145E+03  0.14560605145E+03  0.00000000000E+00 0. -1.
         -6    2    1    2    0  503 -0.84209326963E+02  0.96498909263E+02  0.84525655201E+02  0.22972281398E+03  0.17095243385E+03 0.  0.
        -24    2    3    3    0    0 -0.11452400274E+03  0.10930263146E+03  0.36685429440E+02  0.17146741019E+03  0.54703195307E+02 0.  0.
          6    2    1    2  501    0  0.84209326963E+02 -0.96498909263E+02  0.72379920110E+02  0.21839486422E+03  0.16141317680E+03 0.  0.
         24    2    5    5    0    0  0.30847296594E+02 -0.11526965169E+02  0.80926088364E+02  0.11758383030E+03  0.78692431256E+02 0.  0.
          5    1    5    5  501    0  0.53362030369E+02 -0.84971944094E+02 -0.85461682545E+01  0.10081103392E+03  0.47000000000E+01 0. -1.
        -11    1    6    6    0    0  0.22442875494E+02  0.24457323200E+02  0.55742015302E+01  0.33658803325E+02  0.00000000000E+00 0.  1.
         12    1    6    6    0    0  0.84044211001E+01 -0.35984288369E+02  0.75351886834E+02  0.83925026976E+02  0.00000000000E+00 0. -1.
         -5    1    3    3    0  503  0.30314675777E+02 -0.12803722201E+02  0.47840225761E+02  0.58255403788E+02  0.47000000000E+01 0.  1.
         11    1    4    4    0    0 -0.17811871820E+02  0.17157255904E+02  0.28357105091E+02  0.37626581256E+02  0.00000000000E+00 0. -1.
        -12    1    4    4    0    0 -0.96712130921E+02  0.92145375560E+02  0.83283243495E+01  0.13384082894E+03  0.00000000000E+00 0.  1.
</event>
<event>
12    1  0.8358445E-002  0.2811692E+03  0.7818608E-02  0.1095173E+00
         21   -1    0    0  501  502  0.00000000000E+00  0.00000000000E+00  0.12687008664E+03  0.12687008664E+03  0.00000000000E+00 0. -1.
         21   -1    0    0  502  503 -0.00000000000E+00 -0.00000000000E+00 -0.10298489429E+04  0.10298489429E+04  0.00000000000E+00 0. -1.
         -6    2    1    2    0  503  0.11914748519E+03 -0.18745980234E+03 -0.81539870452E+03  0.86222552368E+03  0.17094006442E+03 0.  0.
        -24    2    3    3    0    0  0.88043167730E+02 -0.12245019331E+03 -0.73348707922E+03  0.75302235436E+03  0.79332978928E+02 0.  0.
          6    2    1    2  501    0 -0.11914748519E+03  0.18745980234E+03 -0.87580151761E+02  0.29449350588E+03  0.17239153490E+03 0.  0.
         24    2    5    5    0    0 -0.70010548345E+02  0.18329771733E+03 -0.36234958072E+02  0.22314800547E+03  0.99912612323E+02 0.  0.
          5    1    5    5  501    0 -0.49136936846E+02  0.41620850072E+01 -0.51345193689E+02  0.71345500413E+02  0.47000000000E+01 0. -1.
        -11    1    6    6    0    0 -0.24198839220E+02  0.26459268367E+02  0.30088397902E+02  0.46807994941E+02  0.00000000000E+00 0.  1.
         12    1    6    6    0    0 -0.45811709126E+02  0.15683844896E+03 -0.66323355974E+02  0.17634001053E+03  0.00000000000E+00 0. -1.
         -5    1    3    3    0  503  0.31104317461E+02 -0.65009609029E+02 -0.81911625297E+02  0.10920316932E+03  0.47000000000E+01 0.  1.
         13    1    4    4    0    0  0.46869461411E+02 -0.11952126093E+03 -0.52307041927E+03  0.53859515570E+03  0.00000000000E+00 0. -1.
        -14    1    4    4    0    0  0.41173706319E+02 -0.29289323721E+01 -0.21041665996E+03  0.21442719866E+03  0.00000000000E+00 0.  1.
</event>
<event>
12    1  0.8358445E-002  0.1985269E+03  0.7818608E-02  0.1151842E+00
         21   -1    0    0  501  502  0.00000000000E+00  0.00000000000E+00  0.37508229638E+03  0.37508229638E+03  0.00000000000E+00 0. -1.
         21   -1    0    0  502  503 -0.00000000000E+00 -0.00000000000E+00 -0.27267949506E+03  0.27267949506E+03  0.00000000000E+00 0. -1.
         -6    2    1    2    0  503 -0.54433116767E+02  0.82504144489E+02 -0.20409776916E+03  0.28472587385E+03  0.17217150114E+03 0.  0.
        -24    2    3    3    0    0  0.29380021197E+00  0.21996321339E+02 -0.18217387409E+03  0.20011512229E+03  0.79842452984E+02 0.  0.
          6    2    1    2  501    0  0.54433116767E+02 -0.82504144489E+02  0.30650057048E+03  0.36303591759E+03  0.16757857768E+03 0.  0.
         24    2    5    5    0    0  0.25431149857E+02 -0.31901204318E+02  0.54359529051E+02  0.10419433204E+03  0.78975123997E+02 0.  0.
          5    1    5    5  501    0  0.29001966910E+02 -0.50602940171E+02  0.25214104143E+03  0.25884158555E+03  0.47000000000E+01 0. -1.
        -11    1    6    6    0    0 -0.19887463941E+02 -0.37143926652E+02  0.17828777406E+02  0.45749839486E+02  0.00000000000E+00 0.  1.
         12    1    6    6    0    0  0.45318613797E+02  0.52427223347E+01  0.36530751645E+02  0.58444492553E+02  0.00000000000E+00 0. -1.
         -5    1    3    3    0  503 -0.54726916979E+02  0.60507823150E+02 -0.21923895075E+02  0.84610751560E+02  0.47000000000E+01 0.  1.
         11    1    4    4    0    0 -0.19529114595E+02  0.27391330719E+02 -0.17522923387E+03  0.17842913360E+03  0.00000000000E+00 0. -1.
        -12    1    4    4    0    0  0.19822914807E+02 -0.53950093807E+01 -0.69446402186E+01  0.21685988690E+02  0.00000000000E+00 0.  1.
</event>
<event>
12    1  0.8358445E-002  0.2200455E+03  0.7818608E-02  0.1133965E+00
         21   -1    0    0  501  502  0.00000000000E+00  0.00000000000E+00  0.44324454933E+02  0.44324454933E+02  0.00000000000E+00 0. -1.
         21   -1    0    0  502  503 -0.00000000000E+00 -0.00000000000E+00 -0.12334901903E+04  0.12334901903E+04  0.00000000000E+00 0. -1.
         -6    2    1    2    0  503  0.77144410347E+02  0.11812299946E+03 -0.81375544256E+03  0.84298157262E+03  0.16886594813E+03 0.  0.
        -24    2    3    3    0    0  0.69896402726E+02  0.90493974761E+02 -0.80150979234E+03  0.81155001890E+03  0.55864294188E+02 0.  0.
          6    2    1    2  501    0 -0.77144410347E+02 -0.11812299946E+03 -0.37541029285E+03  0.43483307265E+03  0.16805537791E+03 0.  0.
         24    2    5    5    0    0  0.22463727204E+02 -0.64991189998E+02 -0.17522819945E+03  0.20496413007E+03  0.81098082081E+02 0.  0.
          5    1    5    5  501    0 -0.99608137551E+02 -0.53131809465E+02 -0.20018209340E+03  0.22986894257E+03  0.47000000000E+01 0. -1.
        -11    1    6    6    0    0 -0.28371943912E+01 -0.49620701282E+02 -0.32934062755E+02  0.59623117641E+02  0.00000000000E+00 0.  1.
         12    1    6    6    0    0  0.25300921595E+02 -0.15370488716E+02 -0.14229413670E+03  0.14534101243E+03  0.00000000000E+00 0. -1.
         -5    1    3    3    0  503  0.72480076209E+01  0.27629024702E+02 -0.12245650214E+02  0.31431553726E+02  0.47000000000E+01 0.  1.
         13    1    4    4    0    0  0.63321879683E+02  0.97944124583E+02 -0.71183229442E+03  0.72132373270E+03  0.00000000000E+00 0. -1.
        -14    1    4    4    0    0  0.65745230426E+01 -0.74501498223E+01 -0.89677497927E+02  0.90226286192E+02  0.00000000000E+00 0.  1.
</event>
<event>
12    1  0.8358445E-002  0.1836591E+03  0.7818608E-02  0.1164746E+00
         21   -1    0    0  503  502  0.00000000000E+00  0.00000000000E+00  0.12765994183E+04  0.12765994183E+04  0.00000000000E+00 0. -1.
         21   -1    0    0  501  503 -0.00000000000E+00 -0.00000000000E+00 -0.43205831486E+02  0.43205831486E+02  0.00000000000E+00 0. -1.
          6    2    1    2  501    0 -0.26371043555E+02 -0.57726001600E+02  0.20405923235E+03  0.27453749427E+03  0.17234541553E+03 0.  0.
         24    2    3    3    0    0  0.31747012659E+02  0.16937973922E+02  0.88575526573E+02  0.12516884295E+03  0.80788907427E+02 0.  0.
         -6    2    1    2    0  502  0.26371043555E+02  0.57726001600E+02  0.10293343545E+04  0.10452677555E+04  0.17037530407E+03 0.  0.
        -24    2    5    5    0    0  0.74543858838E+01  0.10387416721E+03  0.72449533670E+03  0.73633991624E+03  0.80358999916E+02 0.  0.
          5    1    3    3  501    0 -0.58118056215E+02 -0.74663975522E+02  0.11548370577E+03  0.14936865132E+03  0.47000000000E+01 0. -1.
        -11    1    4    4    0    0 -0.63446633634E+01  0.36025540481E+02  0.69391143563E+02  0.78442495658E+02  0.00000000000E+00 0.  1.
         12    1    4    4    0    0  0.38091676023E+02 -0.19087566559E+02  0.19184383010E+02  0.46726347288E+02  0.00000000000E+00 0. -1.
         -5    1    5    5    0  502  0.18916657671E+02 -0.46148165609E+02  0.30483901778E+03  0.30892783929E+03  0.47000000000E+01 0.  1.
         13    1    6    6    0    0  0.37234376830E+02  0.24534041548E+02  0.31745026396E+03  0.32056666717E+03  0.00000000000E+00 0. -1.
        -14    1    6    6    0    0 -0.29779990946E+02  0.79340125661E+02  0.40704507274E+03  0.41577324907E+03  0.00000000000E+00 0.  1.
</event>
<event>
12    1  0.8358445E-002  0.1789236E+03  0.7818608E-02  0.1169115E+00
         21   -1    0    0  501  502  0.00000000000E+00  0.00000000000E+00  0.93387039147E+03  0.93387039147E+03  0.00000000000E+00 0.  1.
         21   -1    0    0  502  503 -0.00000000000E+00 -0.00000000000E+00 -0.59391362796E+02  0.59391362796E+02  0.00000000000E+00 0.  1.
         -6    2    1    2    0  503  0.86634388853E+01 -0.44663007992E+02  0.11221321736E+03  0.21027847050E+03  0.17191680997E+03 0.  0.
        -24    2    3    3    0    0  0.70172490686E+01 -0.89570947244E+02  0.11414262270E+03  0.16505407936E+03  0.78371642978E+02 0.  0.
          6    2    1    2  501    0 -0.86634388853E+01  0.44663007992E+02  0.76226581131E+03  0.78298328377E+03  0.17304281581E+03 0.  0.
         24    2    5    5    0    0 -0.46388585132E+02  0.13479392029E+02  0.68532530615E+03  0.69167317535E+03  0.80046307926E+02 0.  0.
          5    1    5    5  501    0  0.37725146247E+02  0.31183615963E+02  0.76940505163E+02  0.91310108414E+02  0.47000000000E+01 0. -1.
        -11    1    6    6    0    0  0.17494556961E+02  0.52415497642E+01  0.33353467000E+03  0.33403429384E+03  0.00000000000E+00 0.  1.
         12    1    6    6    0    0 -0.63883142093E+02  0.82378422650E+01  0.35179063615E+03  0.35763888152E+03  0.00000000000E+00 0. -1.
         -5    1    3    3    0  503  0.16461898167E+01  0.44907939252E+02 -0.19294053364E+01  0.45224391137E+02  0.47000000000E+01 0.  1.
         13    1    4    4    0    0 -0.20510254216E+02  0.36312864482E+01  0.29908598989E+02  0.36446962326E+02  0.00000000000E+00 0. -1.
        -14    1    4    4    0    0  0.27527503285E+02 -0.93202233692E+02  0.84234023707E+02  0.12860711704E+03  0.00000000000E+00 0.  1.
</event>
<event>
12    1  0.8358445E-002  0.1852751E+03  0.7818608E-02  0.1165558E+00
         21   -1    0    0  501  502  0.00000000000E+00  0.00000000000E+00  0.50845265881E+03  0.50845265881E+03  0.00000000000E+00 0.  1.
         21   -1    0    0  502  503 -0.00000000000E+00 -0.00000000000E+00 -0.63484118691E+02  0.63484118691E+02  0.00000000000E+00 0.  1.
         -6    2    1    2    0  503 -0.15574558727E+02  0.69898998277E+02  0.22588715331E+03  0.28501600969E+03  0.15836881924E+03 0.  0.
        -24    2    3    3    0    0 -0.48986534404E+02  0.46243853436E+02  0.71569961374E+02  0.12529183580E+03  0.77702060555E+02 0.  0.
          6    2    1    2  501    0  0.15574558727E+02 -0.69898998277E+02  0.21908138681E+03  0.28692076781E+03  0.17087549888E+03 0.  0.
         24    2    5    5    0    0 -0.18638762135E+02 -0.16245441662E+02  0.32318954310E+02  0.89559293216E+02  0.79781165477E+02 0.  0.
          5    1    5    5  501    0  0.34213320863E+02 -0.53653556615E+02  0.18676243250E+03  0.19736147460E+03  0.47000000000E+01 0. -1.
        -11    1    6    6    0    0 -0.14159502908E+02 -0.14502679490E+02 -0.24918226177E+02  0.32120666724E+02  0.00000000000E+00 0.  1.
         12    1    6    6    0    0 -0.44792592276E+01 -0.17427621727E+01  0.57237180487E+02  0.57438626492E+02  0.00000000000E+00 0. -1.
         -5    1    3    3    0  503  0.33411975677E+02  0.23655144841E+02  0.15431719193E+03  0.15972417388E+03  0.47000000000E+01 0.  1.
         13    1    4    4    0    0 -0.19142915979E+01  0.21343825745E+02 -0.13210519872E+02  0.25174217863E+02  0.00000000000E+00 0. -1.
        -14    1    4    4    0    0 -0.47072242806E+02  0.24900027692E+02  0.84780481245E+02  0.10011761794E+03  0.00000000000E+00 0.  1.
</event>
<event>
12    1  0.8358445E-002  0.1960939E+03  0.7818608E-02  0.1153142E+00
         21   -1    0    0  501  502  0.00000000000E+00  0.00000000000E+00  0.13994343709E+03  0.13994343709E+03  0.00000000000E+00 0.  1.
         21   -1    0    0  502  503 -0.00000000000E+00 -0.00000000000E+00 -0.64718906362E+03  0.64718906362E+03  0.00000000000E+00 0.  1.
         -6    2    1    2    0  503 -0.94837698885E+02  0.20433582986E+01 -0.55225851112E+03  0.58593858457E+03  0.17127812861E+03 0.  0.
        -24    2    3    3    0    0 -0.81087356661E+02 -0.62283999816E+02 -0.35436655362E+03  0.37734712320E+03  0.79754253928E+02 0.  0.
          6    2    1    2  501    0  0.94837698885E+02 -0.20433582986E+01  0.45012884588E+02  0.20119391614E+03  0.17162303945E+03 0.  0.
         24    2    5    5    0    0 -0.20773165998E+02  0.17489844738E+02  0.13424601369E+02  0.79673021901E+02  0.73689561014E+02 0.  0.
          5    1    5    5  501    0  0.11561086488E+03 -0.19533203037E+02  0.31588283220E+02  0.12152089424E+03  0.47000000000E+01 0. -1.
        -11    1    6    6    0    0  0.10081367066E+02  0.38920676261E+02  0.12467300789E+02  0.42093783288E+02  0.00000000000E+00 0.  1.
         12    1    6    6    0    0 -0.30854533063E+02 -0.21430831523E+02  0.95730057965E+00  0.37579238613E+02  0.00000000000E+00 0. -1.
         -5    1    3    3    0  503 -0.13750342223E+02  0.64327358115E+02 -0.19789195750E+03  0.20859146137E+03  0.47000000000E+01 0.  1.
         13    1    4    4    0    0 -0.32074663795E+02 -0.69619458631E+02 -0.17086577182E+03  0.18727190141E+03  0.00000000000E+00 0. -1.
        -14    1    4    4    0    0 -0.49012692866E+02  0.73354588141E+01 -0.18350078180E+03  0.19007522179E+03  0.00000000000E+00 0.  1.
</event>
<event>
12    1  0.8358445E-002  0.1785149E+03  0.7818608E-02  0.1169440E+00
         21   -1    0    0  501  502  0.00000000000E+00  0.00000000000E+00  0.70954269515E+03  0.70954269515E+03  0.00000000000E+00 0. -1.
         21   -1    0    0  502  503 -0.00000000000E+00 -0.00000000000E+00 -0.45730027787E+02  0.45730027787E+02  0.00000000000E+00 0. -1.
         -6    2    1    2    0  503  0.26138499052E+02  0.39122863111E+02  0.27495456565E+03  0.32739634832E+03  0.17139001187E+03 0.  0.
        -24    2    3    3    0    0 -0.48160722159E+02  0.11891249311E+02  0.12137629182E+03  0.15456605220E+03  0.81838886284E+02 0.  0.
          6    2    1    2  501    0 -0.26138499052E+02 -0.39122863111E+02  0.38885810171E+03  0.42787637462E+03  0.17220263976E+03 0.  0.
         24    2    5    5    0    0 -0.54592786553E+02 -0.65345141170E+02  0.17253850048E+03  0.20807302109E+03  0.79211666697E+02 0.  0.
          5    1    5    5  501    0  0.28454287501E+02  0.26222278060E+02  0.21631960123E+03  0.21980335353E+03  0.47000000000E+01 0. -1.
        -13    1    6    6    0    0 -0.95389779196E+01 -0.40939677510E+02  0.18852240275E+02  0.46070123266E+02  0.00000000000E+00 0.  1.
         14    1    6    6    0    0 -0.45053808633E+02 -0.24405463661E+02  0.15368626020E+03  0.16200289783E+03  0.00000000000E+00 0. -1.
         -5    1    3    3    0  503  0.74299221211E+02  0.27231613800E+02  0.15357827383E+03  0.17283029612E+03  0.47000000000E+01 0.  1.
         13    1    4    4    0    0  0.19263779668E+02 -0.52008605209E+01  0.78843385315E+01  0.21454718626E+02  0.00000000000E+00 0. -1.
        -14    1    4    4    0    0 -0.67424501827E+02  0.17092109832E+02  0.11349195329E+03  0.13311133357E+03  0.00000000000E+00 0.  1.
</event>
<event>
12    1  0.8358445E-002  0.1924299E+03  0.7818608E-02  0.1156386E+00
         21   -1    0    0  503  502  0.00000000000E+00  0.00000000000E+00  0.17892035786E+03  0.17892035786E+03  0.00000000000E+00 0. -1.
         21   -1    0    0  501  503 -0.00000000000E+00 -0.00000000000E+00 -0.21597222162E+03  0.21597222162E+03  0.00000000000E+00 0. -1.
          6    2    1    2  501    0  0.81140567620E+02  0.27535791319E+02 -0.59892640831E+02  0.20111184444E+03  0.17180463914E+03 0.  0.
         24    2    3    3    0    0  0.74894157882E+02 -0.39887248914E+02 -0.63573855769E+02  0.13313739827E+03  0.80522072557E+02 0.  0.
         -6    2    1    2    0  502 -0.81140567620E+02 -0.27535791319E+02  0.22840777070E+02  0.19378073505E+03  0.17229991486E+03 0.  0.
        -24    2    5    5    0    0 -0.69765612633E+01  0.15579957792E+02  0.60196776357E+02  0.10009600661E+03  0.78129067337E+02 0.  0.
          5    1    3    3  501    0  0.62464097389E+01  0.67423040232E+02  0.36812149381E+01  0.67974446171E+02  0.47000000000E+01 0. -1.
        -13    1    4    4    0    0  0.16251137939E+02 -0.42865752474E+02 -0.58324859046E+02  0.74184643978E+02  0.00000000000E+00 0.  1.
         14    1    4    4    0    0  0.58643019943E+02  0.29785035599E+01 -0.52489967230E+01  0.58952754287E+02  0.00000000000E+00 0. -1.
         -5    1    5    5    0  502 -0.74164006357E+02 -0.43115749111E+02 -0.37355999287E+02  0.93684728441E+02  0.47000000000E+01 0.  1.
         13    1    6    6    0    0 -0.39855645882E+02 -0.64576376005E+01  0.29415198183E+02  0.49954253835E+02  0.00000000000E+00 0. -1.
        -14    1    6    6    0    0  0.32879084619E+02  0.22037595393E+02  0.30781578174E+02  0.50141752771E+02  0.00000000000E+00 0.  1.
</event>
<event>
12    1  0.8358445E-002  0.1810147E+03  0.7818608E-02  0.1166920E+00
         21   -1    0    0  503  502  0.00000000000E+00  0.00000000000E+00  0.85090198924E+02  0.85090198924E+02  0.00000000000E+00 0. -1.
         21   -1    0    0  501  503 -0.00000000000E+00 -0.00000000000E+00 -0.38962349927E+03  0.38962349927E+03  0.00000000000E+00 0.  1.
          6    2    1    2  501    0  0.49365533105E+02  0.30267353696E+02 -0.18035608637E+03  0.25552816182E+03  0.17150293010E+03 0.  0.
         24    2    3    3    0    0 -0.26802769913E+02  0.21652504572E+02 -0.14862318241E+03  0.17243247478E+03  0.80354767007E+02 0.  0.
         -6    2    1    2    0  502 -0.49365533105E+02 -0.30267353696E+02 -0.12417721397E+03  0.21918553638E+03  0.17108258336E+03 0.  0.
        -24    2    5    5    0    0 -0.14949821142E+02 -0.19587775559E+02  0.60410552241E+01  0.83991667241E+02  0.80068269085E+02 0.  0.
          5    1    3    3  501    0  0.76168303018E+02  0.86148491238E+01 -0.31732903967E+02  0.83095687038E+02  0.47000000000E+01 0. -1.
        -13    1    4    4    0    0  0.23710281535E+02  0.10006303754E+02 -0.92582161755E+02  0.96092456731E+02  0.00000000000E+00 0.  1.
         14    1    4    4    0    0 -0.50513051448E+02  0.11646200818E+02 -0.56041020651E+02  0.76340018049E+02  0.00000000000E+00 0. -1.
         -5    1    5    5    0  502 -0.34415711964E+02 -0.10679578137E+02 -0.13021826920E+03  0.13519386913E+03  0.47000000000E+01 0.  1.
         13    1    6    6    0    0  0.28843622271E+02  0.99631695670E+01 -0.18624530321E+01  0.30572667938E+02  0.00000000000E+00 0. -1.
        -14    1    6    6    0    0 -0.43793443413E+02 -0.29550945126E+02  0.79035082562E+01  0.53418999303E+02  0.00000000000E+00 0.  1.
</event>
<event>
12    1  0.8358445E-002  0.2028649E+03  0.7818608E-02  0.1148168E+00
         21   -1    0    0  503  502  0.00000000000E+00  0.00000000000E+00  0.23279128770E+03  0.23279128770E+03  0.00000000000E+00 0.  1.
         21   -1    0    0  501  503 -0.00000000000E+00 -0.00000000000E+00 -0.20996985743E+03  0.20996985743E+03  0.00000000000E+00 0. -1.
          6    2    1    2  501    0 -0.93402211342E+02  0.31658740894E+02 -0.80921172631E+02  0.21840875970E+03  0.17727916171E+03 0.  0.
         24    2    3    3    0    0 -0.12681506078E+03  0.53862201338E+02 -0.50204531595E+02  0.16766416196E+03  0.81287021357E+02 0.  0.
         -6    2    1    2    0  502  0.93402211342E+02 -0.31658740894E+02  0.10374260290E+03  0.22435238543E+03  0.17275768068E+03 0.  0.
        -24    2    5    5    0    0  0.13237198895E+03 -0.24712834332E+02  0.69549597784E+02  0.17183438106E+03  0.80974318913E+02 0.  0.
          5    1    3    3  501    0  0.33412849435E+02 -0.22203460444E+02 -0.30716641036E+02  0.50744597738E+02  0.47000000000E+01 0. -1.
        -11    1    4    4    0    0 -0.90594944471E+02  0.19567964159E+02  0.55547815452E+01  0.92850443095E+02  0.00000000000E+00 0.  1.
         12    1    4    4    0    0 -0.36220116307E+02  0.34294237179E+02 -0.55759313140E+02  0.74813718868E+02  0.00000000000E+00 0. -1.
         -5    1    5    5    0  502 -0.38969777604E+02 -0.69459065625E+01  0.34193005116E+02  0.52518004373E+02  0.47000000000E+01 0.  1.
         13    1    6    6    0    0  0.12026489443E+03 -0.46045726727E+02  0.43191300886E+02  0.13582835585E+03  0.00000000000E+00 0. -1.
        -14    1    6    6    0    0  0.12107094516E+02  0.21332892395E+02  0.26358296899E+02  0.36006025203E+02  0.00000000000E+00 0.  1.
</event>
<event>
12    1  0.8358445E-002  0.2076156E+03  0.7818608E-02  0.1143762E+00
         21   -1    0    0  503  502  0.00000000000E+00  0.00000000000E+00  0.11145343818E+04  0.11145343818E+04  0.00000000000E+00 0.  1.
         21   -1    0    0  501  503 -0.00000000000E+00 -0.00000000000E+00 -0.49350974283E+02  0.49350974283E+02  0.00000000000E+00 0.  1.
          6    2    1    2  501    0 -0.54255011945E+02 -0.10049343282E+03  0.25996496519E+03  0.33269511020E+03  0.17338315047E+03 0.  0.
         24    2    3    3    0    0 -0.85821981259E+01 -0.40777122460E+02  0.38216092873E+02  0.98501395473E+02  0.80657469058E+02 0.  0.
         -6    2    1    2    0  502  0.54255011945E+02  0.10049343282E+03  0.80521844231E+03  0.83119024586E+03  0.17163318042E+03 0.  0.
        -24    2    5    5    0    0  0.17315470820E+02  0.20576930309E+01  0.52612778316E+03  0.53291552251E+03  0.82972587585E+02 0.  0.
          5    1    3    3  501    0 -0.45672813820E+02 -0.59716310357E+02  0.22174887232E+03  0.23419371473E+03  0.47000000000E+01 0. -1.
        -13    1    4    4    0    0 -0.12011523826E+02  0.21319327756E+02  0.24878916493E+02  0.34896288147E+02  0.00000000000E+00 0.  1.
         14    1    4    4    0    0  0.34293257005E+01 -0.62096450215E+02  0.13337176380E+02  0.63605107326E+02  0.00000000000E+00 0. -1.
         -5    1    5    5    0  502  0.36939541126E+02  0.98435739786E+02  0.27909065915E+03  0.29827472335E+03  0.47000000000E+01 0.  1.
         11    1    6    6    0    0  0.30536956733E+02  0.28165501108E+01  0.67986357339E+02  0.74582729002E+02  0.00000000000E+00 0. -1.
        -12    1    6    6    0    0 -0.13221485913E+02 -0.75885707991E+00  0.45814142582E+03  0.45833279351E+03  0.00000000000E+00 0.  1.
</event>
<event>
12    1  0.8358445E-002  0.1770052E+03  0.7818608E-02  0.1171208E+00
         21   -1    0    0  503  502  0.00000000000E+00  0.00000000000E+00  0.22727770180E+02  0.22727770180E+02  0.00000000000E+00 0. -1.
         21   -1    0    0  501  503 -0.00000000000E+00 -0.00000000000E+00 -0.17367827148E+04  0.17367827148E+04  0.00000000000E+00 0.  1.
          6    2    1    2  501    0 -0.10398147540E+02 -0.38861481549E+02 -0.12611188800E+04  0.12732164334E+04  0.17041396839E+03 0.  0.
         24    2    3    3    0    0 -0.36332293933E+02  0.35992281224E+02 -0.65330544949E+03  0.66024423009E+03  0.80616084890E+02 0.  0.
         -6    2    1    2    0  502  0.10398147540E+02  0.38861481549E+02 -0.45293606468E+03  0.48629405162E+03  0.17237311197E+03 0.  0.
        -24    2    5    5    0    0  0.14844419880E+02  0.37971090072E+02 -0.10268098827E+03  0.13597809325E+03  0.79274813211E+02 0.  0.
          5    1    3    3  501    0  0.25934146394E+02 -0.74853762773E+02 -0.60781343049E+03  0.61297220331E+03  0.47000000000E+01 0. -1.
        -11    1    4    4    0    0 -0.23025305746E+02 -0.23589068354E+02 -0.28692619052E+03  0.28881351710E+03  0.00000000000E+00 0.  1.
         12    1    4    4    0    0 -0.13306988187E+02  0.59581349578E+02 -0.36637925897E+03  0.37143071299E+03  0.00000000000E+00 0. -1.
         -5    1    5    5    0  502 -0.44462723407E+01  0.89039147624E+00 -0.35025507641E+03  0.35031595836E+03  0.47000000000E+01 0.  1.
         11    1    6    6    0    0  0.10789051470E+02 -0.14149715270E+02  0.30268955688E+01  0.18049381447E+02  0.00000000000E+00 0. -1.
        -12    1    6    6    0    0  0.40553684106E+01  0.52120805342E+02 -0.10570788384E+03  0.11792871181E+03  0.00000000000E+00 0.  1.
</event>
<event>
12    1  0.8358445E-002  0.1885785E+03  0.7818608E-02  0.1160128E+00
         21   -1    0    0  501  502  0.00000000000E+00  0.00000000000E+00  0.23927865170E+02  0.23927865170E+02  0.00000000000E+00 0. -1.
         21   -1    0    0  502  503 -0.00000000000E+00 -0.00000000000E+00 -0.27128451202E+04  0.27128451202E+04  0.00000000000E+00 0. -1.
         -6    2    1    2    0  503 -0.59528885649E+02  0.49342713670E+02 -0.22726702920E+04  0.22804806769E+04  0.17199845930E+03 0.  0.
        -24    2    3    3    0    0 -0.16746293517E+02 -0.39872249640E+02 -0.97079317020E+03  0.97484068437E+03  0.77490295830E+02 0.  0.
          6    2    1    2  501    0  0.59528885649E+02 -0.49342713670E+02 -0.41624696308E+03  0.45629230851E+03  0.17018444380E+03 0.  0.
         24    2    5    5    0    0 -0.34073848081E+00  0.38347781312E+02 -0.20831736776E+03  0.22277399785E+03  0.69003333056E+02 0.  0.
          5    1    5    5  501    0  0.59869624130E+02 -0.87690494982E+02 -0.20792959532E+03  0.23351831066E+03  0.47000000000E+01 0. -1.
        -13    1    6    6    0    0 -0.33305556502E+02  0.28123459814E+02 -0.13209361055E+03  0.13910036317E+03  0.00000000000E+00 0.  1.
         14    1    6    6    0    0  0.32964818021E+02  0.10224321498E+02 -0.76223757218E+02  0.83673634687E+02  0.00000000000E+00 0. -1.
         -5    1    3    3    0  503 -0.42782592132E+02  0.89214963310E+02 -0.13018771218E+04  0.13056399925E+04  0.47000000000E+01 0.  1.
         11    1    4    4    0    0 -0.20394095757E+02  0.19578987470E+02 -0.25094238617E+03  0.25252987362E+03  0.00000000000E+00 0. -1.
        -12    1    4    4    0    0  0.36478022399E+01 -0.59451237110E+02 -0.71985078403E+03  0.72231081075E+03  0.00000000000E+00 0.  1.
</event>
<event>
12    1  0.8358445E-002  0.1854039E+03  0.7818608E-02  0.1163251E+00
         21   -1    0    0  501  502  0.00000000000E+00  0.00000000000E+00  0.32515582838E+03  0.32515582838E+03  0.00000000000E+00 0. -1.
         21   -1    0    0  502  503 -0.00000000000E+00 -0.00000000000E+00 -0.10591930158E+03  0.10591930158E+03  0.00000000000E+00 0. -1.
         -6    2    1    2    0  503  0.43540903231E+02  0.44376943738E+02  0.13540375469E+03  0.22759902613E+03  0.17205236564E+03 0.  0.
        -24    2    3    3    0    0 -0.55094702764E+01  0.85629223294E+02  0.97654203287E+02  0.15306843952E+03  0.80813894915E+02 0.  0.
          6    2    1    2  501    0 -0.43540903231E+02 -0.44376943738E+02  0.83832772118E+02  0.20347610383E+03  0.17466959598E+03 0.  0.
         24    2    5    5    0    0 -0.51789773058E+02 -0.67100869555E+02  0.11528642247E+03  0.16352810290E+03  0.79156641817E+02 0.  0.
          5    1    5    5  501    0  0.82488698271E+01  0.22723925817E+02 -0.31453650353E+02  0.39948000933E+02  0.47000000000E+01 0. -1.
        -13    1    6    6    0    0  0.94851396870E+01  0.11976612189E+02  0.21695746740E+02  0.26535119013E+02  0.00000000000E+00 0.  1.
         14    1    6    6    0    0 -0.61274912745E+02 -0.79077481744E+02  0.93590675731E+02  0.13699298389E+03  0.00000000000E+00 0. -1.
         -5    1    3    3    0  503  0.49050373507E+02 -0.41252279557E+02  0.37749551402E+02  0.74530586613E+02  0.47000000000E+01 0.  1.
         13    1    4    4    0    0  0.15748682604E+02  0.40217565911E+02 -0.11522920532E+00  0.43191282562E+02  0.00000000000E+00 0. -1.
        -14    1    4    4    0    0 -0.21258152881E+02  0.45411657383E+02  0.97769432493E+02  0.10987715695E+03  0.00000000000E+00 0.  1.
</event>
<event>
12    1  0.8358445E-002  0.1958997E+03  0.7818608E-02  0.1153464E+00
         21   -1    0    0  503  502  0.00000000000E+00  0.00000000000E+00  0.96970149261E+02  0.96970149261E+02  0.00000000000E+00 0. -1.
         21   -1    0    0  501  503 -0.00000000000E+00 -0.00000000000E+00 -0.11889397164E+04  0.11889397164E+04  0.00000000000E+00 0. -1.
          6    2    1    2  501    0  0.17625262219E+01  0.92425133762E+02 -0.10722775309E+04  0.10900255862E+04  0.17271700425E+03 0.  0.
         24    2    3    3    0    0  0.33017570895E+02  0.89774328520E+02 -0.45074115373E+03  0.46768045473E+03  0.80048922652E+02 0.  0.
         -6    2    1    2    0  502 -0.17625262219E+01 -0.92425133762E+02 -0.19692036310E+02  0.19588427948E+03  0.17157319955E+03 0.  0.
        -24    2    5    5    0    0  0.48328199416E+02 -0.45342521485E+01 -0.15609116197E+02  0.94530206538E+02  0.79599881522E+02 0.  0.
          5    1    3    3  501    0 -0.31255044673E+02  0.26508052422E+01 -0.62153637715E+03  0.62234513150E+03  0.47000000000E+01 0. -1.
        -13    1    4    4    0    0  0.70855945069E+01  0.95983794999E+02 -0.31623204795E+03  0.33055378186E+03  0.00000000000E+00 0.  1.
         14    1    4    4    0    0  0.25931976388E+02 -0.62094664787E+01 -0.13450910578E+03  0.13712667286E+03  0.00000000000E+00 0. -1.
         -5    1    5    5    0  502 -0.50090725638E+02 -0.87890881614E+02 -0.40829201137E+01  0.10135407294E+03  0.47000000000E+01 0.  1.
         11    1    6    6    0    0  0.42137121444E+02  0.10485841077E+02  0.25479964597E+02  0.50345987551E+02  0.00000000000E+00 0. -1.
        -12    1    6    6    0    0  0.61910779722E+01 -0.15020093225E+02 -0.41089080794E+02  0.44184218986E+02  0.00000000000E+00 0.  1.
</event>
<event>
12    1  0.8358445E-002  0.2645260E+03  0.7818608E-02  0.1104525E+00
         21   -1    0    0  503  502  0.00000000000E+00  0.00000000000E+00  0.18188354425E+04  0.18188354425E+04  0.00000000000E+00 0. -1.
         21   -1    0    0  501  503 -0.00000000000E+00 -0.00000000000E+00 -0.46563875655E+02  0.46563875655E+02  0.00000000000E+00 0.  1.
          6    2    1    2  501    0 -0.15923016631E+03  0.12132062800E+03  0.49497569331E+03  0.56099954103E+03  0.17218190213E+03 0.  0.
         24    2    3    3    0    0 -0.15822953219E+03  0.14590694894E+03  0.47892596862E+03  0.53124769892E+03  0.80799824149E+02 0.  0.
         -6    2    1    2    0  502  0.15923016631E+03 -0.12132062800E+03  0.12772958735E+04  0.13043997771E+04  0.17291931466E+03 0.  0.
        -24    2    5    5    0    0  0.98963313943E+02 -0.15027424693E+03  0.99558359082E+03  0.10148236977E+04  0.79400027169E+02 0.  0.
          5    1    3    3  501    0 -0.10006341134E+01 -0.24586320940E+02  0.16049724689E+02  0.29751842104E+02  0.47000000000E+01 0. -1.
        -11    1    4    4    0    0 -0.98380091406E+02  0.13785955355E+03  0.34448428716E+03  0.38386628269E+03  0.00000000000E+00 0.  1.
         12    1    4    4    0    0 -0.59849440786E+02  0.80473953945E+01  0.13444168146E+03  0.14738141623E+03  0.00000000000E+00 0. -1.
         -5    1    5    5    0  502  0.60266852363E+02  0.28953618924E+02  0.28171228268E+03  0.28957607939E+03  0.47000000000E+01 0.  1.
         13    1    6    6    0    0  0.71168485184E+02 -0.66675847176E+02  0.68782126127E+03  0.69470044575E+03  0.00000000000E+00 0. -1.
        -14    1    6    6    0    0  0.27794828759E+02 -0.83598399752E+02  0.30776232955E+03  0.32012325195E+03  0.00000000000E+00 0.  1.
</event>
<event>
12    1  0.8358445E-002  0.2014849E+03  0.7818608E-02  0.1150402E+00
         21   -1    0    0  503  502  0.00000000000E+00  0.00000000000E+00  0.61786435144E+03  0.61786435144E+03  0.00000000000E+00 0. -1.
         21   -1    0    0  501  503 -0.00000000000E+00 -0.00000000000E+00 -0.87689728769E+02  0.87689728769E+02  0.00000000000E+00 0.  1.
          6    2    1    2  501    0 -0.11923182844E+02  0.83455070878E+02  0.81574435305E+02  0.21737196709E+03  0.18300074437E+03 0.  0.
         24    2    3    3    0    0 -0.75686081890E+02  0.78161878526E+02  0.53230137510E+02  0.14723485568E+03  0.83707783041E+02 0.  0.
         -6    2    1    2    0  502  0.11923182844E+02 -0.83455070878E+02  0.44860018737E+03  0.48818211312E+03  0.17312635939E+03 0.  0.
        -24    2    5    5    0    0  0.54651076943E+02 -0.33851586865E+01  0.27871205033E+03  0.29551417889E+03  0.81547675725E+02 0.  0.
          5    1    3    3  501    0  0.63762899045E+02  0.52931923520E+01  0.28344297794E+02  0.70137111413E+02  0.47000000000E+01 0. -1.
        -13    1    4    4    0    0 -0.16003786257E+02  0.16196267514E+02 -0.22944628447E+02  0.32324854686E+02  0.00000000000E+00 0.  1.
         14    1    4    4    0    0 -0.59682295633E+02  0.61965611013E+02  0.76174765957E+02  0.11491000100E+03  0.00000000000E+00 0. -1.
         -5    1    5    5    0  502 -0.42727894099E+02 -0.80069912192E+02  0.16988813704E+03  0.19266793423E+03  0.47000000000E+01 0.  1.
         13    1    6    6    0    0  0.75303073506E+02 -0.91276520493E+01  0.19888908629E+03  0.21286318507E+03  0.00000000000E+00 0. -1.
        -14    1    6    6    0    0 -0.20651996563E+02  0.57424933627E+01  0.79822964038E+02  0.82650993823E+02  0.00000000000E+00 0.  1.
</event>
<event>
12    1  0.8358445E-002  0.2072046E+03  0.7818608E-02  0.1144511E+00
         21   -1    0    0  501  502  0.00000000000E+00  0.00000000000E+00  0.10724556901E+04  0.10724556901E+04  0.00000000000E+00 0.  1.
         21   -1    0    0  502  503 -0.00000000000E+00 -0.00000000000E+00 -0.46451163753E+02  0.46451163753E+02  0.00000000000E+00 0.  1.
         -6    2    1    2    0  503 -0.91048133837E+02  0.67536502496E+02  0.29070438257E+03  0.35496965415E+03  0.16924383437E+03 0.  0.
        -24    2    3    3    0    0 -0.12927144531E+03  0.38108771074E+02  0.24819224120E+03  0.29049962172E+03  0.68023941549E+02 0.  0.
          6    2    1    2  501    0  0.91048133837E+02 -0.67536502496E+02  0.73530014378E+03  0.76393719971E+03  0.17344394431E+03 0.  0.
         24    2    5    5    0    0  0.62003646356E+02 -0.93422554565E+02  0.69166903648E+03  0.70529051635E+03  0.80351917045E+02 0.  0.
          5    1    5    5  501    0  0.29044487481E+02  0.25886052069E+02  0.43631107303E+02  0.58646683361E+02  0.47000000000E+01 0. -1.
        -11    1    6    6    0    0  0.53060870945E+02 -0.88668488328E+02  0.39016752861E+03  0.40361895054E+03  0.00000000000E+00 0.  1.
         12    1    6    6    0    0  0.89427754107E+01 -0.47540662365E+01  0.30150150786E+03  0.30167156581E+03  0.00000000000E+00 0. -1.
         -5    1    3    3    0  503  0.38223311473E+02  0.29427731421E+02  0.42512141379E+02  0.64470032427E+02  0.47000000000E+01 0.  1.
         13    1    4    4    0    0 -0.88391145583E+02  0.34158752713E+02  0.22304817704E+03  0.24234336031E+03  0.00000000000E+00 0. -1.
        -14    1    4    4    0    0 -0.40880299727E+02  0.39500183610E+01  0.25144064155E+02  0.48156261411E+02  0.00000000000E+00 0.  1.
</event>
<event>
12    1  0.8358445E-002  0.1869986E+03  0.7818608E-02  0.1161806E+00
         21   -1    0    0  501  502  0.00000000000E+00  0.00000000000E+00  0.95624191253E+02  0.95624191253E+02  0.00000000000E+00 0.  1.
         21   -1    0    0  502  503 -0.00000000000E+00 -0.00000000000E+00 -0.40821508868E+03  0.40821508868E+03  0.00000000000E+00 0.  1.
         -6    2    1    2    0  503  0.65310349090E+02  0.28210054658E+02 -0.24333431738E+03  0.30688772008E+03  0.17293708058E+03 0.  0.
        -24    2    3    3    0    0  0.40225365104E+02 -0.49804968956E+02 -0.11967625058E+03  0.15846599722E+03  0.81795185632E+02 0.  0.
          6    2    1    2  501    0 -0.65310349090E+02 -0.28210054658E+02 -0.69256580050E+02  0.19695155985E+03  0.17009466237E+03 0.  0.
         24    2    5    5    0    0 -0.88188332209E+02 -0.48399436182E+02 -0.79141174253E+01  0.12827841402E+03  0.79202467691E+02 0.  0.
          5    1    5    5  501    0  0.22877983119E+02  0.20189381524E+02 -0.61342462624E+02  0.68673145834E+02  0.47000000000E+01 0. -1.
        -11    1    6    6    0    0 -0.16256474206E+02 -0.45087407772E+02 -0.25307034264E+02  0.54199568969E+02  0.00000000000E+00 0.  1.
         12    1    6    6    0    0 -0.71931858003E+02 -0.33120284101E+01  0.17392916838E+02  0.74078845051E+02  0.00000000000E+00 0. -1.
         -5    1    3    3    0  503  0.25084983986E+02  0.78015023614E+02 -0.12365806680E+03  0.14842172286E+03  0.47000000000E+01 0.  1.
         13    1    4    4    0    0  0.43079701897E+02 -0.36272511162E+02 -0.23043645876E+02  0.60848709081E+02  0.00000000000E+00 0. -1.
        -14    1    4    4    0    0 -0.28543367939E+01 -0.13532457794E+02 -0.96632604700E+02  0.97617288139E+02  0.00000000000E+00 0.  1.
</event>
<event>
12    1  0.8358445E-002  0.1943259E+03  0.7818608E-02  0.1156617E+00
         21   -1    0    0  501  502  0.00000000000E+00  0.00000000000E+00  0.16753552179E+03  0.16753552179E+03  0.00000000000E+00 0.  1.
         21   -1    0    0  502  503 -0.00000000000E+00 -0.00000000000E+00 -0.21518763467E+03  0.21518763467E+03  0.00000000000E+00 0.  1.
         -6    2    1    2    0  503  0.60250453267E+02  0.67876670650E+02 -0.25247221143E+02  0.19595910280E+03  0.17182895058E+03 0.  0.
        -24    2    3    3    0    0  0.37876421246E+02  0.11072901017E+03  0.45764695763E+00  0.14100684574E+03  0.78658655758E+02 0.  0.
          6    2    1    2  501    0 -0.60250453267E+02 -0.67876670650E+02 -0.22404891730E+02  0.18676405366E+03  0.16168324907E+03 0.  0.
         24    2    5    5    0    0 -0.94898795527E+02 -0.31778003782E+02  0.70640237900E+01  0.12850490543E+03  0.80299360954E+02 0.  0.
          5    1    5    5  501    0  0.34648342260E+02 -0.36098666868E+02 -0.29468915520E+02  0.58259148234E+02  0.47000000000E+01 0. -1.
        -11    1    6    6    0    0 -0.87367533691E+02 -0.29968098699E+02 -0.24862633433E+02  0.95652095764E+02  0.00000000000E+00 0.  1.
         12    1    6    6    0    0 -0.75312618359E+01 -0.18099050831E+01  0.31926657223E+02  0.32852809662E+02  0.00000000000E+00 0. -1.
         -5    1    3    3    0  503  0.22374032021E+02 -0.42852339524E+02 -0.25704868101E+02  0.54952257057E+02  0.47000000000E+01 0.  1.
         11    1    4    4    0    0 -0.22230986693E+02  0.39050828045E+02 -0.12319003666E+02  0.46593366391E+02  0.00000000000E+00 0. -1.
        -12    1    4    4    0    0  0.60107407939E+02  0.71678182129E+02  0.12776650623E+02  0.94413479353E+02  0.00000000000E+00 0.  1.
</event>
<event>
12    1  0.8358445E-002  0.2108501E+03  0.7818608E-02  0.1141396E+00
         21   -1    0    0  501  502  0.00000000000E+00  0.00000000000E+00  0.79226934054E+03  0.79226934054E+03  0.00000000000E+00 0. -1.
         21   -1    0    0  502  503 -0.00000000000E+00 -0.00000000000E+00 -0.84620773609E+02  0.84620773609E+02  0.00000000000E+00 0. -1.
         -6    2    1    2    0  503 -0.70503889715E+02 -0.92581289308E+02  0.97771772773E+02  0.23241578698E+03  0.17582856676E+03 0.  0.
        -24    2    3    3    0    0 -0.16675251000E+02 -0.10913472103E+01  0.96153846381E+02  0.12614895519E+03  0.79929604579E+02 0.  0.
          6    2    1    2  501    0  0.70503889715E+02  0.92581289308E+02  0.60987679416E+03  0.64447432717E+03  0.17278703869E+03 0.  0.
         24    2    5    5    0    0 -0.26101468088E+02  0.58027708572E+02  0.24889309655E+03  0.26916396889E+03  0.80330361871E+02 0.  0.
          5    1    5    5  501    0  0.96605357803E+02  0.34553580736E+02  0.36098369760E+03  0.37531035828E+03  0.47000000000E+01 0. -1.
        -13    1    6    6    0    0 -0.21539815491E+02 -0.12648347106E+01  0.11528975167E+02  0.24463865734E+02  0.00000000000E+00 0.  1.
         14    1    6    6    0    0 -0.45616525970E+01  0.59292543283E+02  0.23736412139E+03  0.24470010316E+03  0.00000000000E+00 0. -1.
         -5    1    3    3    0  503 -0.53828638715E+02 -0.91489942098E+02  0.16179263917E+01  0.10626683178E+03  0.47000000000E+01 0.  1.
         11    1    4    4    0    0 -0.46791744913E+02 -0.11107246156E+02  0.44489159795E+02  0.65514301099E+02  0.00000000000E+00 0. -1.
        -12    1    4    4    0    0  0.30116493913E+02  0.10015898946E+02  0.51664686586E+02  0.60634654096E+02  0.00000000000E+00 0.  1.
</event>
<event>
12    1  0.8358445E-002  0.2006180E+03  0.7818608E-02  0.1150369E+00
         21   -1    0    0  503  502  0.00000000000E+00  0.00000000000E+00  0.59109423676E+03  0.59109423676E+03  0.00000000000E+00 0. -1.
         21   -1    0    0  501  503 -0.00000000000E+00 -0.00000000000E+00 -0.14520516051E+03  0.14520516051E+03  0.00000000000E+00 0. -1.
          6    2    1    2  501    0 -0.82351195071E+02 -0.59130038380E+02 -0.47091750301E+02  0.20607090717E+03  0.17311702708E+03 0.  0.
         24    2    3    3    0    0 -0.10356941728E+03 -0.91172309188E+01 -0.68078555520E+02  0.14764120703E+03  0.79708771139E+02 0.  0.
         -6    2    1    2    0  502  0.82351195071E+02  0.59130038380E+02  0.49298082655E+03  0.53022849010E+03  0.16683547464E+03 0.  0.
        -24    2    5    5    0    0 -0.11841048627E+02 -0.15791183291E+02  0.16709616956E+03  0.18279753596E+03  0.71443945656E+02 0.  0.
          5    1    3    3  501    0  0.21218222214E+02 -0.50012807461E+02  0.20986805219E+02  0.58429700131E+02  0.47000000000E+01 0. -1.
        -13    1    4    4    0    0 -0.46038369541E+02  0.35506311998E+02 -0.28004983793E+02  0.64533005346E+02  0.00000000000E+00 0.  1.
         14    1    4    4    0    0 -0.57531047743E+02 -0.44623542917E+02 -0.40073571727E+02  0.83108201689E+02  0.00000000000E+00 0. -1.
         -5    1    5    5    0  502  0.94192243698E+02  0.74921221671E+02  0.32588465700E+03  0.34743095414E+03  0.47000000000E+01 0.  1.
         11    1    6    6    0    0 -0.19513484502E+02 -0.12457574090E+02  0.17169678673E+03  0.17325055210E+03  0.00000000000E+00 0. -1.
        -12    1    6    6    0    0  0.76724358747E+01 -0.33336092009E+01 -0.46006171706E+01  0.95469838644E+01  0.00000000000E+00 0.  1.
</event>
<event>
12    1  0.8358445E-002  0.2393544E+03  0.7818608E-02  0.1120240E+00
         21   -1    0    0  503  502  0.00000000000E+00  0.00000000000E+00  0.12240508735E+04  0.12240508735E+04  0.00000000000E+00 0. -1.
         21   -1    0    0  501  503 -0.00000000000E+00 -0.00000000000E+00 -0.48585752336E+02  0.48585752336E+02  0.00000000000E+00 0. -1.
          6    2    1    2  501    0 -0.16447117555E+03  0.22662696036E+02  0.46509253989E+03  0.52302358152E+03  0.17227370891E+03 0.  0.
         24    2    3    3    0    0 -0.69551185476E+02  0.76713032310E+02  0.24973438293E+03  0.28150242481E+03  0.78448049241E+02 0.  0.
         -6    2    1    2    0  502  0.16447117555E+03 -0.22662696036E+02  0.71037258122E+03  0.74961304427E+03  0.17241272171E+03 0.  0.
        -24    2    5    5    0    0  0.15406913088E+03 -0.19267609358E+02  0.71573492192E+03  0.73655265206E+03  0.78261056316E+02 0.  0.
          5    1    3    3  501    0 -0.94919990071E+02 -0.54050336274E+02  0.21535815697E+03  0.24152115671E+03  0.47000000000E+01 0. -1.
        -13    1    4    4    0    0 -0.19871541260E+02  0.70833591067E+02  0.18902628518E+03  0.20283789652E+03  0.00000000000E+00 0.  1.
         14    1    4    4    0    0 -0.49679644216E+02  0.58794412430E+01  0.60708097745E+02  0.78664528287E+02  0.00000000000E+00 0. -1.
         -5    1    5    5    0  502  0.10402044669E+02 -0.33950866773E+01 -0.53623407015E+01  0.13060392208E+02  0.47000000000E+01 0.  1.
         11    1    6    6    0    0  0.73748055476E+01  0.20140399512E+02  0.10927514188E+03  0.11136013686E+03  0.00000000000E+00 0. -1.
        -12    1    6    6    0    0  0.14669432533E+03 -0.39408008870E+02  0.60645978004E+03  0.62519251520E+03  0.00000000000E+00 0.  1.
</event>
<event>
12    1  0.8358445E-002  0.1879249E+03  0.7818608E-02  0.1160846E+00
         21   -1    0    0  503  502  0.00000000000E+00  0.00000000000E+00  0.44764545177E+03  0.44764545177E+03  0.00000000000E+00 0.  1.
         21   -1    0    0  501  503 -0.00000000000E+00 -0.00000000000E+00 -0.79892211704E+02  0.79892211704E+02  0.00000000000E+00 0.  1.
          6    2    1    2  501    0  0.69699975067E+02 -0.18845030400E+02  0.14207380863E+03  0.23385931757E+03  0.17114903336E+03 0.  0.
         24    2    3    3    0    0  0.33019601410E+02 -0.89157105284E+01  0.16636637053E+03  0.18851331700E+03  0.81790693056E+02 0.  0.
         -6    2    1    2    0  502 -0.69699975067E+02  0.18845030400E+02  0.22567943144E+03  0.29367834591E+03  0.17350084549E+03 0.  0.
        -24    2    5    5    0    0 -0.45068936544E+02  0.37864822210E+02  0.39609371190E+02  0.10496534195E+03  0.77355458264E+02 0.  0.
          5    1    3    3  501    0  0.36680373657E+02 -0.99293198716E+01 -0.24292561898E+02  0.45346000576E+02  0.47000000000E+01 0. -1.
        -13    1    4    4    0    0 -0.12643897006E+01 -0.39195566923E+02  0.50454593575E+02  0.63902716378E+02  0.00000000000E+00 0.  1.
         14    1    4    4    0    0  0.34283991111E+02  0.30279856395E+02  0.11591177695E+03  0.12461060062E+03  0.00000000000E+00 0. -1.
         -5    1    5    5    0  502 -0.24631038523E+02 -0.19019791810E+02  0.18607006025E+03  0.18871300395E+03  0.47000000000E+01 0.  1.
         11    1    6    6    0    0 -0.30598835770E+02  0.35915491170E+01 -0.18522576874E+02  0.35948210381E+02  0.00000000000E+00 0. -1.
        -12    1    6    6    0    0 -0.14470100774E+02  0.34273273093E+02  0.58131948064E+02  0.69017131573E+02  0.00000000000E+00 0.  1.
</event>
<event>
12    1  0.8358445E-002  0.2345588E+03  0.7818608E-02  0.1123499E+00
         21   -1    0    0  501  502  0.00000000000E+00  0.00000000000E+00  0.31768358148E+02  0.31768358148E+02  0.00000000000E+00 0. -1.
         21   -1    0    0  502  503 -0.00000000000E+00 -0.00000000000E+00 -0.18518498903E+04  0.18518498903E+04  0.00000000000E+00 0.  1.
         -6    2    1    2    0  503  0.12001458153E+03 -0.10496396797E+03 -0.66939583471E+03  0.70930148664E+03  0.17203744092E+03 0.  0.
        -24    2    3    3    0    0  0.50312211575E+02 -0.61113428260E+02 -0.56646495895E+03  0.57739945712E+03  0.79002617721E+02 0.  0.
          6    2    1    2  501    0 -0.12001458153E+03  0.10496396797E+03 -0.11506856975E+04  0.11743167618E+04  0.17181777673E+03 0.  0.
         24    2    5    5    0    0 -0.76410946851E+02  0.13238347256E+03 -0.10053018569E+04  0.10200064987E+04  0.80108784922E+02 0.  0.
          5    1    5    5  501    0 -0.43603634679E+02 -0.27419504592E+02 -0.14538384058E+03  0.15431026307E+03  0.47000000000E+01 0. -1.
        -11    1    6    6    0    0 -0.53856556841E+02  0.98998834617E+02 -0.47543059532E+03  0.48860571931E+03  0.00000000000E+00 0.  1.
         12    1    6    6    0    0 -0.22554390010E+02  0.33384637946E+02 -0.52987126156E+03  0.53140077944E+03  0.00000000000E+00 0. -1.
         -5    1    3    3    0  503  0.69702369956E+02 -0.43850539711E+02 -0.10293087575E+03  0.13190202953E+03  0.47000000000E+01 0.  1.
         11    1    4    4    0    0  0.42096707998E+01 -0.59819642491E+02 -0.22582907049E+03  0.23365547294E+03  0.00000000000E+00 0. -1.
        -12    1    4    4    0    0  0.46102540775E+02 -0.12937857682E+01 -0.34063588846E+03  0.34374398417E+03  0.00000000000E+00 0.  1.
</event>
<event>
12    1  0.8358445E-002  0.2636976E+03  0.7818608E-02  0.1104952E+00
         21   -1    0    0  501  502  0.00000000000E+00  0.00000000000E+00  0.15929760227E+04  0.15929760227E+04  0.00000000000E+00 0. -1.
         21   -1    0    0  502  503 -0.00000000000E+00 -0.00000000000E+00 -0.55350142071E+02  0.55350142071E+02  0.00000000000E+00 0. -1.
         -6    2    1    2    0  503  0.18692687461E+03  0.71797799337E+02  0.38982009671E+03  0.47063375098E+03  0.17158041646E+03 0.  0.
        -24    2    3    3    0    0  0.14953267305E+03  0.28464508598E+02  0.37298417380E+03  0.41078695743E+03  0.80364680866E+02 0.  0.
          6    2    1    2  501    0 -0.18692687461E+03 -0.71797799337E+02  0.11478057839E+04  0.11776924138E+04  0.17147805540E+03 0.  0.
         24    2    5    5    0    0 -0.41978810684E+02 -0.15711755226E+02  0.24411828103E+03  0.26072525056E+03  0.79842603595E+02 0.  0.
          5    1    5    5  501    0 -0.14494806393E+03 -0.56086044111E+02  0.90368750287E+03  0.91696716322E+03  0.47000000000E+01 0. -1.
        -11    1    6    6    0    0 -0.62629635795E+02  0.40599731319E+01  0.17574696001E+03  0.18661711768E+03  0.00000000000E+00 0.  1.
         12    1    6    6    0    0  0.20650825110E+02 -0.19771728358E+02  0.68371321027E+02  0.74108132881E+02  0.00000000000E+00 0. -1.
         -5    1    3    3    0  503  0.37394201565E+02  0.43333290740E+02  0.16835922910E+02  0.59846793542E+02  0.47000000000E+01 0.  1.
         13    1    4    4    0    0  0.37618485956E+02  0.31906572937E+02  0.18970269457E+03  0.19601094921E+03  0.00000000000E+00 0. -1.
        -14    1    4    4    0    0  0.11191418709E+03 -0.34420643393E+01  0.18328147923E+03  0.21477600823E+03  0.00000000000E+00 0.  1.
</event>
<event>
12    1  0.8358445E-002  0.1901312E+03  0.7818608E-02  0.1159318E+00
         21   -1    0    0  501  502  0.00000000000E+00  0.00000000000E+00  0.28559170723E+03  0.28559170723E+03  0.00000000000E+00 0. -1.
         21   -1    0    0  502  503 -0.00000000000E+00 -0.00000000000E+00 -0.17531520327E+03  0.17531520327E+03  0.00000000000E+00 0. -1.
         -6    2    1    2    0  503 -0.55585046426E+02 -0.39802214068E+02 -0.70285344647E+02  0.19870002052E+03  0.17282290026E+03 0.  0.
        -24    2    3    3    0    0  0.43170141949E+00 -0.31534741340E+01  0.24342848430E+02  0.82693162524E+02  0.78964891523E+02 0.  0.
          6    2    1    2  501    0  0.55585046426E+02  0.39802214068E+02  0.18056184861E+03  0.26220688998E+03  0.17741465089E+03 0.  0.
         24    2    5    5    0    0  0.22062474773E+02  0.47236307896E+02  0.19810564101E+02  0.97762084554E+02  0.80292871100E+02 0.  0.
          5    1    5    5  501    0  0.33522571653E+02 -0.74340938281E+01  0.16075128451E+03  0.16444480543E+03  0.47000000000E+01 0. -1.
        -11    1    6    6    0    0  0.16349808291E+02  0.57744197208E+02  0.41519420897E+02  0.72976508919E+02  0.00000000000E+00 0.  1.
         12    1    6    6    0    0  0.57126664819E+01 -0.10507889312E+02 -0.21708856796E+02  0.24785575634E+02  0.00000000000E+00 0. -1.
         -5    1    3    3    0  503 -0.56016747846E+02 -0.36648739934E+02 -0.94628193077E+02  0.11600685800E+03  0.47000000000E+01 0.  1.
         11    1    4    4    0    0 -0.35458426813E+02 -0.18498934611E+02  0.12024487040E+02  0.41762410159E+02  0.00000000000E+00 0. -1.
        -12    1    4    4    0    0  0.35890128232E+02  0.15345460477E+02  0.12318361391E+02  0.40930752364E+02  0.00000000000E+00 0.  1.
</event>
<event>
12    1  0.8358445E-002  0.1970807E+03  0.7818608E-02  0.1152240E+00
         21   -1    0    0  501  502  0.00000000000E+00  0.00000000000E+00  0.46182597686E+03  0.46182597686E+03  0.00000000000E+00 0. -1.
         21   -1    0    0  502  503 -0.00000000000E+00 -0.00000000000E+00 -0.95629519937E+02  0.95629519937E+02  0.00000000000E+00 0. -1.
         -6    2    1    2    0  503  0.32549420323E+02  0.88075723844E+02  0.27995717651E+03  0.34233227729E+03  0.17320095122E+03 0.  0.
        -24    2    3    3    0    0 -0.19665251074E+02  0.10107456578E+03  0.24698399554E+03  0.27904987481E+03  0.79151428493E+02 0.  0.
          6    2    1    2  501    0 -0.32549420323E+02 -0.88075723844E+02  0.86239280416E+02  0.21512321951E+03  0.17327431486E+03 0.  0.
         24    2    5    5    0    0  0.18284092023E+02 -0.75282747976E+01  0.82518624618E+02  0.11968805405E+03  0.84409264492E+02 0.  0.
          5    1    5    5  501    0 -0.50833512345E+02 -0.80547449047E+02  0.37206557981E+01  0.95435165452E+02  0.47000000000E+01 0. -1.
        -13    1    6    6    0    0 -0.16864010212E+02  0.30206260767E+02  0.39716882297E+02  0.52671090451E+02  0.00000000000E+00 0.  1.
         14    1    6    6    0    0  0.35148102235E+02 -0.37734535564E+02  0.42801742321E+02  0.67016963604E+02  0.00000000000E+00 0. -1.
         -5    1    3    3    0  503  0.52214671397E+02 -0.12998841931E+02  0.32973180973E+02  0.63282402484E+02  0.47000000000E+01 0.  1.
         13    1    4    4    0    0  0.11831068926E+01 -0.20270534693E+01  0.90308307090E+02  0.90338801283E+02  0.00000000000E+00 0. -1.
        -14    1    4    4    0    0 -0.20848357967E+02  0.10310161925E+03  0.15667568845E+03  0.18871107353E+03  0.00000000000E+00 0.  1.
</event>
<event>
12    1  0.8358445E-002  0.1866755E+03  0.7818608E-02  0.1161696E+00
         21   -1    0    0  503  502  0.00000000000E+00  0.00000000000E+00  0.53647236401E+03  0.53647236401E+03  0.00000000000E+00 0.  1.
         21   -1    0    0  501  503 -0.00000000000E+00 -0.00000000000E+00 -0.12450911887E+03  0.12450911887E+03  0.00000000000E+00 0.  1.
          6    2    1    2  501    0  0.60562125305E+02  0.39381593531E+02 -0.22911304656E+02  0.18807621167E+03  0.17213091699E+03 0.  0.
         24    2    3    3    0    0  0.91562710155E+02  0.63705737435E+02  0.80391014080E+01  0.13775009645E+03  0.80425810827E+02 0.  0.
         -6    2    1    2    0  502 -0.60562125305E+02 -0.39381593531E+02  0.43487454980E+03  0.47290527121E+03  0.17118656650E+03 0.  0.
        -24    2    5    5    0    0 -0.48191757519E+02 -0.25050496900E+02  0.10534523271E+03  0.14279912594E+03  0.79649227401E+02 0.  0.
          5    1    3    3  501    0 -0.31000584850E+02 -0.24324143904E+02 -0.30950406064E+02  0.50326115221E+02  0.47000000000E+01 0. -1.
        -11    1    4    4    0    0  0.42642150588E+02  0.54349155746E+02 -0.29765166483E+02  0.75220667857E+02  0.00000000000E+00 0.  1.
         12    1    4    4    0    0  0.48920559567E+02  0.93565816888E+01  0.37804267891E+02  0.62529428592E+02  0.00000000000E+00 0. -1.
         -5    1    5    5    0  502 -0.12370367786E+02 -0.14331096631E+02  0.32952931709E+03  0.33010614528E+03  0.47000000000E+01 0.  1.
         11    1    6    6    0    0  0.54829942549E+01 -0.28482280410E+02  0.56924742200E+01  0.29558548444E+02  0.00000000000E+00 0. -1.
        -12    1    6    6    0    0 -0.53674751774E+02  0.34317835103E+01  0.99652758491E+02  0.11324057749E+03  0.00000000000E+00 0.  1.
</event>
<event>
12    1  0.8358445E-002  0.3122752E+03  0.7818608E-02  0.1079365E+00
         21   -1    0    0  501  502  0.00000000000E+00  0.00000000000E+00  0.12522439962E+04  0.12522439962E+04  0.00000000000E+00 0.  1.
         21   -1    0    0  502  503 -0.00000000000E+00 -0.00000000000E+00 -0.81816496659E+02  0.81816496659E+02  0.00000000000E+00 0. -1.
         -6    2    1    2    0  503 -0.18020508722E+03  0.18740508501E+03  0.43395044133E+03  0.53411407320E+03  0.17137770657E+03 0.  0.
        -24    2    3    3    0    0 -0.91946826360E+02  0.18553678207E+03  0.32629202536E+03  0.39481067878E+03  0.80813797655E+02 0.  0.
          6    2    1    2  501    0  0.18020508722E+03 -0.18740508501E+03  0.73647705825E+03  0.79994641971E+03  0.17297767983E+03 0.  0.
         24    2    5    5    0    0  0.23752178404E+02 -0.28370242770E+02  0.18254607363E+03  0.20276033526E+03  0.80122705308E+02 0.  0.
          5    1    5    5  501    0  0.15645290881E+03 -0.15903484224E+03  0.55393098463E+03  0.59718608444E+03  0.47000000000E+01 0. -1.
        -11    1    6    6    0    0  0.43641345179E+02 -0.43455467046E+02  0.14645592241E+03  0.15887819811E+03  0.00000000000E+00 0.  1.
         12    1    6    6    0    0 -0.19889166775E+02  0.15085224276E+02  0.36090151219E+02  0.43882137157E+02  0.00000000000E+00 0. -1.
         -5    1    3    3    0  503 -0.88258260857E+02  0.18683029389E+01  0.10765841597E+03  0.13930339441E+03  0.47000000000E+01 0.  1.
         11    1    4    4    0    0 -0.92614553091E+02  0.14952073764E+03  0.21466701311E+03  0.27751726603E+03  0.00000000000E+00 0. -1.
        -12    1    4    4    0    0  0.66772673138E+00  0.36016044430E+02  0.11162501225E+03  0.11729341276E+03  0.00000000000E+00 0.  1.
</event>
<event>
12    1  0.8358445E-002  0.2040737E+03  0.7818608E-02  0.1148854E+00
         21   -1    0    0  501  502  0.00000000000E+00  0.00000000000E+00  0.10318405641E+04  0.10318405641E+04  0.00000000000E+00 0.  1.
         21   -1    0    0  502  503 -0.00000000000E+00 -0.00000000000E+00 -0.23216894706E+03  0.23216894706E+03  0.00000000000E+00 0.  1.
         -6    2    1    2    0  503 -0.50707143267E+02  0.67904892649E+02 -0.17605600174E+03  0.26952142393E+03  0.18564426569E+03 0.  0.
        -24    2    3    3    0    0 -0.10480218448E+03  0.31694176870E+02 -0.14017195616E+03  0.19504160017E+03  0.80031429960E+02 0.  0.
          6    2    1    2  501    0  0.50707143267E+02 -0.67904892649E+02  0.97572761881E+03  0.99448808725E+03  0.17256848131E+03 0.  0.
         24    2    5    5    0    0  0.61586706666E+02 -0.31063030006E+02  0.92344190887E+03  0.92943754377E+03  0.79695385320E+02 0.  0.
          5    1    5    5  501    0 -0.10879563399E+02 -0.36841862643E+02  0.52285709944E+02  0.65050543480E+02  0.47000000000E+01 0. -1.
        -11    1    6    6    0    0  0.62501414915E+02 -0.52194917866E+02  0.80629370870E+03  0.81039513881E+03  0.00000000000E+00 0.  1.
         12    1    6    6    0    0 -0.91470824970E+00  0.21131887859E+02  0.11714820017E+03  0.11904240496E+03  0.00000000000E+00 0. -1.
         -5    1    3    3    0  503  0.54095041214E+02  0.36210715779E+02 -0.35884045580E+02  0.74479823766E+02  0.47000000000E+01 0.  1.
         11    1    4    4    0    0 -0.49386374065E+02 -0.55561002350E+01 -0.12943316585E+02  0.51355755640E+02  0.00000000000E+00 0. -1.
        -12    1    4    4    0    0 -0.55415810415E+02  0.37250277106E+02 -0.12722863958E+03  0.14368584453E+03  0.00000000000E+00 0.  1.
</event>
<event>
12    1  0.8358445E-002  0.2404597E+03  0.7818608E-02  0.1119493E+00
         21   -1    0    0  501  502  0.00000000000E+00  0.00000000000E+00  0.56130506085E+03  0.56130506085E+03  0.00000000000E+00 0.  1.
         21   -1    0    0  502  503 -0.00000000000E+00 -0.00000000000E+00 -0.59097939576E+03  0.59097939576E+03  0.00000000000E+00 0.  1.
         -6    2    1    2    0  503  0.12178400718E+03  0.12012465865E+03 -0.53837326084E+03  0.58963263584E+03  0.16899585569E+03 0.  0.
        -24    2    3    3    0    0  0.14544041549E+03  0.80389187149E+02 -0.34989313449E+03  0.39550540597E+03  0.79899841785E+02 0.  0.
          6    2    1    2  501    0 -0.12178400718E+03 -0.12012465865E+03  0.50869892593E+03  0.56265182077E+03  0.16894139857E+03 0.  0.
         24    2    5    5    0    0 -0.37572468489E+02 -0.24396299867E+02  0.33531134104E+03  0.34738257885E+03  0.78956258897E+02 0.  0.
          5    1    5    5  501    0 -0.84211538692E+02 -0.95728358783E+02  0.17338758489E+03  0.21526924192E+03  0.47000000000E+01 0. -1.
        -11    1    6    6    0    0 -0.19814133798E+02 -0.48809986131E+02  0.13686011811E+03  0.14664824095E+03  0.00000000000E+00 0.  1.
         12    1    6    6    0    0 -0.17758334692E+02  0.24413686264E+02  0.19845122294E+03  0.20073433790E+03  0.00000000000E+00 0. -1.
         -5    1    3    3    0  503 -0.23656408313E+02  0.39735471501E+02 -0.18848012635E+03  0.19412722987E+03  0.47000000000E+01 0.  1.
         13    1    4    4    0    0  0.54608326288E+01 -0.14179615408E+02 -0.23455299183E+02  0.27946972035E+02  0.00000000000E+00 0. -1.
        -14    1    4    4    0    0  0.13997958287E+03  0.94568802557E+02 -0.32643783531E+03  0.36755843394E+03  0.00000000000E+00 0.  1.
</event>
<event>
12    1  0.8358445E-002  0.2574805E+03  0.7818608E-02  0.1108747E+00
         21   -1    0    0  503  502  0.00000000000E+00  0.00000000000E+00  0.50135190239E+03  0.50135190239E+03  0.00000000000E+00 0.  1.
         21   -1    0    0  501  503 -0.00000000000E+00 -0.00000000000E+00 -0.23971944807E+03  0.23971944807E+03  0.00000000000E+00 0. -1.
          6    2    1    2  501    0  0.18920219579E+03 -0.26945832300E+02 -0.11753748439E+03  0.28303931465E+03  0.17254751412E+03 0.  0.
         24    2    3    3    0    0  0.15773094849E+03 -0.47551305767E+02 -0.14714139855E+03  0.23494038870E+03  0.80038842373E+02 0.  0.
         -6    2    1    2    0  502 -0.18920219579E+03  0.26945832300E+02  0.37916993871E+03  0.45803203580E+03  0.17175550829E+03 0.  0.
        -24    2    5    5    0    0 -0.17474597390E+03  0.73545790024E+02  0.27648957273E+03  0.34425204649E+03  0.78216680160E+02 0.  0.
          5    1    3    3  501    0  0.31471247308E+02  0.20605473467E+02  0.29603914155E+02  0.48098925946E+02  0.47000000000E+01 0. -1.
        -13    1    4    4    0    0  0.26291605142E+02  0.10839546671E+02  0.10132958430E+01  0.28456476265E+02  0.00000000000E+00 0.  1.
         14    1    4    4    0    0  0.13143934334E+03 -0.58390852438E+02 -0.14815469439E+03  0.20648391244E+03  0.00000000000E+00 0. -1.
         -5    1    5    5    0  502 -0.14456221891E+02 -0.46599957724E+02  0.10268036598E+03  0.11377998931E+03  0.47000000000E+01 0.  1.
         11    1    6    6    0    0 -0.74003907546E+02  0.56578105440E+01  0.57742473942E+02  0.94036069937E+02  0.00000000000E+00 0. -1.
        -12    1    6    6    0    0 -0.10074206636E+03  0.67887979480E+02  0.21874709879E+03  0.25021597655E+03  0.00000000000E+00 0.  1.
</event>
<event>
12    1  0.8358445E-002  0.2444126E+03  0.7818608E-02  0.1118797E+00
         21   -1    0    0  501  502  0.00000000000E+00  0.00000000000E+00  0.10723818729E+03  0.10723818729E+03  0.00000000000E+00 0.  1.
         21   -1    0    0  502  503 -0.00000000000E+00 -0.00000000000E+00 -0.54163102421E+03  0.54163102421E+03  0.00000000000E+00 0. -1.
         -6    2    1    2    0  503  0.67303446389E+02  0.14323006384E+03 -0.26713294540E+03  0.36207395080E+03  0.18626038294E+03 0.  0.
        -24    2    3    3    0    0 -0.19505081175E+02  0.74182276527E+02 -0.21967326254E+03  0.24133527064E+03  0.64053979105E+02 0.  0.
          6    2    1    2  501    0 -0.67303446389E+02 -0.14323006384E+03 -0.16725989153E+03  0.28679526070E+03  0.17097088981E+03 0.  0.
         24    2    5    5    0    0 -0.39693735815E+02 -0.13022006921E+03 -0.49969663186E+02  0.16550781806E+03  0.79768486948E+02 0.  0.
          5    1    5    5  501    0 -0.27609710575E+02 -0.13009994624E+02 -0.11729022834E+03  0.12128744264E+03  0.47000000000E+01 0. -1.
        -13    1    6    6    0    0 -0.19115371381E+02 -0.11754254755E+03 -0.10924064116E+02  0.11958671784E+03  0.00000000000E+00 0.  1.
         14    1    6    6    0    0 -0.20578364434E+02 -0.12677521667E+02 -0.39045599071E+02  0.45921100217E+02  0.00000000000E+00 0. -1.
         -5    1    3    3    0  503  0.86808527564E+02  0.69047787312E+02 -0.47459682860E+02  0.12073868016E+03  0.47000000000E+01 0.  1.
         11    1    4    4    0    0  0.89441304132E+01 -0.77160807963E+01 -0.42121338965E+02  0.43746343481E+02  0.00000000000E+00 0. -1.
        -12    1    4    4    0    0 -0.28449211588E+02  0.81898357323E+02 -0.17755192357E+03  0.19758892716E+03  0.00000000000E+00 0.  1.
</event>
<event>
12    1  0.8358445E-002  0.1947785E+03  0.7818608E-02  0.1154360E+00
         21   -1    0    0  501  502  0.00000000000E+00  0.00000000000E+00  0.18342611045E+03  0.18342611045E+03  0.00000000000E+00 0.  1.
         21   -1    0    0  502  503 -0.00000000000E+00 -0.00000000000E+00 -0.64452121707E+03  0.64452121707E+03  0.00000000000E+00 0.  1.
         -6    2    1    2    0  503 -0.64770174069E+02  0.66332763296E+02 -0.57183302282E+03  0.60389033333E+03  0.17057349667E+03 0.  0.
        -24    2    3    3    0    0 -0.19458283131E+02  0.52256666870E+02 -0.53477032927E+03  0.54349962872E+03  0.79392426143E+02 0.  0.
          6    2    1    2  501    0  0.64770174069E+02 -0.66332763296E+02  0.11073791620E+03  0.22405699418E+03  0.17129926918E+03 0.  0.
         24    2    5    5    0    0  0.72326346329E+02 -0.75812620989E+02  0.20749651237E+02  0.13313427275E+03  0.79470325784E+02 0.  0.
          5    1    5    5  501    0 -0.75561722596E+01  0.94798576932E+01  0.89988264965E+02  0.90922721432E+02  0.47000000000E+01 0. -1.
        -11    1    6    6    0    0 -0.14014597094E+02 -0.79376578459E+01  0.16747016214E+02  0.23235272666E+02  0.00000000000E+00 0.  1.
         12    1    6    6    0    0  0.86340943422E+02 -0.67874963144E+02  0.40026350231E+01  0.10989900009E+03  0.00000000000E+00 0. -1.
         -5    1    3    3    0  503 -0.45311890938E+02  0.14076096426E+02 -0.37062693550E+02  0.60390704617E+02  0.47000000000E+01 0.  1.
         11    1    4    4    0    0 -0.42500117493E+01  0.90555905711E+00  0.14732112057E+01  0.45883535535E+01  0.00000000000E+00 0. -1.
        -12    1    4    4    0    0 -0.15208271381E+02  0.51351107813E+02 -0.53624354048E+03  0.53891127516E+03  0.00000000000E+00 0.  1.
</event>
<event>
12    1  0.8358445E-002  0.2098687E+03  0.7818608E-02  0.1143630E+00
         21   -1    0    0  503  502  0.00000000000E+00  0.00000000000E+00  0.11923596237E+04  0.11923596237E+04  0.00000000000E+00 0.  1.
         21   -1    0    0  501  503 -0.00000000000E+00 -0.00000000000E+00 -0.39167896690E+02  0.39167896690E+02  0.00000000000E+00 0. -1.
          6    2    1    2  501    0  0.20380620354E+02 -0.12261110105E+03  0.75881486318E+03  0.78478598308E+03  0.15697194297E+03 0.  0.
         24    2    3    3    0    0  0.35737822776E+02 -0.56386092621E+02  0.23950309692E+03  0.26102229975E+03  0.79462721534E+02 0.  0.
         -6    2    1    2    0  502 -0.20380620354E+02  0.12261110105E+03  0.39437686387E+03  0.44674153734E+03  0.16910363286E+03 0.  0.
        -24    2    5    5    0    0 -0.54312997458E+02  0.13455607289E+03  0.26567156011E+03  0.31302080678E+03  0.79658076667E+02 0.  0.
          5    1    3    3  501    0 -0.15357202423E+02 -0.66225008425E+02  0.51931176626E+03  0.52376368333E+03  0.47000000000E+01 0. -1.
        -11    1    4    4    0    0 -0.51767815499E+01 -0.19117024890E+02  0.17462845474E+03  0.17574799263E+03  0.00000000000E+00 0.  1.
         12    1    4    4    0    0  0.40914604326E+02 -0.37269067732E+02  0.64874642178E+02  0.85274307118E+02  0.00000000000E+00 0. -1.
         -5    1    5    5    0  502  0.33932377104E+02 -0.11944971842E+02  0.12870530376E+03  0.13372073057E+03  0.47000000000E+01 0.  1.
         11    1    6    6    0    0  0.74086610826E+01  0.75317433952E+02  0.89740885061E+02  0.11739263421E+03  0.00000000000E+00 0. -1.
        -12    1    6    6    0    0 -0.61721658541E+02  0.59238638937E+02  0.17593067505E+03  0.19562817257E+03  0.00000000000E+00 0.  1.
</event>
<event>
12    1  0.8358445E-002  0.2041503E+03  0.7818608E-02  0.1146300E+00
         21   -1    0    0  501  502  0.00000000000E+00  0.00000000000E+00  0.54072928673E+02  0.54072928673E+02  0.00000000000E+00 0. -1.
         21   -1    0    0  502  503 -0.00000000000E+00 -0.00000000000E+00 -0.95412825657E+03  0.95412825657E+03  0.00000000000E+00 0.  1.
         -6    2    1    2    0  503  0.96682186840E+02 -0.51760857294E+02 -0.67126305924E+03  0.70162056653E+03  0.17219376607E+03 0.  0.
        -24    2    3    3    0    0  0.61461895776E+02  0.32782292546E+02 -0.25680991510E+03  0.27714263803E+03  0.77488489386E+02 0.  0.
          6    2    1    2  501    0 -0.96682186840E+02  0.51760857294E+02 -0.22879226865E+03  0.30658061871E+03  0.17210212658E+03 0.  0.
         24    2    5    5    0    0 -0.42417138782E+02  0.35323976876E+02 -0.23000647357E+03  0.24967340676E+03  0.79917677363E+02 0.  0.
          5    1    5    5  501    0 -0.54265048058E+02  0.16436880418E+02  0.12142049149E+01  0.56907211952E+02  0.47000000000E+01 0. -1.
        -13    1    6    6    0    0 -0.44658538168E+02 -0.11207256188E+02 -0.76836406125E+02  0.89575783161E+02  0.00000000000E+00 0.  1.
         14    1    6    6    0    0  0.22413993855E+01  0.46531233065E+02 -0.15317006744E+03  0.16009762360E+03  0.00000000000E+00 0. -1.
         -5    1    3    3    0  503  0.35220291064E+02 -0.84543149841E+02 -0.41445314414E+03  0.42447792849E+03  0.47000000000E+01 0.  1.
         13    1    4    4    0    0  0.27440356745E+02  0.19501093041E+02 -0.23653411244E+02  0.41143039163E+02  0.00000000000E+00 0. -1.
        -14    1    4    4    0    0  0.34021539031E+02  0.13281199505E+02 -0.23315650385E+03  0.23599959887E+03  0.00000000000E+00 0.  1.
</event>
<event>
12    1  0.8358445E-002  0.1944529E+03  0.7818608E-02  0.1155100E+00
         21   -1    0    0  501  502  0.00000000000E+00  0.00000000000E+00  0.61708025051E+02  0.61708025051E+02  0.00000000000E+00 0.  1.
         21   -1    0    0  502  503 -0.00000000000E+00 -0.00000000000E+00 -0.91149551897E+03  0.91149551897E+03  0.00000000000E+00 0.  1.
         -6    2    1    2    0  503 -0.30282105888E+02 -0.85081135473E+02 -0.70542106784E+03  0.73101848636E+03  0.16915477791E+03 0.  0.
        -24    2    3    3    0    0 -0.64356328093E+02 -0.45732913724E+02 -0.62558551320E+03  0.63559762407E+03  0.79961672329E+02 0.  0.
          6    2    1    2  501    0  0.30282105888E+02  0.85081135473E+02 -0.14436642608E+03  0.24218505766E+03  0.17220955730E+03 0.  0.
         24    2    5    5    0    0 -0.49675232046E+02  0.61607709814E+02 -0.79430959999E+02  0.13643590941E+03  0.77732498882E+02 0.  0.
          5    1    5    5  501    0  0.79957337934E+02  0.23473425659E+02 -0.64935466078E+02  0.10574914825E+03  0.47000000000E+01 0. -1.
        -11    1    6    6    0    0 -0.63603404572E+02  0.21226715761E+02 -0.57947561268E+02  0.88622155198E+02  0.00000000000E+00 0.  1.
         12    1    6    6    0    0  0.13928172526E+02  0.40380994053E+02 -0.21483398731E+02  0.47813754210E+02  0.00000000000E+00 0. -1.
         -5    1    3    3    0  503  0.34074222205E+02 -0.39348221750E+02 -0.79835554644E+02  0.95420862284E+02  0.47000000000E+01 0.  1.
         11    1    4    4    0    0 -0.53646254791E+02 -0.67558187695E+02 -0.43534517064E+03  0.44381014745E+03  0.00000000000E+00 0. -1.
        -12    1    4    4    0    0 -0.10710073302E+02  0.21825273972E+02 -0.19024034256E+03  0.19178747663E+03  0.00000000000E+00 0.  1.
</event>
<event>
12    1  0.8358445E-002  0.3598409E+03  0.7818608E-02  0.1058938E+00
         21   -1    0    0  503  502  0.00000000000E+00  0.00000000000E+00  0.64698079938E+03  0.64698079938E+03  0.00000000000E+00 0. -1.
         21   -1    0    0  501  503 -0.00000000000E+00 -0.00000000000E+00 -0.32469097884E+03  0.32469097884E+03  0.00000000000E+00 0.  1.
          6    2    1    2  501    0  0.18018582517E+03 -0.25608165223E+03 -0.14211851480E+03  0.38416810871E+03  0.17129716663E+03 0.  0.
         24    2    3    3    0    0  0.11767625318E+03 -0.18649995582E+03 -0.16652015089E+03  0.28738696949E+03  0.78945395660E+02 0.  0.
         -6    2    1    2    0  502 -0.18018582517E+03  0.25608165223E+03  0.46440833534E+03  0.58750366951E+03  0.17731529983E+03 0.  0.
        -24    2    5    5    0    0 -0.18420741016E+02  0.43301195630E+02  0.10698679373E+03  0.14116779422E+03  0.79169784960E+02 0.  0.
          5    1    3    3  501    0  0.62509571990E+02 -0.69581696407E+02  0.24401636082E+02  0.96781139220E+02  0.47000000000E+01 0. -1.
        -11    1    4    4    0    0  0.67223688058E+02 -0.16447800441E+03 -0.11277701662E+03  0.21045354273E+03  0.00000000000E+00 0.  1.
         12    1    4    4    0    0  0.50452565126E+02 -0.22021951412E+02 -0.53743134266E+02  0.76933426757E+02  0.00000000000E+00 0. -1.
         -5    1    5    5    0  502 -0.16176508416E+03  0.21278045660E+03  0.35742154161E+03  0.44633587529E+03  0.47000000000E+01 0.  1.
         13    1    6    6    0    0 -0.32844197405E+02 -0.11747903229E+02  0.35130322275E+02  0.49506505397E+02  0.00000000000E+00 0. -1.
        -14    1    6    6    0    0  0.14423456388E+02  0.55049098859E+02  0.71856471453E+02  0.91661288825E+02  0.00000000000E+00 0.  1.
</event>
<event>
12    1  0.8358445E-002  0.1969933E+03  0.7818608E-02  0.1152517E+00
         21   -1    0    0  501  502  0.00000000000E+00  0.00000000000E+00  0.76206987628E+02  0.76206987628E+02  0.00000000000E+00 0.  1.
         21   -1    0    0  502  503 -0.00000000000E+00 -0.00000000000E+00 -0.61221695665E+03  0.61221695665E+03  0.00000000000E+00 0.  1.
         -6    2    1    2    0  503  0.65497171755E+02  0.70765821053E+02 -0.41038292935E+03  0.45478207723E+03  0.17063091200E+03 0.  0.
        -24    2    3    3    0    0  0.93036677968E+02  0.47571761721E+02 -0.18796816698E+03  0.22942279672E+03  0.79899260926E+02 0.  0.
          6    2    1    2  501    0 -0.65497171755E+02 -0.70765821053E+02 -0.12562703966E+03  0.23364186704E+03  0.17178093027E+03 0.  0.
         24    2    5    5    0    0 -0.30468426554E+02 -0.93097644398E+02 -0.14045975980E+03  0.18928171701E+03  0.80641973325E+02 0.  0.
          5    1    5    5  501    0 -0.35028745201E+02  0.22331823345E+02  0.14832720137E+02  0.44360150033E+02  0.47000000000E+01 0. -1.
        -11    1    6    6    0    0 -0.23556863305E+02 -0.30551195146E+02 -0.37201398604E+01  0.38757460885E+02  0.00000000000E+00 0.  1.
         12    1    6    6    0    0 -0.69115632488E+01 -0.62546449252E+02 -0.13673961994E+03  0.15052425613E+03  0.00000000000E+00 0. -1.
         -5    1    3    3    0  503 -0.27539506213E+02  0.23194059332E+02 -0.22241476238E+03  0.22535928051E+03  0.47000000000E+01 0.  1.
         11    1    4    4    0    0  0.13480620735E+02  0.33596813468E+02 -0.16300182815E+02  0.39700994578E+02  0.00000000000E+00 0. -1.
        -12    1    4    4    0    0  0.79556057233E+02  0.13974948252E+02 -0.17166798416E+03  0.18972180214E+03  0.00000000000E+00 0.  1.
</event>
<event>
12    1  0.8358445E-002  0.1936891E+03  0.7818608E-02  0.1155953E+00
         21   -1    0    0  503  502  0.00000000000E+00  0.00000000000E+00  0.50629360779E+02  0.50629360779E+02  0.00000000000E+00 0.  1.
         21   -1    0    0  501  503 -0.00000000000E+00 -0.00000000000E+00 -0.86335386572E+03  0.86335386572E+03  0.00000000000E+00 0.  1.
          6    2    1    2  501    0  0.84601116009E+02 -0.85431362867E+00 -0.58441040704E+03  0.61457915804E+03  0.17033478492E+03 0.  0.
         24    2    3    3    0    0 -0.21135751329E+02 -0.12534360306E+01 -0.31253709751E+03  0.32282989780E+03  0.78047514428E+02 0.  0.
         -6    2    1    2    0  502 -0.84601116009E+02  0.85431362867E+00 -0.22831409790E+03  0.29940406846E+03  0.17423372300E+03 0.  0.
        -24    2    5    5    0    0  0.16679005860E+02 -0.95428875590E+00 -0.15085934546E+03  0.17180209824E+03  0.80488004970E+02 0.  0.
          5    1    3    3  501    0  0.10573686734E+03  0.39912240195E+00 -0.27187330953E+03  0.29174926023E+03  0.47000000000E+01 0. -1.
        -11    1    4    4    0    0  0.15900167404E+02  0.18403392024E+02 -0.21873822994E+03  0.22008614995E+03  0.00000000000E+00 0.  1.
         12    1    4    4    0    0 -0.37035918734E+02 -0.19656828055E+02 -0.93798867571E+02  0.10274374786E+03  0.00000000000E+00 0. -1.
         -5    1    5    5    0  502 -0.10128012187E+03  0.18086023846E+01 -0.77454752445E+02  0.12760197022E+03  0.47000000000E+01 0.  1.
         13    1    6    6    0    0 -0.15275568028E+02  0.28900448813E+02 -0.97374402830E+02  0.10271491248E+03  0.00000000000E+00 0. -1.
        -14    1    6    6    0    0  0.31954573888E+02 -0.29854737568E+02 -0.53484942626E+02  0.69087185754E+02  0.00000000000E+00 0.  1.
</event>
<event>
12    1  0.8358445E-002  0.2181688E+03  0.7818608E-02  0.1135516E+00
         21   -1    0    0  503  502  0.00000000000E+00  0.00000000000E+00  0.12567778166E+04  0.12567778166E+04  0.00000000000E+00 0.  1.
         21   -1    0    0  501  503 -0.00000000000E+00 -0.00000000000E+00 -0.41302805880E+02  0.41302805880E+02  0.00000000000E+00 0. -1.
          6    2    1    2  501    0 -0.88038769878E+01  0.13338660088E+03  0.41256164939E+03  0.46605449335E+03  0.17067566517E+03 0.  0.
         24    2    3    3    0    0 -0.60877641881E+01  0.91461435420E+02  0.40457593352E+03  0.42303172698E+03  0.82896930041E+02 0.  0.
         -6    2    1    2    0  502  0.88038769878E+01 -0.13338660088E+03  0.80291336136E+03  0.83202612916E+03  0.17241844509E+03 0.  0.
        -24    2    5    5    0    0 -0.29003939439E+02 -0.52371619535E+02  0.21223862446E+03  0.23460534529E+03  0.80065094079E+02 0.  0.
          5    1    3    3  501    0 -0.27161127997E+01  0.41925165463E+02  0.79857158684E+01  0.43022766366E+02  0.47000000000E+01 0. -1.
        -13    1    4    4    0    0  0.56979451819E+01  0.32937964576E+02  0.30576630374E+03  0.30758805014E+03  0.00000000000E+00 0.  1.
         14    1    4    4    0    0 -0.11785709370E+02  0.58523470843E+02  0.98809629783E+02  0.11544367684E+03  0.00000000000E+00 0. -1.
         -5    1    5    5    0  502  0.37807816427E+02 -0.81014981348E+02  0.59067473690E+03  0.59742078387E+03  0.47000000000E+01 0.  1.
         13    1    6    6    0    0 -0.25671521300E+01  0.54490688508E+01 -0.52649175018E+01  0.80001236053E+01  0.00000000000E+00 0. -1.
        -14    1    6    6    0    0 -0.26436787309E+02 -0.57820688386E+02  0.21750354196E+03  0.22660522168E+03  0.00000000000E+00 0.  1.
</event>
<event>
12    1  0.8358445E-002  0.1847800E+03  0.7818608E-02  0.1164095E+00
         21   -1    0    0  503  502  0.00000000000E+00  0.00000000000E+00  0.74601284567E+03  0.74601284567E+03  0.00000000000E+00 0.  1.
         21   -1    0    0  501  503 -0.00000000000E+00 -0.00000000000E+00 -0.11144630235E+03  0.11144630235E+03  0.00000000000E+00 0.  1.
          6    2    1    2  501    0 -0.64735016649E+02  0.17710471055E+02 -0.15265110676E+02  0.18186693449E+03  0.16833976088E+03 0.  0.
         24    2    3    3    0    0  0.92821214553E+01  0.95983563812E+01 -0.54815863341E+02  0.97423490851E+02  0.79424627615E+02 0.  0.
         -6    2    1    2    0  502  0.64735016649E+02 -0.17710471055E+02  0.64983165400E+03  0.67559221353E+03  0.17216090520E+03 0.  0.
        -24    2    5    5    0    0  0.53138322052E+02  0.33295833143E+02  0.31233017238E+03  0.33402894489E+03  0.10046345439E+03 0.  0.
          5    1    3    3  501    0 -0.74017138104E+02  0.81121146736E+01  0.39550752666E+02  0.84443443642E+02  0.47000000000E+01 0. -1.
        -13    1    4    4    0    0 -0.22925502298E+02 -0.65637432046E+01 -0.56523302748E+02  0.61347739436E+02  0.00000000000E+00 0.  1.
         14    1    4    4    0    0  0.32207623753E+02  0.16162099586E+02  0.17074394061E+01  0.36075751415E+02  0.00000000000E+00 0. -1.
         -5    1    5    5    0  502  0.11596694597E+02 -0.51006304198E+02  0.33750148162E+03  0.34156326864E+03  0.47000000000E+01 0.  1.
         11    1    6    6    0    0 -0.67412514596E+00  0.49989545561E+02  0.22206293453E+03  0.22762107987E+03  0.00000000000E+00 0. -1.
        -12    1    6    6    0    0  0.53812447198E+02 -0.16693712418E+02  0.90267237853E+02  0.10640786502E+03  0.00000000000E+00 0.  1.
</event>
<event>
12    1  0.8358445E-002  0.2440051E+03  0.7818608E-02  0.1117272E+00
         21   -1    0    0  503  502  0.00000000000E+00  0.00000000000E+00  0.42528384228E+03  0.42528384228E+03  0.00000000000E+00 0.  1.
         21   -1    0    0  501  503 -0.00000000000E+00 -0.00000000000E+00 -0.14202022730E+03  0.14202022730E+03  0.00000000000E+00 0. -1.
          6    2    1    2  501    0 -0.13332447280E+03  0.10853109873E+03  0.10465434259E+03  0.26550141753E+03  0.17315905073E+03 0.  0.
         24    2    3    3    0    0 -0.10860420614E+02  0.77462974707E+02  0.40625579889E+02  0.12378181811E+03  0.86908224965E+02 0.  0.
         -6    2    1    2    0  502  0.13332447280E+03 -0.10853109873E+03  0.17860927239E+03  0.30180265205E+03  0.17213121206E+03 0.  0.
        -24    2    5    5    0    0  0.12075903186E+03 -0.14229067955E+03  0.16945023573E+03  0.26433830158E+03  0.79573701885E+02 0.  0.
          5    1    3    3  501    0 -0.12246405218E+03  0.31068124019E+02  0.64028762697E+02  0.14171959942E+03  0.47000000000E+01 0. -1.
        -13    1    4    4    0    0 -0.28119450183E+02  0.77516838271E+01 -0.15133838822E+02  0.32860693210E+02  0.00000000000E+00 0.  1.
         14    1    4    4    0    0  0.17259029569E+02  0.69711290880E+02  0.55759418711E+02  0.90921124898E+02  0.00000000000E+00 0. -1.
         -5    1    5    5    0  502  0.12565440940E+02  0.33759580829E+02  0.91590366581E+01  0.37464350472E+02  0.47000000000E+01 0.  1.
         11    1    6    6    0    0  0.74468095337E+02 -0.13567607266E+03  0.14242580139E+03  0.21032974782E+03  0.00000000000E+00 0. -1.
        -12    1    6    6    0    0  0.46290936518E+02 -0.66146068906E+01  0.27024434340E+02  0.54008553762E+02  0.00000000000E+00 0.  1.
</event>
<event>
12    1  0.8358445E-002  0.1847774E+03  0.7818608E-02  0.1164062E+00
         21   -1    0    0  503  502  0.00000000000E+00  0.00000000000E+00  0.49230857388E+03  0.49230857388E+03  0.00000000000E+00 0. -1.
         21   -1    0    0  501  503 -0.00000000000E+00 -0.00000000000E+00 -0.68710438411E+02  0.68710438411E+02  0.00000000000E+00 0. -1.
          6    2    1    2  501    0 -0.39659732520E+02  0.56242946498E+02  0.18688065930E+03  0.26280611236E+03  0.17148325999E+03 0.  0.
         24    2    3    3    0    0 -0.34481092038E+02 -0.30529285803E+02  0.12619765812E+03  0.15668940657E+03  0.80651957294E+02 0.  0.
         -6    2    1    2    0  502  0.39659732520E+02 -0.56242946498E+02  0.23671747616E+03  0.29821289993E+03  0.16780824398E+03 0.  0.
        -24    2    5    5    0    0 -0.31709602791E+02 -0.67285148173E+02  0.13408662290E+03  0.17263147502E+03  0.79307084506E+02 0.  0.
          5    1    3    3  501    0 -0.51786404818E+01  0.86772232301E+02  0.60683001178E+02  0.10611670579E+03  0.47000000000E+01 0. -1.
        -13    1    4    4    0    0  0.91268492497E+01 -0.42659367137E+02  0.39329967455E+02  0.58736422446E+02  0.00000000000E+00 0.  1.
         14    1    4    4    0    0 -0.43607941288E+02  0.12130081334E+02  0.86867690669E+02  0.97952984123E+02  0.00000000000E+00 0. -1.
         -5    1    5    5    0  502  0.71369335311E+02  0.11042201676E+02  0.10263085326E+03  0.12558142491E+03  0.47000000000E+01 0.  1.
         13    1    6    6    0    0  0.47712889065E+01 -0.27487889230E+02 -0.19901391332E+00  0.27899621121E+02  0.00000000000E+00 0. -1.
        -14    1    6    6    0    0 -0.36480891698E+02 -0.39797258943E+02  0.13428563682E+03  0.14473185390E+03  0.00000000000E+00 0.  1.
</event>
<event>
12    1  0.8358445E-002  0.2306891E+03  0.7818608E-02  0.1126284E+00
         21   -1    0    0  501  502  0.00000000000E+00  0.00000000000E+00  0.47526431826E+02  0.47526431826E+02  0.00000000000E+00 0.  1.
         21   -1    0    0  502  503 -0.00000000000E+00 -0.00000000000E+00 -0.11971942689E+04  0.11971942689E+04  0.00000000000E+00 0.  1.
         -6    2    1    2    0  503 -0.34700429400E+02 -0.14776752793E+03 -0.73756886214E+03  0.77280352500E+03  0.17371844967E+03 0.  0.
        -24    2    3    3    0    0 -0.26327765866E+02 -0.16697559860E+03 -0.49471106421E+03  0.52899816926E+03  0.80783811811E+02 0.  0.
          6    2    1    2  501    0  0.34700429400E+02  0.14776752793E+03 -0.41209897498E+03  0.47191717576E+03  0.17274516922E+03 0.  0.
         24    2    5    5    0    0  0.46153317017E+02  0.12806218013E+03 -0.41899873052E+03  0.44764443398E+03  0.79344517440E+02 0.  0.
          5    1    5    5  501    0 -0.11452887617E+02  0.19705347803E+02  0.68997555430E+01  0.24272741777E+02  0.47000000000E+01 0. -1.
        -13    1    6    6    0    0  0.34994421003E+02  0.80129408009E+02 -0.14548811206E+03  0.16974133933E+03  0.00000000000E+00 0.  1.
         14    1    6    6    0    0  0.11158896015E+02  0.47932772121E+02 -0.27351061846E+03  0.27790309465E+03  0.00000000000E+00 0. -1.
         -5    1    3    3    0  503 -0.83726635344E+01  0.19208070669E+02 -0.24285779793E+03  0.24380535574E+03  0.47000000000E+01 0.  1.
         11    1    4    4    0    0  0.18335875858E+01 -0.53085972059E+02 -0.67070183478E+02  0.85556367295E+02  0.00000000000E+00 0. -1.
        -12    1    4    4    0    0 -0.28161353451E+02 -0.11388962654E+03 -0.42764088073E+03  0.44344180197E+03  0.00000000000E+00 0.  1.
</event>
<event>
12    1  0.8358445E-002  0.1966593E+03  0.7818608E-02  0.1152817E+00
         21   -1    0    0  501  502  0.00000000000E+00  0.00000000000E+00  0.14065328694E+04  0.14065328694E+04  0.00000000000E+00 0.  1.
         21   -1    0    0  502  503 -0.00000000000E+00 -0.00000000000E+00 -0.64140893310E+02  0.64140893310E+02  0.00000000000E+00 0.  1.
         -6    2    1    2    0  503 -0.13157967304E+02  0.93294394579E+02  0.11504516918E+03  0.22783827830E+03  0.17262072282E+03 0.  0.
        -24    2    3    3    0    0 -0.13607855973E+02 -0.31101680965E+02  0.27499999006E+02  0.75651443029E+02  0.61760849929E+02 0.  0.
          6    2    1    2  501    0  0.13157967304E+02 -0.93294394579E+02  0.12273468069E+04  0.12428354844E+04  0.17141435382E+03 0.  0.
         24    2    5    5    0    0  0.40150663953E+02 -0.12564197571E+03  0.96777126694E+03  0.97982118322E+03  0.77912412955E+02 0.  0.
          5    1    5    5  501    0 -0.26992696649E+02  0.32347581128E+02  0.25957553994E+03  0.26301430116E+03  0.47000000000E+01 0. -1.
        -11    1    6    6    0    0 -0.82562251921E+01 -0.58847679423E+02  0.23399101876E+03  0.24141874717E+03  0.00000000000E+00 0.  1.
         12    1    6    6    0    0  0.48406889145E+02 -0.66794296284E+02  0.73378024818E+03  0.73840243605E+03  0.00000000000E+00 0. -1.
         -5    1    3    3    0  503  0.44988866858E+00  0.12439607554E+03  0.87545170172E+02  0.15218683528E+03  0.47000000000E+01 0.  1.
         11    1    4    4    0    0 -0.30422217860E+02 -0.71335225903E+00 -0.14102156716E+01  0.30463238817E+02  0.00000000000E+00 0. -1.
        -12    1    4    4    0    0  0.16814361887E+02 -0.30388328706E+02  0.28910214678E+02  0.45188204213E+02  0.00000000000E+00 0.  1.
</event>
<event>
12    1  0.8358445E-002  0.1993900E+03  0.7818608E-02  0.1152924E+00
         21   -1    0    0  501  502  0.00000000000E+00  0.00000000000E+00  0.47904699596E+02  0.47904699596E+02  0.00000000000E+00 0. -1.
         21   -1    0    0  502  503 -0.00000000000E+00 -0.00000000000E+00 -0.13738656730E+04  0.13738656730E+04  0.00000000000E+00 0. -1.
         -6    2    1    2    0  503 -0.78182155180E+02  0.58770626131E+02 -0.11183821004E+04  0.11339416503E+04  0.15962051170E+03 0.  0.
        -24    2    3    3    0    0 -0.43401805410E+02 -0.21378243268E+02 -0.74214981078E+03  0.74766928551E+03  0.76695976805E+02 0.  0.
          6    2    1    2  501    0  0.78182155180E+02 -0.58770626131E+02 -0.20757887298E+03  0.28782872234E+03  0.17375255109E+03 0.  0.
         24    2    5    5    0    0  0.37104815865E+01  0.49380798175E+01 -0.27464409952E+02  0.82723531832E+02  0.77786480823E+02 0.  0.
          5    1    5    5  501    0  0.74471673593E+02 -0.63708705949E+02 -0.18011446303E+03  0.20510519051E+03  0.47000000000E+01 0. -1.
        -11    1    6    6    0    0  0.46377514561E+01 -0.14350245338E+02 -0.50477295323E+02  0.52682023717E+02  0.00000000000E+00 0.  1.
         12    1    6    6    0    0 -0.92726986956E+00  0.19288325155E+02  0.23012885371E+02  0.30041508115E+02  0.00000000000E+00 0. -1.
         -5    1    3    3    0  503 -0.34780349770E+02  0.80148869399E+02 -0.37623228967E+03  0.38627236477E+03  0.47000000000E+01 0.  1.
         11    1    4    4    0    0 -0.90042975971E+01  0.22458230156E+02 -0.42302415030E+03  0.42371556640E+03  0.00000000000E+00 0. -1.
        -12    1    4    4    0    0 -0.34397507813E+02 -0.43836473424E+02 -0.31912566049E+03  0.32395371911E+03  0.00000000000E+00 0.  1.
</event>
<event>
12    1  0.8358445E-002  0.2147171E+03  0.7818608E-02  0.1138028E+00
         21   -1    0    0  503  502  0.00000000000E+00  0.00000000000E+00  0.46962565603E+03  0.46962565603E+03  0.00000000000E+00 0. -1.
         21   -1    0    0  501  503 -0.00000000000E+00 -0.00000000000E+00 -0.98026586280E+02  0.98026586280E+02  0.00000000000E+00 0.  1.
          6    2    1    2  501    0  0.79803037238E+02 -0.10174364700E+03  0.19824000387E+03  0.29168701084E+03  0.17047556630E+03 0.  0.
         24    2    3    3    0    0  0.74162869871E+02 -0.53284832294E+02  0.20874307313E+03  0.24156243928E+03  0.80245478837E+02 0.  0.
         -6    2    1    2    0  502 -0.79803037238E+02  0.10174364700E+03  0.17335906588E+03  0.27596523147E+03  0.17141513585E+03 0.  0.
        -24    2    5    5    0    0 -0.19838893757E+02  0.83455695072E+02  0.17833078009E+03  0.21290212315E+03  0.78530326414E+02 0.  0.
          5    1    3    3  501    0  0.56401673675E+01 -0.48458814704E+02 -0.10503069256E+02  0.50124571562E+02  0.47000000000E+01 0. -1.
        -13    1    4    4    0    0 -0.90346625703E+01 -0.26249655337E+02  0.89265822314E+02  0.93482921255E+02  0.00000000000E+00 0.  1.
         14    1    4    4    0    0  0.83197532441E+02 -0.27035176957E+02  0.11947725081E+03  0.14807951803E+03  0.00000000000E+00 0. -1.
         -5    1    5    5    0  502 -0.59964143482E+02  0.18287951926E+02 -0.49717142084E+01  0.63063108323E+02  0.47000000000E+01 0.  1.
         13    1    6    6    0    0 -0.48763168053E+02  0.38281925536E+02  0.84205605224E+02  0.10456546434E+03  0.00000000000E+00 0. -1.
        -14    1    6    6    0    0  0.28924274296E+02  0.45173769535E+02  0.94125174869E+02  0.10833665881E+03  0.00000000000E+00 0.  1.
</event>
<event>
12    1  0.8358445E-002  0.2066096E+03  0.7818608E-02  0.1144399E+00
         21   -1    0    0  503  502  0.00000000000E+00  0.00000000000E+00  0.67436128517E+03  0.67436128517E+03  0.00000000000E+00 0.  1.
         21   -1    0    0  501  503 -0.00000000000E+00 -0.00000000000E+00 -0.24268656602E+03  0.24268656602E+03  0.00000000000E+00 0. -1.
          6    2    1    2  501    0 -0.63002352132E+02  0.95699604494E+02 -0.17849615884E+03  0.27303554430E+03  0.17192969218E+03 0.  0.
         24    2    3    3    0    0 -0.63598804084E+02 -0.23448426237E+01 -0.12677231192E+03  0.16208278089E+03  0.78417489284E+02 0.  0.
         -6    2    1    2    0  502  0.63002352132E+02 -0.95699604494E+02  0.61017087800E+03  0.64401230689E+03  0.17121810768E+03 0.  0.
        -24    2    5    5    0    0  0.48204884979E+02 -0.67682007195E+02  0.19633689851E+03  0.22894050181E+03  0.83432671179E+02 0.  0.
          5    1    3    3  501    0  0.59645195279E+00  0.98044447118E+02 -0.51723846925E+02  0.11095276340E+03  0.47000000000E+01 0. -1.
        -13    1    4    4    0    0 -0.16233182132E+01  0.13681664670E+02 -0.83933974620E+02  0.85057246639E+02  0.00000000000E+00 0.  1.
         14    1    4    4    0    0 -0.61975485871E+02 -0.16026507293E+02 -0.42838337297E+02  0.77025534256E+02  0.00000000000E+00 0. -1.
         -5    1    5    5    0  502  0.14797467153E+02 -0.28017597299E+02  0.41383397948E+03  0.41507180507E+03  0.47000000000E+01 0.  1.
         11    1    6    6    0    0  0.30491639301E+02 -0.65880199843E+02  0.19816391189E+03  0.21104235777E+03  0.00000000000E+00 0. -1.
        -12    1    6    6    0    0  0.17713245679E+02 -0.18018073518E+01 -0.18270133801E+01  0.17898144040E+02  0.00000000000E+00 0.  1.
</event>
<event>
12    1  0.8358445E-002  0.1867472E+03  0.7818608E-02  0.1161754E+00
         21   -1    0    0  501  502  0.00000000000E+00  0.00000000000E+00  0.47155143494E+02  0.47155143494E+02  0.00000000000E+00 0.  1.
         21   -1    0    0  502  503 -0.00000000000E+00 -0.00000000000E+00 -0.76407438085E+03  0.76407438085E+03  0.00000000000E+00 0.  1.
         -6    2    1    2    0  503  0.69604132863E+02  0.19052343762E+02 -0.43761055719E+03  0.47524167091E+03  0.17071590110E+03 0.  0.
        -24    2    3    3    0    0 -0.51630988154E+01  0.53047275024E+02 -0.30106235912E+03  0.31582619274E+03  0.79164189907E+02 0.  0.
          6    2    1    2  501    0 -0.69604132863E+02 -0.19052343762E+02 -0.27930868017E+03  0.33598785344E+03  0.17224044741E+03 0.  0.
         24    2    5    5    0    0 -0.86751657137E+02  0.28819456278E+02 -0.24770275584E+03  0.27593145261E+03  0.80156722817E+02 0.  0.
          5    1    5    5  501    0  0.17147524274E+02 -0.47871800040E+02 -0.31605924332E+02  0.60056400830E+02  0.47000000000E+01 0. -1.
        -11    1    6    6    0    0 -0.62437880107E+02 -0.20976880480E+02 -0.12487606446E+03  0.14118268258E+03  0.00000000000E+00 0.  1.
         12    1    6    6    0    0 -0.24313777030E+02  0.49796336758E+02 -0.12282669138E+03  0.13474877003E+03  0.00000000000E+00 0. -1.
         -5    1    3    3    0  503  0.74767231679E+02 -0.33994931262E+02 -0.13654819807E+03  0.15941547817E+03  0.47000000000E+01 0.  1.
         11    1    4    4    0    0 -0.13535741908E+02  0.17705350241E+02 -0.13663996195E+02  0.26141930460E+02  0.00000000000E+00 0. -1.
        -12    1    4    4    0    0  0.83726430924E+01  0.35341924783E+02 -0.28739836292E+03  0.28968426228E+03  0.00000000000E+00 0.  1.
</event>
<event>
12    1  0.8358445E-002  0.1847361E+03  0.7818608E-02  0.1163363E+00
         21   -1    0    0  503  502  0.00000000000E+00  0.00000000000E+00  0.14068457469E+03  0.14068457469E+03  0.00000000000E+00 0.  1.
         21   -1    0    0  501  503 -0.00000000000E+00 -0.00000000000E+00 -0.24255496455E+03  0.24255496455E+03  0.00000000000E+00 0. -1.
          6    2    1    2  501    0 -0.19083434142E+02 -0.65517574528E+02 -0.58145048354E+02  0.19339927701E+03  0.17136424268E+03 0.  0.
         24    2    3    3    0    0  0.41711698705E+02 -0.28702355746E+02  0.11605972178E+02  0.93706231233E+02  0.77990179814E+02 0.  0.
         -6    2    1    2    0  502  0.19083434142E+02  0.65517574528E+02 -0.43725341515E+02  0.18984026223E+03  0.17167029341E+03 0.  0.
        -24    2    5    5    0    0  0.49698859305E+02  0.93690078621E+02 -0.50810272073E+01  0.13286248346E+03  0.79867485408E+02 0.  0.
          5    1    3    3  501    0 -0.60795132847E+02 -0.36815218782E+02 -0.69751020532E+02  0.99693045781E+02  0.47000000000E+01 0. -1.
        -11    1    4    4    0    0  0.39904644484E+02 -0.51954457063E+02 -0.40188480966E+01  0.65633812933E+02  0.00000000000E+00 0.  1.
         12    1    4    4    0    0  0.18070542209E+01  0.23252101317E+02  0.15624820274E+02  0.28072418300E+02  0.00000000000E+00 0. -1.
         -5    1    5    5    0  502 -0.30615425163E+02 -0.28172504093E+02 -0.38644314308E+02  0.56977778766E+02  0.47000000000E+01 0.  1.
         11    1    6    6    0    0  0.39289563998E+02  0.10119843535E+03 -0.22856321632E+02  0.11093784113E+03  0.00000000000E+00 0. -1.
        -12    1    6    6    0    0  0.10409295307E+02 -0.75083567249E+01  0.17775294425E+02  0.21924642332E+02  0.00000000000E+00 0.  1.
</event>
<event>
12    1  0.8358445E-002  0.2485826E+03  0.7818608E-02  0.1114290E+00
         21   -1    0    0  501  502  0.00000000000E+00  0.00000000000E+00  0.51723104466E+03  0.51723104466E+03  0.00000000000E+00 0.  1.
         21   -1    0    0  502  503 -0.00000000000E+00 -0.00000000000E+00 -0.20371239891E+03  0.20371239891E+03  0.00000000000E+00 0. -1.
         -6    2    1    2    0  503  0.14966795405E+03  0.92227456773E+02 -0.75508289925E+02  0.25927770136E+03  0.17497721088E+03 0.  0.
        -24    2    3    3    0    0  0.15279585166E+03  0.52368730305E+02 -0.10571462748E+03  0.20894863772E+03  0.79968084534E+02 0.  0.
          6    2    1    2  501    0 -0.14966795405E+03 -0.92227456773E+02  0.38902693567E+03  0.46166574221E+03  0.17574669443E+03 0.  0.
         24    2    5    5    0    0 -0.19162884385E+02  0.79554341341E+01  0.15502751225E+03  0.17557833424E+03  0.79772907869E+02 0.  0.
          5    1    5    5  501    0 -0.13050506966E+03 -0.10018289091E+03  0.23399942342E+03  0.28608740797E+03  0.47000000000E+01 0. -1.
        -11    1    6    6    0    0  0.44622995855E+01 -0.33713137416E+02  0.74234132149E+02  0.81652888056E+02  0.00000000000E+00 0.  1.
         12    1    6    6    0    0 -0.23625183970E+02  0.41668571550E+02  0.80793380103E+02  0.93925446185E+02  0.00000000000E+00 0. -1.
         -5    1    3    3    0  503 -0.31278976100E+01  0.39858726468E+02  0.30206337554E+02  0.50329063647E+02  0.47000000000E+01 0.  1.
         13    1    4    4    0    0  0.10807267760E+03  0.32830870752E+02 -0.26676863862E+02  0.11605698938E+03  0.00000000000E+00 0. -1.
        -14    1    4    4    0    0  0.44723174054E+02  0.19537859553E+02 -0.79037763617E+02  0.92891648338E+02  0.00000000000E+00 0.  1.
</event>
<event>
12    1  0.8358445E-002  0.1919507E+03  0.7818608E-02  0.1157571E+00
         21   -1    0    0  503  502  0.00000000000E+00  0.00000000000E+00  0.33571654253E+03  0.33571654253E+03  0.00000000000E+00 0. -1.
         21   -1    0    0  501  503 -0.00000000000E+00 -0.00000000000E+00 -0.12999769716E+03  0.12999769716E+03  0.00000000000E+00 0. -1.
          6    2    1    2  501    0 -0.70292398408E+02 -0.47399946259E+02  0.70227676337E+01  0.19207913851E+03  0.17221294959E+03 0.  0.
         24    2    3    3    0    0 -0.10708552369E+02 -0.87008477918E+02 -0.62563531929E+01  0.11915797877E+03  0.80463243938E+02 0.  0.
         -6    2    1    2    0  502  0.70292398408E+02  0.47399946259E+02  0.19869607773E+03  0.27363510118E+03  0.16795315154E+03 0.  0.
        -24    2    5    5    0    0 -0.22663212042E+02  0.76106282716E+01  0.11358813084E+03  0.14138765143E+03  0.80725842620E+02 0.  0.
          5    1    3    3  501    0 -0.59583846039E+02  0.39608531659E+02  0.13279120827E+02  0.72921159748E+02  0.47000000000E+01 0. -1.
        -11    1    4    4    0    0  0.32332970511E+02 -0.20404215468E+02 -0.10792696310E+02  0.39727009509E+02  0.00000000000E+00 0.  1.
         12    1    4    4    0    0 -0.43041522879E+02 -0.66604262450E+02  0.45363431175E+01  0.79430969257E+02  0.00000000000E+00 0. -1.
         -5    1    5    5    0  502  0.92955610450E+02  0.39789317988E+02  0.85107946886E+02  0.13224744974E+03  0.47000000000E+01 0.  1.
         11    1    6    6    0    0  0.18458135293E+02  0.31554977673E+02  0.46949873382E+02  0.59503865295E+02  0.00000000000E+00 0. -1.
        -12    1    6    6    0    0 -0.41121347335E+02 -0.23944349402E+02  0.66638257463E+02  0.81883786140E+02  0.00000000000E+00 0.  1.
</event>
<event>
12    1  0.8358445E-002  0.2110247E+03  0.7818608E-02  0.1140776E+00
         21   -1    0    0  501  502  0.00000000000E+00  0.00000000000E+00  0.21355577117E+03  0.21355577117E+03  0.00000000000E+00 0. -1.
         21   -1    0    0  502  503 -0.00000000000E+00 -0.00000000000E+00 -0.20896044197E+03  0.20896044197E+03  0.00000000000E+00 0. -1.
         -6    2    1    2    0  503 -0.76762457318E+02 -0.95466043417E+02 -0.83742690153E+01  0.21119083486E+03  0.17182898489E+03 0.  0.
        -24    2    3    3    0    0 -0.91254282014E+02 -0.71007887913E+01 -0.61255212332E+01  0.12149368845E+03  0.79658201931E+02 0.  0.
          6    2    1    2  501    0  0.76762457318E+02  0.95466043417E+02  0.12969598211E+02  0.21132537828E+03  0.17170895355E+03 0.  0.
         24    2    5    5    0    0  0.11904029447E+03  0.68610790366E+02 -0.14093248090E+01  0.15900460270E+03  0.80015281172E+02 0.  0.
          5    1    5    5  501    0 -0.42277837148E+02  0.26855253051E+02  0.14378923020E+02  0.52320775582E+02  0.47000000000E+01 0. -1.
        -11    1    6    6    0    0  0.16060966631E+02 -0.14148888244E+02  0.14622423511E+02  0.25922209725E+02  0.00000000000E+00 0.  1.
         12    1    6    6    0    0  0.10297932783E+03  0.82759678610E+02 -0.16031748320E+02  0.13308239297E+03  0.00000000000E+00 0. -1.
         -5    1    3    3    0  503  0.14491824696E+02 -0.88365254626E+02 -0.22487477821E+01  0.89697146413E+02  0.47000000000E+01 0.  1.
         13    1    4    4    0    0 -0.40937415967E+02 -0.40924302289E+02 -0.16025145373E+02  0.60062266258E+02  0.00000000000E+00 0. -1.
        -14    1    4    4    0    0 -0.50316866047E+02  0.33823513497E+02  0.98996241396E+01  0.61431422189E+02  0.00000000000E+00 0.  1.
</event>
<event>
12    1  0.8358445E-002  0.3017726E+03  0.7818608E-02  0.1084469E+00
         21   -1    0    0  501  502  0.00000000000E+00  0.00000000000E+00  0.56185994603E+03  0.56185994603E+03  0.00000000000E+00 0.  1.
         21   -1    0    0  502  503 -0.00000000000E+00 -0.00000000000E+00 -0.28868628455E+03  0.28868628455E+03  0.00000000000E+00 0. -1.
         -6    2    1    2    0  503 -0.20768264210E+03 -0.13431253448E+03 -0.14569065263E+03  0.33429628856E+03  0.17133681896E+03 0.  0.
        -24    2    3    3    0    0 -0.46772399440E+02 -0.29222236637E+02 -0.92990384252E+02  0.13495867249E+03  0.80777690313E+02 0.  0.
          6    2    1    2  501    0  0.20768264210E+03  0.13431253448E+03  0.41886431412E+03  0.51624994202E+03  0.17290098971E+03 0.  0.
         24    2    5    5    0    0  0.15232555624E+03  0.27385732977E+02  0.19945947910E+03  0.26593350335E+03  0.83567283963E+02 0.  0.
          5    1    5    5  501    0  0.55357085863E+02  0.10692680151E+03  0.21940483502E+03  0.25031643866E+03  0.47000000000E+01 0. -1.
        -11    1    6    6    0    0  0.13255984573E+03  0.50995771661E+02  0.18085035149E+03  0.22995549801E+03  0.00000000000E+00 0.  1.
         12    1    6    6    0    0  0.19765710509E+02 -0.23610038684E+02  0.18609127605E+02  0.35978005348E+02  0.00000000000E+00 0. -1.
         -5    1    3    3    0  503 -0.16091024266E+03 -0.10509029785E+03 -0.52700268383E+02  0.19933761608E+03  0.47000000000E+01 0.  1.
         13    1    4    4    0    0 -0.54962317601E+02 -0.32801814123E+02 -0.10317001571E+03  0.12141197432E+03  0.00000000000E+00 0. -1.
        -14    1    4    4    0    0  0.81899181606E+01  0.35795774863E+01  0.10179631463E+02  0.13546698165E+02  0.00000000000E+00 0.  1.
</event>
<event>
12    1  0.8358445E-002  0.1937963E+03  0.7818608E-02  0.1155260E+00
         21   -1    0    0  501  502  0.00000000000E+00  0.00000000000E+00  0.93151941710E+02  0.93151941710E+02  0.00000000000E+00 0.  1.
         21   -1    0    0  502  503 -0.00000000000E+00 -0.00000000000E+00 -0.40327772479E+03  0.40327772479E+03  0.00000000000E+00 0.  1.
         -6    2    1    2    0  503  0.33069390748E+02 -0.80950365004E+02 -0.17192140476E+03  0.25906364549E+03  0.17294639863E+03 0.  0.
        -24    2    3    3    0    0  0.88804397232E+02 -0.63223977330E+02 -0.11463358934E+03  0.17705998969E+03  0.79535450385E+02 0.  0.
          6    2    1    2  501    0 -0.33069390748E+02  0.80950365004E+02 -0.13820437832E+03  0.23736602101E+03  0.17203380931E+03 0.  0.
         24    2    5    5    0    0 -0.40327062480E+02  0.71868459461E+02 -0.15419333889E+02  0.11394231201E+03  0.77160528614E+02 0.  0.
          5    1    5    5  501    0  0.72576717324E+01  0.90819055423E+01 -0.12278504443E+03  0.12342370900E+03  0.47000000000E+01 0. -1.
        -13    1    6    6    0    0 -0.59438205855E+01  0.35154346119E+02  0.29675423583E+02  0.46387367020E+02  0.00000000000E+00 0.  1.
         14    1    6    6    0    0 -0.34383241895E+02  0.36714113343E+02 -0.45094757473E+02  0.67554944995E+02  0.00000000000E+00 0. -1.
         -5    1    3    3    0  503 -0.55735006484E+02 -0.17726387673E+02 -0.57287815419E+02  0.82003655792E+02  0.47000000000E+01 0.  1.
         11    1    4    4    0    0 -0.65743532614E+01  0.84617780694E+01 -0.26917427450E+02  0.28971912423E+02  0.00000000000E+00 0. -1.
        -12    1    4    4    0    0  0.95378750494E+02 -0.71685755400E+02 -0.87716161890E+02  0.14808807727E+03  0.00000000000E+00 0.  1.
</event>
<event>
12    1  0.8358445E-002  0.2927971E+03  0.7818608E-02  0.1089120E+00
         21   -1    0    0  503  502  0.00000000000E+00  0.00000000000E+00  0.51415920695E+02  0.51415920695E+02  0.00000000000E+00 0. -1.
         21   -1    0    0  501  503 -0.00000000000E+00 -0.00000000000E+00 -0.26214215083E+04  0.26214215083E+04  0.00000000000E+00 0. -1.
          6    2    1    2  501    0  0.23472079681E+03  0.22114763341E+02 -0.20929523226E+04  0.21130964693E+04  0.17071715893E+03 0.  0.
         24    2    3    3    0    0  0.75227338089E+02  0.62985867009E+02 -0.99670289515E+03  0.10045417761E+04  0.77853367715E+02 0.  0.
         -6    2    1    2    0  502 -0.23472079681E+03 -0.22114763341E+02 -0.47705326498E+03  0.55974095975E+03  0.17362951702E+03 0.  0.
        -24    2    5    5    0    0 -0.20446374945E+03 -0.72637986205E+02 -0.33936058600E+03  0.40990955847E+03  0.76016688422E+02 0.  0.
          5    1    3    3  501    0  0.15949345872E+03 -0.40871103668E+02 -0.10962494275E+04  0.11085546932E+04  0.47000000000E+01 0. -1.
        -13    1    4    4    0    0  0.34783559077E+02  0.28424401731E+02 -0.78403648380E+03  0.78532225902E+03  0.00000000000E+00 0.  1.
         14    1    4    4    0    0  0.40443779012E+02  0.34561465278E+02 -0.21266641135E+03  0.21921951706E+03  0.00000000000E+00 0. -1.
         -5    1    5    5    0  502 -0.30257047361E+02  0.50523222864E+02 -0.13769267899E+03  0.14983140128E+03  0.47000000000E+01 0.  1.
         13    1    6    6    0    0 -0.10505692000E+03 -0.77113067441E+02 -0.19795837342E+03  0.23700400675E+03  0.00000000000E+00 0. -1.
        -14    1    6    6    0    0 -0.99406829444E+02  0.44750812365E+01 -0.14140221258E+03  0.17290555172E+03  0.00000000000E+00 0.  1.
</event>
<event>
12    1  0.8358445E-002  0.1989255E+03  0.7818608E-02  0.1153756E+00
         21   -1    0    0  503  502  0.00000000000E+00  0.00000000000E+00  0.45547198802E+03  0.45547198802E+03  0.00000000000E+00 0.  1.
         21   -1    0    0  501  503 -0.00000000000E+00 -0.00000000000E+00 -0.15829467728E+03  0.15829467728E+03  0.00000000000E+00 0.  1.
          6    2    1    2  501    0 -0.63918216839E+02  0.12099826968E+02 -0.63215248469E+02  0.20872837198E+03  0.18798782241E+03 0.  0.
         24    2    3    3    0    0 -0.10755045296E+03  0.47560421080E+02 -0.44650278973E+02  0.14933162244E+03  0.80481006834E+02 0.  0.
         -6    2    1    2    0  502  0.63918216839E+02 -0.12099826968E+02  0.36039255921E+03  0.40503829332E+03  0.17303548210E+03 0.  0.
        -24    2    5    5    0    0  0.19960709283E+02  0.58514151210E+02  0.21335376134E+03  0.23603801384E+03  0.79823434483E+02 0.  0.
          5    1    3    3  501    0  0.43632236124E+02 -0.35460594111E+02 -0.18564969496E+02  0.59396749543E+02  0.47000000000E+01 0. -1.
        -13    1    4    4    0    0 -0.87147790595E+02  0.68106575407E+01 -0.54085867141E+02  0.10279301283E+03  0.00000000000E+00 0.  1.
         14    1    4    4    0    0 -0.20402662368E+02  0.40749763539E+02  0.94355881682E+01  0.46538609608E+02  0.00000000000E+00 0. -1.
         -5    1    5    5    0  502  0.43957507556E+02 -0.70613978179E+02  0.14703879787E+03  0.16900027948E+03  0.47000000000E+01 0.  1.
         13    1    6    6    0    0  0.15858525995E+02  0.34295740930E+02  0.23273741943E+02  0.44377446487E+02  0.00000000000E+00 0. -1.
        -14    1    6    6    0    0  0.41021832885E+01  0.24218410280E+02  0.19008001940E+03  0.19166056735E+03  0.00000000000E+00 0.  1.
</event>
<event>
12    1  0.8358445E-002  0.2142095E+03  0.7818608E-02  0.1138359E+00
         21   -1    0    0  501  502  0.00000000000E+00  0.00000000000E+00  0.17586715385E+04  0.17586715385E+04  0.00000000000E+00 0. -1.
         21   -1    0    0  502  503 -0.00000000000E+00 -0.00000000000E+00 -0.42378822638E+02  0.42378822638E+02  0.00000000000E+00 0. -1.
         -6    2    1    2    0  503  0.76351268765E+02 -0.10331718567E+03  0.29843243951E+03  0.36710005203E+03  0.17087003878E+03 0.  0.
        -24    2    3    3    0    0  0.55059694737E+02 -0.11007116562E+03  0.30883104410E+03  0.34201682363E+03  0.80322240771E+02 0.  0.
          6    2    1    2  501    0 -0.76351268765E+02  0.10331718567E+03  0.14178602764E+04  0.14339503091E+04  0.17141110999E+03 0.  0.
         24    2    5    5    0    0 -0.92404527084E+02  0.28002562890E+02  0.81124457471E+03  0.82244830667E+03  0.94766644909E+02 0.  0.
          5    1    5    5  501    0  0.16053258319E+02  0.75314622784E+02  0.60661570168E+03  0.61150200248E+03  0.47000000000E+01 0. -1.
        -13    1    6    6    0    0  0.17666190874E+02 -0.33966339656E+01  0.18120387073E+03  0.18209468468E+03  0.00000000000E+00 0.  1.
         14    1    6    6    0    0 -0.11007071796E+03  0.31399196856E+02  0.63004070399E+03  0.64035362199E+03  0.00000000000E+00 0. -1.
         -5    1    3    3    0  503  0.21291574028E+02  0.67539799449E+01 -0.10398604589E+02  0.25083228402E+02  0.47000000000E+01 0.  1.
         11    1    4    4    0    0  0.18025976651E+01 -0.72249458446E+02  0.10122737542E+03  0.12437931958E+03  0.00000000000E+00 0. -1.
        -12    1    4    4    0    0  0.53257097072E+02 -0.37821707174E+02  0.20760366868E+03  0.21763750405E+03  0.00000000000E+00 0.  1.
</event>
<event>
12    1  0.8358445E-002  0.1955958E+03  0.7818608E-02  0.1153806E+00
         21   -1    0    0  503  502  0.00000000000E+00  0.00000000000E+00  0.60687634352E+02  0.60687634352E+02  0.00000000000E+00 0. -1.
         21   -1    0    0  501  503 -0.00000000000E+00 -0.00000000000E+00 -0.62602233452E+03  0.62602233452E+03  0.00000000000E+00 0. -1.
          6    2    1    2  501    0 -0.32802420539E+02 -0.83813239143E+02 -0.28188029928E+03  0.34232050576E+03  0.17212253685E+03 0.  0.
         24    2    3    3    0    0 -0.14596230409E+02 -0.10913568075E+03 -0.28015047544E+03  0.31073294969E+03  0.77116991511E+02 0.  0.
         -6    2    1    2    0  502  0.32802420539E+02  0.83813239143E+02 -0.28345440088E+03  0.34438946311E+03  0.17365784483E+03 0.  0.
        -24    2    5    5    0    0  0.58284423707E+02  0.79071161153E+02 -0.10496546284E+03  0.16396715076E+03  0.78855282426E+02 0.  0.
          5    1    3    3  501    0 -0.18206190130E+02  0.25322441603E+02 -0.17298238374E+01  0.31587556067E+02  0.47000000000E+01 0. -1.
        -13    1    4    4    0    0  0.17904448635E+02 -0.91030588108E+02 -0.15996943605E+03  0.18492527605E+03  0.00000000000E+00 0.  1.
         14    1    4    4    0    0 -0.32500679044E+02 -0.18105092638E+02 -0.12018103939E+03  0.12580767364E+03  0.00000000000E+00 0. -1.
         -5    1    5    5    0  502 -0.25482003168E+02  0.47420779901E+01 -0.17848893804E+03  0.18042231234E+03  0.47000000000E+01 0.  1.
         11    1    6    6    0    0  0.44120597889E+02  0.57142688985E+02 -0.11517982730E+03  0.13593493546E+03  0.00000000000E+00 0. -1.
        -12    1    6    6    0    0  0.14163825819E+02  0.21928472169E+02  0.10214364455E+02  0.28032215301E+02  0.00000000000E+00 0.  1.
</event>
<event>
12    1  0.8358445E-002  0.1924634E+03  0.7818608E-02  0.1156781E+00
         21   -1    0    0  503  502  0.00000000000E+00  0.00000000000E+00  0.14491823916E+04  0.14491823916E+04  0.00000000000E+00 0.  1.
         21   -1    0    0  501  503 -0.00000000000E+00 -0.00000000000E+00 -0.52698836284E+02  0.52698836284E+02  0.00000000000E+00 0. -1.
          6    2    1    2  501    0 -0.81334327224E+02  0.18920706207E+01  0.15424496052E+03  0.24482160612E+03  0.17183497391E+03 0.  0.
         24    2    3    3    0    0 -0.43656368123E+01 -0.59594276558E+02  0.93666529937E+02  0.12907798234E+03  0.65705175683E+02 0.  0.
         -6    2    1    2    0  502  0.81334327224E+02 -0.18920706207E+01  0.12422385948E+04  0.12570596218E+04  0.17442280113E+03 0.  0.
        -24    2    5    5    0    0  0.11342556394E+02  0.56491540929E+02  0.75273513209E+03  0.75912064550E+03  0.79586604155E+02 0.  0.
          5    1    3    3  501    0 -0.76968690412E+02  0.61486347179E+02  0.60578430581E+02  0.11574362378E+03  0.47000000000E+01 0. -1.
        -11    1    4    4    0    0  0.26949275146E+02 -0.43465640435E+02  0.69795300535E+02  0.86526928214E+02  0.00000000000E+00 0.  1.
         12    1    4    4    0    0 -0.31314911958E+02 -0.16128636123E+02  0.23871229402E+02  0.42551054127E+02  0.00000000000E+00 0. -1.
         -5    1    5    5    0  502  0.69991770830E+02 -0.58383611550E+02  0.48950346271E+03  0.49793897627E+03  0.47000000000E+01 0.  1.
         13    1    6    6    0    0 -0.42078604186E+01  0.17165009727E+02  0.27729212335E+02  0.32882409659E+02  0.00000000000E+00 0. -1.
        -14    1    6    6    0    0  0.15550416813E+02  0.39326531202E+02  0.72500591975E+03  0.72623823584E+03  0.00000000000E+00 0.  1.
</event>
<event>
12    1  0.8358445E-002  0.1966245E+03  0.7818608E-02  0.1152704E+00
         21   -1    0    0  501  502  0.00000000000E+00  0.00000000000E+00  0.27674322461E+03  0.27674322461E+03  0.00000000000E+00 0.  1.
         21   -1    0    0  502  503 -0.00000000000E+00 -0.00000000000E+00 -0.15652107473E+03  0.15652107473E+03  0.00000000000E+00 0.  1.
         -6    2    1    2    0  503 -0.19017788190E+02  0.93014263016E+02 -0.11546083308E+02  0.19657027955E+03  0.17173594083E+03 0.  0.
        -24    2    3    3    0    0 -0.19825343305E+02  0.19562766752E+02  0.51445169719E+02  0.99690135010E+02  0.80720328609E+02 0.  0.
          6    2    1    2  501    0  0.19017788190E+02 -0.93014263016E+02  0.13176823319E+03  0.23669401979E+03  0.17218554623E+03 0.  0.
         24    2    5    5    0    0  0.64678308928E+02 -0.21161559316E+02  0.81156168285E+02  0.13754077830E+03  0.87749910572E+02 0.  0.
          5    1    5    5  501    0 -0.45660520738E+02 -0.71852703700E+02  0.50612064910E+02  0.99153241488E+02  0.47000000000E+01 0. -1.
        -11    1    6    6    0    0 -0.17701056690E+02 -0.22476038252E+02  0.22672913778E+02  0.36504256226E+02  0.00000000000E+00 0.  1.
         12    1    6    6    0    0  0.82379365618E+02  0.13144789357E+01  0.58483254507E+02  0.10103652207E+03  0.00000000000E+00 0. -1.
         -5    1    3    3    0  503  0.80755511534E+00  0.73451496264E+02 -0.62991253027E+02  0.96880144543E+02  0.47000000000E+01 0.  1.
         11    1    4    4    0    0 -0.27029220235E+02 -0.26561345837E+02  0.16281884708E+02  0.41245407124E+02  0.00000000000E+00 0. -1.
        -12    1    4    4    0    0  0.72038769294E+01  0.46124112589E+02  0.35163285011E+02  0.58444727886E+02  0.00000000000E+00 0.  1.
</event>
<event>
12    1  0.8358445E-002  0.2028836E+03  0.7818608E-02  0.1147355E+00
         21   -1    0    0  501  502  0.00000000000E+00  0.00000000000E+00  0.12520822366E+04  0.12520822366E+04  0.00000000000E+00 0.  1.
         21   -1    0    0  502  503 -0.00000000000E+00 -0.00000000000E+00 -0.38115570085E+02  0.38115570085E+02  0.00000000000E+00 0. -1.
         -6    2    1    2    0  503 -0.10647801924E+03 -0.14302024375E+02  0.36713430006E+03  0.41940114412E+03  0.17195234492E+03 0.  0.
        -24    2    3    3    0    0 -0.41003095392E+02 -0.66793451497E+02  0.25460371747E+03  0.27894639129E+03  0.82737036866E+02 0.  0.
          6    2    1    2  501    0  0.10647801924E+03  0.14302024375E+02  0.84683236646E+03  0.87079666258E+03  0.17210361467E+03 0.  0.
         24    2    5    5    0    0  0.30023079374E+02  0.21374793293E+02  0.69413043945E+03  0.69981318267E+03  0.81013311101E+02 0.  0.
          5    1    5    5  501    0  0.76454939862E+02 -0.70727689188E+01  0.15270192701E+03  0.17098347991E+03  0.47000000000E+01 0. -1.
        -13    1    6    6    0    0 -0.26555746050E+02  0.18412563754E+02  0.24322252722E+03  0.24535979275E+03  0.00000000000E+00 0.  1.
         14    1    6    6    0    0  0.56578825424E+02  0.29622295398E+01  0.45090791223E+03  0.45445338991E+03  0.00000000000E+00 0. -1.
         -5    1    3    3    0  503 -0.65474923844E+02  0.52491427122E+02  0.11253058259E+03  0.14045475283E+03  0.47000000000E+01 0.  1.
         11    1    4    4    0    0 -0.66536048290E+02 -0.44342054970E+02  0.17719760136E+03  0.19440229805E+03  0.00000000000E+00 0. -1.
        -12    1    4    4    0    0  0.25532952898E+02 -0.22451396527E+02  0.77406116106E+02  0.84544093231E+02  0.00000000000E+00 0.  1.
</event>
<event>
12    1  0.8358445E-002  0.1846585E+03  0.7818608E-02  0.1163524E+00
         21   -1    0    0  503  502  0.00000000000E+00  0.00000000000E+00  0.25505855318E+03  0.25505855318E+03  0.00000000000E+00 0.  1.
         21   -1    0    0  501  503 -0.00000000000E+00 -0.00000000000E+00 -0.14543341783E+03  0.14543341783E+03  0.00000000000E+00 0.  1.
          6    2    1    2  501    0 -0.23292026541E+02  0.64967042825E+02 -0.31424392276E+01  0.18468527493E+03  0.17127621171E+03 0.  0.
         24    2    3    3    0    0  0.80624830582E+01  0.33027707445E+02  0.61149879807E+02  0.10620713336E+03  0.79905032914E+02 0.  0.
         -6    2    1    2    0  502  0.23292026541E+02 -0.64967042825E+02  0.11276757457E+03  0.21580669608E+03  0.17056602547E+03 0.  0.
        -24    2    5    5    0    0  0.16818616782E+02 -0.10779689176E+03  0.10519111337E+03  0.17158233901E+03  0.80450562358E+02 0.  0.
          5    1    3    3  501    0 -0.31354509599E+02  0.31939335380E+02 -0.64292319034E+02  0.78478141565E+02  0.47000000000E+01 0. -1.
        -13    1    4    4    0    0 -0.33382355136E+02  0.28186199071E+02  0.21693554318E+02  0.48779644847E+02  0.00000000000E+00 0.  1.
         14    1    4    4    0    0  0.41444838194E+02  0.48415083737E+01  0.39456325489E+02  0.57427488517E+02  0.00000000000E+00 0. -1.
         -5    1    5    5    0  502  0.64734097583E+01  0.42829848938E+02  0.75764611984E+01  0.44224357069E+02  0.47000000000E+01 0.  1.
         13    1    6    6    0    0 -0.94442579190E+01  0.49796059469E+01  0.34040189973E+02  0.35675271778E+02  0.00000000000E+00 0. -1.
        -14    1    6    6    0    0  0.26262874701E+02 -0.11277649771E+03  0.71150923399E+02  0.13590706723E+03  0.00000000000E+00 0.  1.
</event>
<event>
12    1  0.8358445E-002  0.2355866E+03  0.7818608E-02  0.1122935E+00
         21   -1    0    0  503  502  0.00000000000E+00  0.00000000000E+00  0.80010067798E+03  0.80010067798E+03  0.00000000000E+00 0.  1.
         21   -1    0    0  501  503 -0.00000000000E+00 -0.00000000000E+00 -0.12824897720E+03  0.12824897720E+03  0.00000000000E+00 0.  1.
          6    2    1    2  501    0  0.22587652665E+02  0.15893419697E+03  0.20265943492E+02  0.23548239094E+03  0.17108760023E+03 0.  0.
         24    2    3    3    0    0 -0.10400690681E+02  0.16602660886E+03 -0.16432089078E+02  0.18540875818E+03  0.80208383865E+02 0.  0.
         -6    2    1    2    0  502 -0.22587652665E+02 -0.15893419697E+03  0.65158575729E+03  0.69286726424E+03  0.17242611676E+03 0.  0.
        -24    2    5    5    0    0 -0.68142517466E+02 -0.14712371014E+03  0.57693851737E+03  0.60449852693E+03  0.79193607513E+02 0.  0.
          5    1    3    3  501    0  0.32988343345E+02 -0.70924118830E+01  0.36698032570E+02  0.50073632757E+02  0.47000000000E+01 0. -1.
        -13    1    4    4    0    0 -0.24127776877E+02  0.12321742804E+03  0.20509617427E+02  0.12722157284E+03  0.00000000000E+00 0.  1.
         14    1    4    4    0    0  0.13727086197E+02  0.42809180822E+02 -0.36941706505E+02  0.58187185338E+02  0.00000000000E+00 0. -1.
         -5    1    5    5    0  502  0.45554864801E+02 -0.11810486839E+02  0.74647239919E+02  0.88368737311E+02  0.47000000000E+01 0.  1.
         13    1    6    6    0    0 -0.11179635210E+02 -0.11744963393E+02  0.10476504051E+02  0.19305065285E+02  0.00000000000E+00 0. -1.
        -14    1    6    6    0    0 -0.56962882256E+02 -0.13537874674E+03  0.56646201332E+03  0.58519346165E+03  0.00000000000E+00 0.  1.
</event>
<event>
12    1  0.8358445E-002  0.2540848E+03  0.7818608E-02  0.1110920E+00
         21   -1    0    0  503  502  0.00000000000E+00  0.00000000000E+00  0.12478772772E+03  0.12478772772E+03  0.00000000000E+00 0. -1.
         21   -1    0    0  501  503 -0.00000000000E+00 -0.00000000000E+00 -0.17925608636E+04  0.17925608636E+04  0.00000000000E+00 0.  1.
          6    2    1    2  501    0 -0.97128392055E+02  0.15912247619E+03 -0.16426584196E+04  0.16620255438E+04  0.17102145404E+03 0.  0.
         24    2    3    3    0    0 -0.11904941148E+02  0.23993315149E+02 -0.38120531111E+03  0.39048751381E+03  0.80284509277E+02 0.  0.
         -6    2    1    2    0  502  0.97128392055E+02 -0.15912247619E+03 -0.25114716244E+02  0.25532304749E+03  0.17264189132E+03 0.  0.
        -24    2    5    5    0    0  0.11325103717E+03 -0.15288900329E+03 -0.61117776857E+02  0.21510978794E+03  0.79598953970E+02 0.  0.
          5    1    3    3  501    0 -0.85223450906E+02  0.13512916104E+03 -0.12614531085E+04  0.12715380300E+04  0.47000000000E+01 0. -1.
        -13    1    4    4    0    0 -0.19664423204E+02 -0.26611298923E+02 -0.13266536894E+03  0.13672948068E+03  0.00000000000E+00 0.  1.
         14    1    4    4    0    0  0.77594820550E+01  0.50604614072E+02 -0.24853994217E+03  0.25375803314E+03  0.00000000000E+00 0. -1.
         -5    1    5    5    0  502 -0.16122645119E+02 -0.62334728975E+01  0.36003060613E+02  0.40213259548E+02  0.47000000000E+01 0.  1.
         11    1    6    6    0    0  0.22650831569E+02 -0.92854075323E+02 -0.43480226037E+02  0.10500223584E+03  0.00000000000E+00 0. -1.
        -12    1    6    6    0    0  0.90600205605E+02 -0.60034927967E+02 -0.17637550819E+02  0.11010755210E+03  0.00000000000E+00 0.  1.
</event>
<event>
12    1  0.8358445E-002  0.1979777E+03  0.7818608E-02  0.1151871E+00
         21   -1    0    0  501  502  0.00000000000E+00  0.00000000000E+00  0.29386410848E+03  0.29386410848E+03  0.00000000000E+00 0. -1.
         21   -1    0    0  502  503 -0.00000000000E+00 -0.00000000000E+00 -0.15262111688E+03  0.15262111688E+03  0.00000000000E+00 0.  1.
         -6    2    1    2    0  503 -0.79452750101E+02 -0.58903910360E+02 -0.11570264189E+02  0.19639111944E+03  0.16927253359E+03 0.  0.
        -24    2    3    3    0    0 -0.48386153045E+02 -0.52330038295E+02  0.55880941401E+02  0.12169102318E+03  0.81279596432E+02 0.  0.
          6    2    1    2  501    0  0.79452750101E+02  0.58903910360E+02  0.15281325579E+03  0.25009410592E+03  0.17150148838E+03 0.  0.
         24    2    5    5    0    0  0.45124276771E+02  0.73870829136E+02  0.28904130685E+02  0.12056413247E+03  0.78785541283E+02 0.  0.
          5    1    5    5  501    0  0.34328473330E+02 -0.14966918777E+02  0.12390912511E+03  0.12952997346E+03  0.47000000000E+01 0. -1.
        -13    1    6    6    0    0  0.46700502234E+02  0.83349350099E+02  0.41963862341E+02  0.10435045191E+03  0.00000000000E+00 0.  1.
         14    1    6    6    0    0 -0.15762254627E+01 -0.94785209623E+01 -0.13059731655E+02  0.16213680558E+02  0.00000000000E+00 0. -1.
         -5    1    3    3    0  503 -0.31066597056E+02 -0.65738720650E+01 -0.67451205590E+02  0.74700096266E+02  0.47000000000E+01 0.  1.
         11    1    4    4    0    0 -0.80701719379E+01  0.21970768600E+02  0.94189062740E+01  0.25230103912E+02  0.00000000000E+00 0. -1.
        -12    1    4    4    0    0 -0.40315981107E+02 -0.74300806895E+02  0.46462035126E+02  0.96460919268E+02  0.00000000000E+00 0.  1.
</event>
<event>
12    1  0.8358445E-002  0.2676932E+03  0.7818608E-02  0.1102747E+00
         21   -1    0    0  501  502  0.00000000000E+00  0.00000000000E+00  0.22978834665E+03  0.22978834665E+03  0.00000000000E+00 0.  1.
         21   -1    0    0  502  503 -0.00000000000E+00 -0.00000000000E+00 -0.33652094757E+03  0.33652094757E+03  0.00000000000E+00 0. -1.
         -6    2    1    2    0  503  0.17301213125E+03 -0.10994207569E+03 -0.13184572387E+03  0.29840060336E+03  0.17216029628E+03 0.  0.
        -24    2    3    3    0    0  0.18435821401E+03 -0.53930893531E+02 -0.85009640415E+02  0.22436213475E+03  0.78836769310E+02 0.  0.
          6    2    1    2  501    0 -0.17301213125E+03  0.10994207569E+03  0.25113122946E+02  0.26790869085E+03  0.17065737640E+03 0.  0.
         24    2    5    5    0    0 -0.17720782967E+03  0.11254126289E+03 -0.16989648604E+02  0.22525786399E+03  0.79901854666E+02 0.  0.
          5    1    5    5  501    0  0.41956984210E+01 -0.25991872003E+01  0.42102771550E+02  0.42650826857E+02  0.47000000000E+01 0. -1.
        -13    1    6    6    0    0 -0.10569914409E+03  0.41460145387E+02 -0.42534862367E+02  0.12124548335E+03  0.00000000000E+00 0.  1.
         14    1    6    6    0    0 -0.71508685584E+02  0.71081117507E+02  0.25545213764E+02  0.10401238064E+03  0.00000000000E+00 0. -1.
         -5    1    3    3    0  503 -0.11346082759E+02 -0.56011182163E+02 -0.46836083451E+02  0.74038468611E+02  0.47000000000E+01 0.  1.
         13    1    4    4    0    0  0.11548552117E+03 -0.21795475328E+00 -0.71909172739E+02  0.13604367765E+03  0.00000000000E+00 0. -1.
        -14    1    4    4    0    0  0.68872692846E+02 -0.53712938777E+02 -0.13100467676E+02  0.88318457104E+02  0.00000000000E+00 0.  1.
</event>
<event>
12    1  0.8358445E-002  0.2867203E+03  0.7818608E-02  0.1092186E+00
         21   -1    0    0  503  502  0.00000000000E+00  0.00000000000E+00  0.65880253857E+02  0.65880253857E+02  0.00000000000E+00 0.  1.
         21   -1    0    0  501  503 -0.00000000000E+00 -0.00000000000E+00 -0.16314093362E+04  0.16314093362E+04  0.00000000000E+00 0. -1.
          6    2    1    2  501    0  0.20920413832E+03  0.89788938980E+02 -0.11971059289E+04  0.12309634913E+04  0.17429884399E+03 0.  0.
         24    2    3    3    0    0  0.94919952239E+02 -0.20274836486E+02 -0.56281836468E+03  0.57711510376E+03  0.82924453774E+02 0.  0.
         -6    2    1    2    0  502 -0.20920413832E+03 -0.89788938980E+02 -0.36842315345E+03  0.46632609870E+03  0.17290455539E+03 0.  0.
        -24    2    5    5    0    0 -0.21831154810E+03 -0.66344510399E+02 -0.26079759878E+03  0.35570089288E+03  0.80288302830E+02 0.  0.
          5    1    3    3  501    0  0.11428418608E+03  0.11006377547E+03 -0.63428756419E+03  0.65384838758E+03  0.47000000000E+01 0. -1.
        -11    1    4    4    0    0 -0.51562211986E+01 -0.12721789072E+02 -0.20584281741E+03  0.20630001458E+03  0.00000000000E+00 0.  1.
         12    1    4    4    0    0  0.10007617344E+03 -0.75530474139E+01 -0.35697554727E+03  0.37081508918E+03  0.00000000000E+00 0. -1.
         -5    1    5    5    0  502  0.91074097814E+01 -0.23444428581E+02 -0.10762555467E+03  0.11062520582E+03  0.47000000000E+01 0.  1.
         13    1    6    6    0    0 -0.12620947783E+03 -0.56632129097E+02 -0.20585590645E+03  0.24801750858E+03  0.00000000000E+00 0. -1.
        -14    1    6    6    0    0 -0.92102070272E+02 -0.97123813014E+01 -0.54941692332E+02  0.10768338430E+03  0.00000000000E+00 0.  1.
</event>
<event>
12    1  0.8358445E-002  0.2652197E+03  0.7818608E-02  0.1104254E+00
         21   -1    0    0  503  502  0.00000000000E+00  0.00000000000E+00  0.10316305465E+04  0.10316305465E+04  0.00000000000E+00 0. -1.
         21   -1    0    0  501  503 -0.00000000000E+00 -0.00000000000E+00 -0.16831639022E+03  0.16831639022E+03  0.00000000000E+00 0.  1.
          6    2    1    2  501    0  0.14710135866E+03  0.13724198218E+03 -0.32400600983E+02  0.26579149423E+03  0.17064919592E+03 0.  0.
         24    2    3    3    0    0  0.33998822055E+02  0.31095918071E+02 -0.78814727964E+02  0.10381763246E+03  0.49431401399E+02 0.  0.
         -6    2    1    2    0  502 -0.14710135866E+03 -0.13724198218E+03  0.89571475727E+03  0.93415544249E+03  0.17282156391E+03 0.  0.
        -24    2    5    5    0    0 -0.76243936409E+02 -0.28963262278E+02  0.60835077169E+03  0.61896469758E+03  0.79841261443E+02 0.  0.
          5    1    3    3  501    0  0.11310253661E+03  0.10614606411E+03  0.46414126980E+02  0.16197386177E+03  0.47000000000E+01 0. -1.
        -13    1    4    4    0    0  0.38212142760E+02  0.66208863731E+01 -0.29936183052E+02  0.48991622206E+02  0.00000000000E+00 0.  1.
         14    1    4    4    0    0 -0.42133207044E+01  0.24475031698E+02 -0.48878544911E+02  0.54826010256E+02  0.00000000000E+00 0. -1.
         -5    1    5    5    0  502 -0.70857422251E+02 -0.10827871990E+03  0.28736398558E+03  0.31519074491E+03  0.47000000000E+01 0.  1.
         11    1    6    6    0    0 -0.54446910906E+02 -0.34974442258E+02  0.57525021635E+03  0.57887864802E+03  0.00000000000E+00 0. -1.
        -12    1    6    6    0    0 -0.21797025503E+02  0.60111799802E+01  0.33100555343E+02  0.40086049563E+02  0.00000000000E+00 0.  1.
</event>
<event>
12    1  0.8358445E-002  0.1912019E+03  0.7818608E-02  0.1157476E+00
         21   -1    0    0  501  502  0.00000000000E+00  0.00000000000E+00  0.34950699250E+02  0.34950699250E+02  0.00000000000E+00 0.  1.
         21   -1    0    0  502  503 -0.00000000000E+00 -0.00000000000E+00 -0.10465478518E+04  0.10465478518E+04  0.00000000000E+00 0. -1.
         -6    2    1    2    0  503 -0.43739756612E+02  0.69858890086E+02 -0.53353269556E+03  0.56661624343E+03  0.17205638394E+03 0.  0.
        -24    2    3    3    0    0 -0.95988895051E+02  0.47379559083E+02 -0.37131532005E+03  0.39465153860E+03  0.80100433351E+02 0.  0.
          6    2    1    2  501    0  0.43739756612E+02 -0.69858890086E+02 -0.47806445699E+03  0.51488230762E+03  0.17252459196E+03 0.  0.
         24    2    5    5    0    0  0.94499783974E+02 -0.35850908486E+02 -0.30484520073E+03  0.33114302513E+03  0.80682153381E+02 0.  0.
          5    1    5    5  501    0 -0.50760027363E+02 -0.34007981599E+02 -0.17321925625E+03  0.18373928248E+03  0.47000000000E+01 0. -1.
        -13    1    6    6    0    0  0.22577929817E+02  0.24720424784E+02 -0.57626382270E+02  0.66645796941E+02  0.00000000000E+00 0.  1.
         14    1    6    6    0    0  0.71921854157E+02 -0.60571333270E+02 -0.24721881846E+03  0.26449722819E+03  0.00000000000E+00 0. -1.
         -5    1    3    3    0  503  0.52249138439E+02  0.22479331002E+02 -0.16221737551E+03  0.17196470483E+03  0.47000000000E+01 0.  1.
         13    1    4    4    0    0 -0.33036066538E+02  0.57299840083E+02 -0.14205125051E+03  0.15669464297E+03  0.00000000000E+00 0. -1.
        -14    1    4    4    0    0 -0.62952828512E+02 -0.99202809991E+01 -0.22926406954E+03  0.23795689563E+03  0.00000000000E+00 0.  1.
</event>
<event>
12    1  0.8358445E-002  0.1802571E+03  0.7818608E-02  0.1170703E+00
         21   -1    0    0  501  502  0.00000000000E+00  0.00000000000E+00  0.78668574907E+02  0.78668574907E+02  0.00000000000E+00 0.  1.
         21   -1    0    0  502  503 -0.00000000000E+00 -0.00000000000E+00 -0.46409620157E+03  0.46409620157E+03  0.00000000000E+00 0.  1.
         -6    2    1    2    0  503  0.53445356530E+02 -0.60832719892E+01 -0.29907569086E+03  0.34289162694E+03  0.15885523796E+03 0.  0.
        -24    2    3    3    0    0 -0.16027616749E+02 -0.27071554694E+02 -0.22257684358E+03  0.23733990662E+03  0.76157904401E+02 0.  0.
          6    2    1    2  501    0 -0.53445356530E+02  0.60832719892E+01 -0.86351935803E+02  0.19987314954E+03  0.17204420001E+03 0.  0.
         24    2    5    5    0    0  0.24105510554E+01 -0.44312427429E+02 -0.89508033829E+01  0.91833183639E+02  0.79898778182E+02 0.  0.
          5    1    5    5  501    0 -0.55855907586E+02  0.50395699419E+02 -0.77401132420E+02  0.10803996590E+03  0.47000000000E+01 0. -1.
        -13    1    6    6    0    0 -0.49031080642E+01  0.38355184494E+01  0.29270620833E+02  0.29925255462E+02  0.00000000000E+00 0.  1.
         14    1    6    6    0    0  0.73136591196E+01 -0.48147945879E+02 -0.38221424216E+02  0.61907928177E+02  0.00000000000E+00 0. -1.
         -5    1    3    3    0  503  0.69472973280E+02  0.20988282705E+02 -0.76498847280E+02  0.10555172032E+03  0.47000000000E+01 0.  1.
         13    1    4    4    0    0 -0.19518075415E+02  0.12760092147E+02 -0.19599185852E+02  0.30461505307E+02  0.00000000000E+00 0. -1.
        -14    1    4    4    0    0  0.34904586661E+01 -0.39831646841E+02 -0.20297765773E+03  0.20687840131E+03  0.00000000000E+00 0.  1.
</event>
<event>
12    1  0.8358445E-002  0.1742646E+03  0.7818608E-02  0.1173771E+00
         21   -1    0    0  503  502  0.00000000000E+00  0.00000000000E+00  0.68328597078E+03  0.68328597078E+03  0.00000000000E+00 0.  1.
         21   -1    0    0  501  503 -0.00000000000E+00 -0.00000000000E+00 -0.49322611456E+02  0.49322611456E+02  0.00000000000E+00 0.  1.
          6    2    1    2  501    0  0.21810610899E+02 -0.86832177718E+00  0.19732351221E+03  0.26247827397E+03  0.17170270559E+03 0.  0.
         24    2    3    3    0    0 -0.50585458501E+02 -0.15132342921E+02  0.94487224422E+02  0.13582107817E+03  0.82046653080E+02 0.  0.
         -6    2    1    2    0  502 -0.21810610899E+02  0.86832177718E+00  0.43663984712E+03  0.47013030826E+03  0.17289214536E+03 0.  0.
        -24    2    5    5    0    0 -0.80678952541E+02 -0.90997532592E+01  0.27252042464E+03  0.29542450126E+03  0.80102154811E+02 0.  0.
          5    1    3    3  501    0  0.72396069399E+02  0.14264021144E+02  0.10283628779E+03  0.12665719581E+03  0.47000000000E+01 0. -1.
        -11    1    4    4    0    0  0.63712348264E+01 -0.10319927261E+02 -0.10656458807E+02  0.16144771481E+02  0.00000000000E+00 0.  1.
         12    1    4    4    0    0 -0.56956693327E+02 -0.48124156602E+01  0.10514368323E+03  0.11967630669E+03  0.00000000000E+00 0. -1.
         -5    1    5    5    0  502  0.58868341642E+02  0.99680750364E+01  0.16411942248E+03  0.17470580701E+03  0.47000000000E+01 0.  1.
         13    1    6    6    0    0 -0.67917743879E+01  0.29347381117E+02  0.86909910820E+02  0.91982224242E+02  0.00000000000E+00 0. -1.
        -14    1    6    6    0    0 -0.73887178153E+02 -0.38447134376E+02  0.18561051382E+03  0.20344227702E+03  0.00000000000E+00 0.  1.
</event>
<event>
12    1  0.8358445E-002  0.1858339E+03  0.7818608E-02  0.1163052E+00
         21   -1    0    0  501  502  0.00000000000E+00  0.00000000000E+00  0.79493467074E+02  0.79493467074E+02  0.00000000000E+00 0. -1.
         21   -1    0    0  502  503 -0.00000000000E+00 -0.00000000000E+00 -0.87000928249E+03  0.87000928249E+03  0.00000000000E+00 0. -1.
         -6    2    1    2    0  503  0.28864741184E+02  0.64348165833E+02 -0.73589270421E+03  0.75899427291E+03  0.17193130745E+03 0.  0.
        -24    2    3    3    0    0  0.44220693620E+02  0.10846047041E+03 -0.60616118288E+03  0.62103029821E+03  0.67291219907E+02 0.  0.
          6    2    1    2  501    0 -0.28864741184E+02 -0.64348165833E+02 -0.54623111209E+02  0.19050847665E+03  0.16833281221E+03 0.  0.
         24    2    5    5    0    0  0.31174512087E+02 -0.82600921062E+02 -0.43959309815E+02  0.12668307679E+03  0.79507349738E+02 0.  0.
          5    1    5    5  501    0 -0.60039253271E+02  0.18252755229E+02 -0.10663801394E+02  0.63825399857E+02  0.47000000000E+01 0. -1.
        -11    1    6    6    0    0  0.37586454601E+01  0.12145537665E+01  0.18308428324E+02  0.18729685108E+02  0.00000000000E+00 0.  1.
         12    1    6    6    0    0  0.27415866627E+02 -0.83815474829E+02 -0.62267738138E+02  0.10795339169E+03  0.00000000000E+00 0. -1.
         -5    1    3    3    0  503 -0.15355952436E+02 -0.44112304580E+02 -0.12973152133E+03  0.13796397471E+03  0.47000000000E+01 0.  1.
         11    1    4    4    0    0 -0.15231865184E+02  0.38286880618E+02 -0.23892947308E+03  0.24245656941E+03  0.00000000000E+00 0. -1.
        -12    1    4    4    0    0  0.59452558804E+02  0.70173589795E+02 -0.36723170980E+03  0.37857372880E+03  0.00000000000E+00 0.  1.
</event>
<event>
12    1  0.8358445E-002  0.1808439E+03  0.7818608E-02  0.1167178E+00
         21   -1    0    0  503  502  0.00000000000E+00  0.00000000000E+00  0.12185486885E+04  0.12185486885E+04  0.00000000000E+00 0.  1.
         21   -1    0    0  501  503 -0.00000000000E+00 -0.00000000000E+00 -0.37180224258E+02  0.37180224258E+02  0.00000000000E+00 0.  1.
          6    2    1    2  501    0  0.30393004310E+01 -0.56212399149E+02  0.25862220108E+03  0.31557875611E+03  0.17185877124E+03 0.  0.
         24    2    3    3    0    0 -0.62021386472E+02 -0.46346457357E+02  0.12109725224E+03  0.16304865633E+03  0.76978395275E+02 0.  0.
         -6    2    1    2    0  502 -0.30393004310E+01  0.56212399149E+02  0.92274626319E+03  0.94015015668E+03  0.17103385543E+03 0.  0.
        -24    2    5    5    0    0 -0.71815447891E+02  0.46733527387E+02  0.65867897236E+03  0.66706842614E+03  0.61488335311E+02 0.  0.
          5    1    3    3  501    0  0.65060686903E+02 -0.98659417914E+01  0.13752494883E+03  0.15253009978E+03  0.47000000000E+01 0. -1.
        -11    1    4    4    0    0  0.10051875520E+02 -0.29152432876E+02  0.16816048633E+02  0.35123838567E+02  0.00000000000E+00 0.  1.
         12    1    4    4    0    0 -0.72073261992E+02 -0.17194024482E+02  0.10428120361E+03  0.12792481776E+03  0.00000000000E+00 0. -1.
         -5    1    5    5    0  502  0.68776147460E+02  0.94788717619E+01  0.26406729083E+03  0.27308173054E+03  0.47000000000E+01 0.  1.
         11    1    6    6    0    0 -0.67420442765E+02  0.37434184598E+02  0.35790298840E+03  0.36611662539E+03  0.00000000000E+00 0. -1.
        -12    1    6    6    0    0 -0.43950051253E+01  0.92993427890E+01  0.30077598396E+03  0.30095180075E+03  0.00000000000E+00 0.  1.
</event>
<event>
12    1  0.8358445E-002  0.3124099E+03  0.7818608E-02  0.1079238E+00
         21   -1    0    0  501  502  0.00000000000E+00  0.00000000000E+00  0.74526262722E+03  0.74526262722E+03  0.00000000000E+00 0.  1.
         21   -1    0    0  502  503 -0.00000000000E+00 -0.00000000000E+00 -0.23579989248E+03  0.23579989248E+03  0.00000000000E+00 0. -1.
         -6    2    1    2    0  503  0.22108121600E+03 -0.13823437730E+03 -0.72499294996E+02  0.32071184362E+03  0.17208803482E+03 0.  0.
        -24    2    3    3    0    0  0.99901173959E+02 -0.59893757351E+02 -0.10152676208E+03  0.17344834112E+03  0.78798076711E+02 0.  0.
          6    2    1    2  501    0 -0.22108121600E+03  0.13823437730E+03  0.58196202974E+03  0.66035067607E+03  0.17145717888E+03 0.  0.
         24    2    5    5    0    0 -0.66379334960E+02 -0.92833758815E+00  0.23585063973E+03  0.25647678795E+03  0.75813854764E+02 0.  0.
          5    1    5    5  501    0 -0.15470188104E+03  0.13916271489E+03  0.34611139001E+03  0.40387388813E+03  0.47000000000E+01 0. -1.
        -11    1    6    6    0    0 -0.37391630308E+01  0.26292918069E+02  0.11134310413E+03  0.11446652663E+03  0.00000000000E+00 0.  1.
         12    1    6    6    0    0 -0.62640171929E+02 -0.27221255657E+02  0.12450753559E+03  0.14201026131E+03  0.00000000000E+00 0. -1.
         -5    1    3    3    0  503  0.12118004204E+03 -0.78340619953E+02  0.29027467080E+02  0.14726350250E+03  0.47000000000E+01 0.  1.
         11    1    4    4    0    0  0.85140336781E+02 -0.77473823088E+02 -0.70979581680E+02  0.13523746236E+03  0.00000000000E+00 0. -1.
        -12    1    4    4    0    0  0.14760837178E+02  0.17580065738E+02 -0.30547180395E+02  0.38210878760E+02  0.00000000000E+00 0.  1.
</event>
<event>
12    1  0.8358445E-002  0.2299279E+03  0.7818608E-02  0.1128461E+00
         21   -1    0    0  503  502  0.00000000000E+00  0.00000000000E+00  0.74826258867E+03  0.74826258867E+03  0.00000000000E+00 0.  1.
         21   -1    0    0  501  503 -0.00000000000E+00 -0.00000000000E+00 -0.11239788144E+03  0.11239788144E+03  0.00000000000E+00 0.  1.
          6    2    1    2  501    0  0.10025650585E+03  0.11448014753E+03  0.50672582281E+02  0.23544539820E+03  0.17236517570E+03 0.  0.
         24    2    3    3    0    0  0.58202454522E+02  0.26239772611E+02 -0.31375652255E+02  0.10773905619E+03  0.80914901563E+02 0.  0.
         -6    2    1    2    0  502 -0.10025650585E+03 -0.11448014753E+03  0.58519212495E+03  0.62521507192E+03  0.15901884138E+03 0.  0.
        -24    2    5    5    0    0 -0.28951135397E+02 -0.17919445048E+01  0.21275331818E+03  0.22959424115E+03  0.81290601337E+02 0.  0.
          5    1    3    3  501    0  0.42054051329E+02  0.88240374915E+02  0.82048234536E+02  0.12770634201E+03  0.47000000000E+01 0. -1.
        -11    1    4    4    0    0  0.36823632154E+02  0.38759903291E+02 -0.52685202234E+02  0.75060245953E+02  0.00000000000E+00 0.  1.
         12    1    4    4    0    0  0.21378822368E+02 -0.12520130679E+02  0.21309549979E+02  0.32678810235E+02  0.00000000000E+00 0. -1.
         -5    1    5    5    0  502 -0.71305370455E+02 -0.11268820302E+03  0.37243880677E+03  0.39562083077E+03  0.47000000000E+01 0.  1.
         13    1    6    6    0    0  0.21283584378E+02  0.55203524022E+01  0.13471527416E+03  0.13649787671E+03  0.00000000000E+00 0. -1.
        -14    1    6    6    0    0 -0.50234719775E+02 -0.73122969070E+01  0.78038044023E+02  0.93096364439E+02  0.00000000000E+00 0.  1.
</event>
<event>
12    1  0.8358445E-002  0.1835853E+03  0.7818608E-02  0.1164469E+00
         21   -1    0    0  503  502  0.00000000000E+00  0.00000000000E+00  0.23066915537E+03  0.23066915537E+03  0.00000000000E+00 0. -1.
         21   -1    0    0  501  503 -0.00000000000E+00 -0.00000000000E+00 -0.14876785329E+03  0.14876785329E+03  0.00000000000E+00 0.  1.
          6    2    1    2  501    0 -0.11100201629E+02 -0.64258183349E+02  0.14216262794E+02  0.18413495632E+03  0.17161366906E+03 0.  0.
         24    2    3    3    0    0  0.32571655814E+02  0.88507849645E+01  0.41681125230E+02  0.94532718356E+02  0.77845163513E+02 0.  0.
         -6    2    1    2    0  502  0.11100201629E+02  0.64258183349E+02  0.67685039286E+02  0.19530205233E+03  0.17119958674E+03 0.  0.
        -24    2    5    5    0    0 -0.64243656455E+01  0.10669443007E+03  0.65284460886E+02  0.14908735477E+03  0.80870295149E+02 0.  0.
          5    1    3    3  501    0 -0.43671857443E+02 -0.73108968313E+02 -0.27464862436E+02  0.89602237968E+02  0.47000000000E+01 0. -1.
        -11    1    4    4    0    0  0.34629320132E+02 -0.61062984494E+00 -0.14482391129E+02  0.37540675732E+02  0.00000000000E+00 0.  1.
         12    1    4    4    0    0 -0.20576643180E+01  0.94614148095E+01  0.56163516359E+02  0.56992042624E+02  0.00000000000E+00 0. -1.
         -5    1    5    5    0  502  0.17524567274E+02 -0.42436246722E+02  0.24005783997E+01  0.46214697561E+02  0.47000000000E+01 0.  1.
         13    1    6    6    0    0 -0.28762769261E+02  0.41627722684E+01  0.12780721771E+02  0.31748581347E+02  0.00000000000E+00 0. -1.
        -14    1    6    6    0    0  0.22338403616E+02  0.10253165780E+03  0.52503739115E+02  0.11733877342E+03  0.00000000000E+00 0.  1.
</event>
<event>
12    1  0.8358445E-002  0.1882589E+03  0.7818608E-02  0.1161050E+00
         21   -1    0    0  503  502  0.00000000000E+00  0.00000000000E+00  0.35926497929E+03  0.35926497929E+03  0.00000000000E+00 0. -1.
         21   -1    0    0  501  503 -0.00000000000E+00 -0.00000000000E+00 -0.16583572104E+03  0.16583572104E+03  0.00000000000E+00 0. -1.
          6    2    1    2  501    0  0.60293177896E+02  0.42475383841E+02 -0.72537314350E+02  0.20175001464E+03  0.17321079903E+03 0.  0.
         24    2    3    3    0    0  0.48899161954E+02 -0.21491878715E+02 -0.96928530410E+02  0.13218956827E+03  0.72290476968E+02 0.  0.
         -6    2    1    2    0  502 -0.60293177896E+02 -0.42475383841E+02  0.26596657260E+03  0.32335068569E+03  0.16845777709E+03 0.  0.
        -24    2    5    5    0    0  0.19648073611E+02  0.16610297251E+02  0.10891809207E+03  0.13742587121E+03  0.79754438916E+02 0.  0.
          5    1    3    3  501    0  0.11394015942E+02  0.63967262556E+02  0.24391216061E+02  0.69560446369E+02  0.47000000000E+01 0. -1.
        -11    1    4    4    0    0  0.27245703505E+02  0.22468152544E+02 -0.18913346376E+02  0.40060715288E+02  0.00000000000E+00 0.  1.
         12    1    4    4    0    0  0.21653458449E+02 -0.43960031260E+02 -0.78015184034E+02  0.92128852978E+02  0.00000000000E+00 0. -1.
         -5    1    5    5    0  502 -0.79941251507E+02 -0.59085681092E+02  0.15704848053E+03  0.18592481448E+03  0.47000000000E+01 0.  1.
         13    1    6    6    0    0 -0.15561728499E+02  0.18511074735E+02  0.97360533086E+02  0.10031899463E+03  0.00000000000E+00 0. -1.
        -14    1    6    6    0    0  0.35209802111E+02 -0.19007774845E+01  0.11557558986E+02  0.37106876579E+02  0.00000000000E+00 0.  1.
</event>
<event>
12    1  0.8358445E-002  0.1760927E+03  0.7818608E-02  0.1172278E+00
         21   -1    0    0  503  502  0.00000000000E+00  0.00000000000E+00  0.18794730520E+04  0.18794730520E+04  0.00000000000E+00 0.  1.
         21   -1    0    0  501  503 -0.00000000000E+00 -0.00000000000E+00 -0.19329387795E+02  0.19329387795E+02  0.00000000000E+00 0.  1.
          6    2    1    2  501    0  0.34782944178E+02 -0.15266478585E+02  0.55750674662E+03  0.58465579774E+03  0.17194682530E+03 0.  0.
         24    2    3    3    0    0 -0.20058094082E+02 -0.24419569860E+02  0.14190623655E+03  0.16532634191E+03  0.78719608908E+02 0.  0.
         -6    2    1    2    0  502 -0.34782944178E+02  0.15266478585E+02  0.13026369176E+04  0.13141466421E+04  0.16933853430E+03 0.  0.
        -24    2    5    5    0    0 -0.50159167437E+02 -0.29050504159E+02  0.69446629868E+03  0.70415154789E+03  0.10092615385E+03 0.  0.
          5    1    3    3  501    0  0.54841038260E+02  0.91530912754E+01  0.41560051007E+03  0.41932945584E+03  0.47000000000E+01 0. -1.
        -13    1    4    4    0    0  0.28163151782E+02 -0.37545828259E+01  0.27862255504E+02  0.39794035888E+02  0.00000000000E+00 0.  1.
         14    1    4    4    0    0 -0.48221245864E+02 -0.20664987034E+02  0.11404398105E+03  0.12553230602E+03  0.00000000000E+00 0. -1.
         -5    1    5    5    0  502  0.15376223259E+02  0.44316982744E+02  0.60817061895E+03  0.60999509421E+03  0.47000000000E+01 0.  1.
         11    1    6    6    0    0  0.22357770817E+01 -0.46905013815E+02  0.49261371668E+03  0.49484679738E+03  0.00000000000E+00 0. -1.
        -12    1    6    6    0    0 -0.52394944519E+02  0.17854509655E+02  0.20185258200E+03  0.20930475051E+03  0.00000000000E+00 0.  1.
</event>
<event>
12    1  0.8358445E-002  0.1725945E+03  0.7818608E-02  0.1175450E+00
         21   -1    0    0  503  502  0.00000000000E+00  0.00000000000E+00  0.12005521961E+03  0.12005521961E+03  0.00000000000E+00 0.  1.
         21   -1    0    0  501  503 -0.00000000000E+00 -0.00000000000E+00 -0.33774650333E+03  0.33774650333E+03  0.00000000000E+00 0.  1.
          6    2    1    2  501    0  0.77281833785E+01 -0.27992114825E+02 -0.22803862141E+03  0.28599036740E+03  0.17013404738E+03 0.  0.
         24    2    3    3    0    0 -0.48284428220E+02 -0.55742726637E+02 -0.15983403392E+03  0.19335417108E+03  0.80001746810E+02 0.  0.
         -6    2    1    2    0  502 -0.77281833785E+01  0.27992114825E+02  0.10347337685E+02  0.17181135555E+03  0.16902304928E+03 0.  0.
        -24    2    5    5    0    0  0.14472869374E+02 -0.34272202273E+02 -0.25991445461E+02  0.96231403926E+02  0.84857999434E+02 0.  0.
          5    1    3    3  501    0  0.56012611598E+02  0.27750611813E+02 -0.68204587487E+02  0.92636196318E+02  0.47000000000E+01 0. -1.
        -11    1    4    4    0    0  0.16524122648E+02 -0.38011661305E+02 -0.66264690088E+02  0.78159722216E+02  0.00000000000E+00 0.  1.
         12    1    4    4    0    0 -0.64808550868E+02 -0.17731065332E+02 -0.93569343833E+02  0.11519444886E+03  0.00000000000E+00 0. -1.
         -5    1    5    5    0  502 -0.22201052752E+02  0.62264317097E+02  0.36338783146E+02  0.75579951624E+02  0.47000000000E+01 0.  1.
         13    1    6    6    0    0 -0.63661655296E-01 -0.38556418956E+02 -0.52833767803E+02  0.65406486802E+02  0.00000000000E+00 0. -1.
        -14    1    6    6    0    0  0.14536531029E+02  0.42842166830E+01  0.26842322342E+02  0.30824917124E+02  0.00000000000E+00 0.  1.
</event>
<event>
12    1  0.8358445E-002  0.2213752E+03  0.7818608E-02  0.1133880E+00
         21   -1    0    0  501  502  0.00000000000E+00  0.00000000000E+00  0.48251139581E+02  0.48251139581E+02  0.00000000000E+00 0.  1.
         21   -1    0    0  502  503 -0.00000000000E+00 -0.00000000000E+00 -0.11044058398E+04  0.11044058398E+04  0.00000000000E+00 0.  1.
         -6    2    1    2    0  503  0.61144788528E+01  0.13148808875E+03 -0.70695082507E+03  0.73919556633E+03  0.17118443821E+03 0.  0.
        -24    2    3    3    0    0  0.14594098669E+02  0.57942727549E+02 -0.60435146318E+03  0.61258773416E+03  0.80328659937E+02 0.  0.
          6    2    1    2  501    0 -0.61144788528E+01 -0.13148808875E+03 -0.34920387515E+03  0.41346141305E+03  0.17799013828E+03 0.  0.
         24    2    5    5    0    0  0.28561027951E+02 -0.31208567765E+02 -0.25710494890E+03  0.27288163030E+03  0.81066160560E+02 0.  0.
          5    1    5    5  501    0 -0.34675506803E+02 -0.10027952099E+03 -0.92098926254E+02  0.14057978275E+03  0.47000000000E+01 0. -1.
        -13    1    6    6    0    0 -0.10427671347E+02  0.17173827496E+02 -0.12839821081E+03  0.12996067566E+03  0.00000000000E+00 0.  1.
         14    1    6    6    0    0  0.38988699298E+02 -0.48382395261E+02 -0.12870673809E+03  0.14292095464E+03  0.00000000000E+00 0. -1.
         -5    1    3    3    0  503 -0.84796198164E+01  0.73545361203E+02 -0.10259936189E+03  0.12660783217E+03  0.47000000000E+01 0.  1.
         13    1    4    4    0    0  0.43923080019E+02  0.38545789858E+02 -0.47355787903E+03  0.47714995512E+03  0.00000000000E+00 0. -1.
        -14    1    4    4    0    0 -0.29328981350E+02  0.19396937690E+02 -0.13079358415E+03  0.13543777905E+03  0.00000000000E+00 0.  1.
</event>
<event>
12    1  0.8358445E-002  0.2300731E+03  0.7818608E-02  0.1126600E+00
         21   -1    0    0  503  502  0.00000000000E+00  0.00000000000E+00  0.40625767996E+03  0.40625767996E+03  0.00000000000E+00 0.  1.
         21   -1    0    0  501  503 -0.00000000000E+00 -0.00000000000E+00 -0.16637272690E+03  0.16637272690E+03  0.00000000000E+00 0.  1.
          6    2    1    2  501    0  0.13659861758E+03 -0.72081665906E+02 -0.13442220505E+02  0.23046543253E+03  0.17052470031E+03 0.  0.
         24    2    3    3    0    0  0.39945799425E+02 -0.65726385370E+02  0.41435040862E+02  0.11903940028E+03  0.80857229626E+02 0.  0.
         -6    2    1    2    0  502 -0.13659861758E+03  0.72081665906E+02  0.25332717356E+03  0.34216497433E+03  0.17043257877E+03 0.  0.
        -24    2    5    5    0    0 -0.54531951925E+02  0.61836317236E+02  0.53557686636E+02  0.12590161014E+03  0.78646841824E+02 0.  0.
          5    1    3    3  501    0  0.96652818156E+02 -0.63552805356E+01 -0.54877261367E+02  0.11142603225E+03  0.47000000000E+01 0. -1.
        -11    1    4    4    0    0  0.15110069398E+02 -0.12184197115E+02 -0.24033787666E+02  0.30893232368E+02  0.00000000000E+00 0.  1.
         12    1    4    4    0    0  0.24835730027E+02 -0.53542188255E+02  0.65468828528E+02  0.88146167914E+02  0.00000000000E+00 0. -1.
         -5    1    5    5    0  502 -0.82066665656E+02  0.10245348670E+02  0.19976948693E+03  0.21626336418E+03  0.47000000000E+01 0.  1.
         11    1    6    6    0    0 -0.25869734890E+02 -0.16144947772E+02  0.18930909752E+02  0.35892643618E+02  0.00000000000E+00 0. -1.
        -12    1    6    6    0    0 -0.28662217035E+02  0.77981265008E+02  0.34626776885E+02  0.90008966526E+02  0.00000000000E+00 0.  1.
</event>
<event>
12    1  0.8358445E-002  0.1820993E+03  0.7818608E-02  0.1166679E+00
         21   -1    0    0  501  502  0.00000000000E+00  0.00000000000E+00  0.17739137362E+04  0.17739137362E+04  0.00000000000E+00 0. -1.
         21   -1    0    0  502  503 -0.00000000000E+00 -0.00000000000E+00 -0.30620160007E+02  0.30620160007E+02  0.00000000000E+00 0.  1.
         -6    2    1    2    0  503  0.34629853773E+02 -0.40857795874E+02  0.30504992216E+03  0.35526833944E+03  0.17404468318E+03 0.  0.
        -24    2    3    3    0    0 -0.20096281158E+02  0.26199396707E+02  0.20018615590E+03  0.21921645082E+03  0.83012567692E+02 0.  0.
          6    2    1    2  501    0 -0.34629853773E+02  0.40857795874E+02  0.14382436540E+04  0.14492655567E+04  0.17016832668E+03 0.  0.
         24    2    5    5    0    0 -0.77349694256E+02 -0.67031605763E+01  0.82623910605E+03  0.83391306745E+03  0.81927017175E+02 0.  0.
          5    1    5    5  501    0  0.42719840482E+02  0.47560956451E+02  0.61200454796E+03  0.61535248929E+03  0.47000000000E+01 0. -1.
        -11    1    6    6    0    0 -0.16208194519E+02  0.29258778137E+02  0.13659521012E+03  0.14063083978E+03  0.00000000000E+00 0.  1.
         12    1    6    6    0    0 -0.61141499737E+02 -0.35961938713E+02  0.68964389593E+03  0.69328222768E+03  0.00000000000E+00 0. -1.
         -5    1    3    3    0  503  0.54726134931E+02 -0.67057192581E+02  0.10486376626E+03  0.13605188862E+03  0.47000000000E+01 0.  1.
         11    1    4    4    0    0 -0.53892145390E+01  0.52187804745E+02  0.82249681584E+02  0.97558293948E+02  0.00000000000E+00 0. -1.
        -12    1    4    4    0    0 -0.14707066619E+02 -0.25988408038E+02  0.11793647431E+03  0.12165815687E+03  0.00000000000E+00 0.  1.
</event>
<event>
12    1  0.8358445E-002  0.1828083E+03  0.7818608E-02  0.1165515E+00
         21   -1    0    0  503  502  0.00000000000E+00  0.00000000000E+00  0.58069266097E+03  0.58069266097E+03  0.00000000000E+00 0.  1.
         21   -1    0    0  501  503 -0.00000000000E+00 -0.00000000000E+00 -0.11597867422E+03  0.11597867422E+03  0.00000000000E+00 0.  1.
          6    2    1    2  501    0 -0.36434552637E+02  0.42818967848E+02  0.48018656146E+03  0.51320937896E+03  0.17217372685E+03 0.  0.
         24    2    3    3    0    0  0.40925826310E+02  0.41960026152E+02  0.23912037124E+03  0.25998938750E+03  0.83548564413E+02 0.  0.
         -6    2    1    2    0  502  0.36434552637E+02 -0.42818967848E+02 -0.15472574705E+02  0.18346195623E+03  0.17394811923E+03 0.  0.
        -24    2    5    5    0    0  0.71698350427E+02 -0.41820274062E+02  0.35571378695E+02  0.12123569166E+03  0.80889932463E+02 0.  0.
          5    1    3    3  501    0 -0.77360378947E+02  0.85894169587E+00  0.24106619022E+03  0.25321999146E+03  0.47000000000E+01 0. -1.
        -11    1    4    4    0    0  0.26945754454E+02  0.51115575635E+01  0.20792505240E+03  0.20972608116E+03  0.00000000000E+00 0.  1.
         12    1    4    4    0    0  0.13980071856E+02  0.36848468588E+02  0.31195318843E+02  0.50263306339E+02  0.00000000000E+00 0. -1.
         -5    1    5    5    0  502 -0.35263797790E+02 -0.99869378610E+00 -0.51043953400E+02  0.62226264572E+02  0.47000000000E+01 0.  1.
         13    1    6    6    0    0  0.17464718226E+02 -0.56638862238E+02  0.13173207334E+02  0.60716640962E+02  0.00000000000E+00 0. -1.
        -14    1    6    6    0    0  0.54233632200E+02  0.14818588176E+02  0.22398171361E+02  0.60519050699E+02  0.00000000000E+00 0.  1.
</event>
<event>
12    1  0.8358445E-002  0.2114663E+03  0.7818608E-02  0.1140635E+00
         21   -1    0    0  503  502  0.00000000000E+00  0.00000000000E+00  0.32544274381E+03  0.32544274381E+03  0.00000000000E+00 0.  1.
         21   -1    0    0  501  503 -0.00000000000E+00 -0.00000000000E+00 -0.20410786459E+03  0.20410786459E+03  0.00000000000E+00 0.  1.
          6    2    1    2  501    0 -0.10805866114E+03  0.58657710862E+02 -0.91422630027E+02  0.23038245835E+03  0.17204818669E+03 0.  0.
         24    2    3    3    0    0 -0.74995139274E+02  0.56515337380E+02 -0.12998951364E+03  0.17932091946E+03  0.80252502923E+02 0.  0.
         -6    2    1    2    0  502  0.10805866114E+03 -0.58657710862E+02  0.21275750924E+03  0.29916815005E+03  0.17064121124E+03 0.  0.
        -24    2    5    5    0    0 -0.10092036960E+02 -0.53135392250E+01  0.89217123829E+02  0.12003271264E+03  0.79486313344E+02 0.  0.
          5    1    3    3  501    0 -0.33063521871E+02  0.21423734822E+01  0.38566883611E+02  0.51061538893E+02  0.47000000000E+01 0. -1.
        -13    1    4    4    0    0 -0.24790633126E+02  0.52504539025E+02 -0.25678767306E+02  0.63487803548E+02  0.00000000000E+00 0.  1.
         14    1    4    4    0    0 -0.50204506148E+02  0.40107983553E+01 -0.10431074633E+03  0.11583311591E+03  0.00000000000E+00 0. -1.
         -5    1    5    5    0  502  0.11815069810E+03 -0.53344171637E+02  0.12354038541E+03  0.17913543742E+03  0.47000000000E+01 0.  1.
         11    1    6    6    0    0  0.24307059931E+02  0.23075285086E+02  0.52387075760E+02  0.62190896849E+02  0.00000000000E+00 0. -1.
        -12    1    6    6    0    0 -0.34399096890E+02 -0.28388824311E+02  0.36830048070E+02  0.57841815786E+02  0.00000000000E+00 0.  1.
</event>
<event>
12    1  0.8358445E-002  0.2888823E+03  0.7818608E-02  0.1091015E+00
         21   -1    0    0  501  502  0.00000000000E+00  0.00000000000E+00  0.16910748350E+04  0.16910748350E+04  0.00000000000E+00 0.  1.
         21   -1    0    0  502  503 -0.00000000000E+00 -0.00000000000E+00 -0.50530097916E+02  0.50530097916E+02  0.00000000000E+00 0.  1.
         -6    2    1    2    0  503 -0.20524725487E+03 -0.10678278501E+03  0.68052430057E+03  0.73906206600E+03  0.17196050394E+03 0.  0.
        -24    2    3    3    0    0 -0.10736710721E+03 -0.77491893082E+02  0.55985243978E+03  0.58087778219E+03  0.80321568135E+02 0.  0.
          6    2    1    2  501    0  0.20524725487E+03  0.10678278501E+03  0.96002043655E+03  0.10025428670E+04  0.17298544070E+03 0.  0.
         24    2    5    5    0    0  0.44373810438E+02  0.57280653471E+02  0.52740385548E+03  0.53831240440E+03  0.79845536147E+02 0.  0.
          5    1    5    5  501    0  0.16087344444E+03  0.49502131536E+02  0.43261658107E+03  0.46423046256E+03  0.47000000000E+01 0. -1.
        -11    1    6    6    0    0  0.43912331694E+02  0.34473858029E+01  0.35437518639E+03  0.35710215635E+03  0.00000000000E+00 0.  1.
         12    1    6    6    0    0  0.46147874411E+00  0.53833267668E+02  0.17302866909E+03  0.18121024805E+03  0.00000000000E+00 0. -1.
         -5    1    3    3    0  503 -0.97880147660E+02 -0.29290891924E+02  0.12067186079E+03  0.15818428380E+03  0.47000000000E+01 0.  1.
         13    1    4    4    0    0  0.75063413070E+01  0.83982840866E+01  0.34171524442E+02  0.35980125321E+02  0.00000000000E+00 0. -1.
        -14    1    4    4    0    0 -0.11487344852E+03 -0.85890177169E+02  0.52568091534E+03  0.54489765687E+03  0.00000000000E+00 0.  1.
</event>
<event>
12    1  0.8358445E-002  0.7889968E+03  0.7818608E-02  0.9576432E-01
         21   -1    0    0  501  502  0.00000000000E+00  0.00000000000E+00  0.19466014123E+04  0.19466014123E+04  0.00000000000E+00 0. -1.
         21   -1    0    0  502  503 -0.00000000000E+00 -0.00000000000E+00 -0.33448271372E+03  0.33448271372E+03  0.00000000000E+00 0.  1.
         -6    2    1    2    0  503  0.26666489585E+02 -0.76903009977E+03  0.56348968856E+03  0.96878127917E+03  0.16999453444E+03 0.  0.
        -24    2    3    3    0    0  0.12099191257E+02 -0.74778085823E+03  0.50821229153E+03  0.90761415508E+03  0.78492795067E+02 0.  0.
          6    2    1    2  501    0 -0.26666489585E+02  0.76903009977E+03  0.10486290101E+04  0.13123028469E+04  0.17434897538E+03 0.  0.
         24    2    5    5    0    0  0.49832345014E+02  0.51681682894E+03  0.70292522835E+03  0.87756522446E+03  0.80211902094E+02 0.  0.
          5    1    5    5  501    0 -0.76498834600E+02  0.25221327083E+03  0.34570378171E+03  0.43473762244E+03  0.47000000000E+01 0. -1.
        -11    1    6    6    0    0  0.14420340353E+02  0.14486240811E+03  0.26103145592E+03  0.29888205781E+03  0.00000000000E+00 0.  1.
         12    1    6    6    0    0  0.35412004661E+02  0.37195442083E+03  0.44189377243E+03  0.57868316665E+03  0.00000000000E+00 0. -1.
         -5    1    3    3    0  503  0.14567298328E+02 -0.21249241532E+02  0.55277397030E+02  0.61167124084E+02  0.47000000000E+01 0.  1.
         11    1    4    4    0    0  0.37039411253E+02 -0.64244979969E+03  0.44274870510E+03  0.78111463881E+03  0.00000000000E+00 0. -1.
        -12    1    4    4    0    0 -0.24940219996E+02 -0.10533105855E+03  0.65463586430E+02  0.12649951627E+03  0.00000000000E+00 0.  1.
</event>
<event>
12    1  0.8358445E-002  0.1970546E+03  0.7818608E-02  0.1153285E+00
         21   -1    0    0  503  502  0.00000000000E+00  0.00000000000E+00  0.16895226949E+03  0.16895226949E+03  0.00000000000E+00 0.  1.
         21   -1    0    0  501  503 -0.00000000000E+00 -0.00000000000E+00 -0.27486075445E+03  0.27486075445E+03  0.00000000000E+00 0. -1.
          6    2    1    2  501    0  0.51867390433E+02 -0.71251447114E+02 -0.14758313085E+03  0.24239976582E+03  0.17090895545E+03 0.  0.
         24    2    3    3    0    0 -0.21377979603E+02 -0.38848169415E+02 -0.22584461091E+02  0.93868240280E+02  0.79592652750E+02 0.  0.
         -6    2    1    2    0  502 -0.51867390433E+02  0.71251447114E+02  0.41674645886E+02  0.20141325812E+03  0.17624848803E+03 0.  0.
        -24    2    5    5    0    0 -0.10065662174E+02  0.58747832760E+02 -0.41017671498E+02  0.10779790569E+03  0.79908157820E+02 0.  0.
          5    1    3    3  501    0  0.73245370036E+02 -0.32403277699E+02 -0.12499866976E+03  0.14853152554E+03  0.47000000000E+01 0. -1.
        -13    1    4    4    0    0 -0.31613629747E+02 -0.14954391072E+02  0.22671786597E+02  0.41678115427E+02  0.00000000000E+00 0.  1.
         14    1    4    4    0    0  0.10235650144E+02 -0.23893778344E+02 -0.45256247687E+02  0.52190124853E+02  0.00000000000E+00 0. -1.
         -5    1    5    5    0  502 -0.41801728259E+02  0.12503614355E+02  0.82692317384E+02  0.93615352436E+02  0.47000000000E+01 0.  1.
         13    1    6    6    0    0 -0.35842999328E+02  0.18081995608E+02  0.58930055749E+01  0.40575937213E+02  0.00000000000E+00 0. -1.
        -14    1    6    6    0    0  0.25777337154E+02  0.40665837152E+02 -0.46910677073E+02  0.67221968473E+02  0.00000000000E+00 0.  1.
</event>
<event>
12    1  0.8358445E-002  0.2352147E+03  0.7818608E-02  0.1123027E+00
         21   -1    0    0  501  502  0.00000000000E+00  0.00000000000E+00  0.56578970933E+02  0.56578970933E+02  0.00000000000E+00 0. -1.
         21   -1    0    0  502  503 -0.00000000000E+00 -0.00000000000E+00 -0.10890280968E+04  0.10890280968E+04  0.00000000000E+00 0. -1.
         -6    2    1    2    0  503 -0.45571857567E+02  0.15265259827E+03 -0.33313647573E+03  0.40780613537E+03  0.17305005814E+03 0.  0.
        -24    2    3    3    0    0 -0.64492423002E+02  0.16391412905E+03 -0.33305606843E+03  0.38529155482E+03  0.80598530825E+02 0.  0.
          6    2    1    2  501    0  0.45571857567E+02 -0.15265259827E+03 -0.69931265011E+03  0.73780093234E+03  0.17300989334E+03 0.  0.
         24    2    5    5    0    0  0.53196689222E+02 -0.92257317361E+02 -0.63635970068E+03  0.65010320229E+03  0.79619122233E+02 0.  0.
          5    1    5    5  501    0 -0.76248316544E+01 -0.60395280907E+02 -0.62952949424E+02  0.87697730044E+02  0.47000000000E+01 0. -1.
        -13    1    6    6    0    0  0.35016734710E+02 -0.14912394642E+02 -0.37518686562E+03  0.37711236436E+03  0.00000000000E+00 0.  1.
         14    1    6    6    0    0  0.18179954512E+02 -0.77344922719E+02 -0.26117283507E+03  0.27299083793E+03  0.00000000000E+00 0. -1.
         -5    1    3    3    0  503  0.18920565435E+02 -0.11261530783E+02 -0.80407301297E-01  0.22514580548E+02  0.47000000000E+01 0.  1.
         13    1    4    4    0    0 -0.81535238681E+01  0.12397404426E+03 -0.20189839623E+03  0.23706329535E+03  0.00000000000E+00 0. -1.
        -14    1    4    4    0    0 -0.56338899134E+02  0.39940084787E+02 -0.13115767220E+03  0.14822825947E+03  0.00000000000E+00 0.  1.
</event>
<event>
12    1  0.8358445E-002  0.1952816E+03  0.7818608E-02  0.1154115E+00
         21   -1    0    0  503  502  0.00000000000E+00  0.00000000000E+00  0.99250572204E+02  0.99250572204E+02  0.00000000000E+00 0. -1.
         21   -1    0    0  501  503 -0.00000000000E+00 -0.00000000000E+00 -0.11792492041E+04  0.11792492041E+04  0.00000000000E+00 0. -1.
          6    2    1    2  501    0 -0.90849149303E+02 -0.85086011663E+01 -0.10651776988E+04  0.10826565619E+04  0.17092611499E+03 0.  0.
         24    2    3    3    0    0 -0.11643903461E+03 -0.38623817037E+02 -0.68856209883E+03  0.70394404745E+03  0.79809836368E+02 0.  0.
         -6    2    1    2    0  502  0.90849149303E+02  0.85086011663E+01 -0.14820933028E+02  0.19584321433E+03  0.17265265802E+03 0.  0.
        -24    2    5    5    0    0  0.87654153045E+02  0.27013239535E+01  0.50396802094E+02  0.13012125876E+03  0.81860592615E+02 0.  0.
          5    1    3    3  501    0  0.25589885304E+02  0.30115215870E+02 -0.37661560000E+03  0.37871251448E+03  0.47000000000E+01 0. -1.
        -11    1    4    4    0    0 -0.79240129110E+02  0.13694126147E+02 -0.32813051840E+03  0.33784044201E+03  0.00000000000E+00 0.  1.
         12    1    4    4    0    0 -0.37198905497E+02 -0.52317943184E+02 -0.36043158043E+03  0.36610360544E+03  0.00000000000E+00 0. -1.
         -5    1    5    5    0  502  0.31949962583E+01  0.58072772128E+01 -0.65217735122E+02  0.65721955572E+02  0.47000000000E+01 0.  1.
         11    1    6    6    0    0  0.14312538679E+02 -0.34709707229E+02  0.18115895661E+02  0.41686906997E+02  0.00000000000E+00 0. -1.
        -12    1    6    6    0    0  0.73341614366E+02  0.37411031182E+02  0.32280906434E+02  0.88434351765E+02  0.00000000000E+00 0.  1.
</event>
<event>
12    1  0.8358445E-002  0.1989078E+03  0.7818608E-02  0.1150813E+00
         21   -1    0    0  501  502  0.00000000000E+00  0.00000000000E+00  0.70381376784E+02  0.70381376784E+02  0.00000000000E+00 0.  1.
         21   -1    0    0  502  503 -0.00000000000E+00 -0.00000000000E+00 -0.56134233725E+03  0.56134233725E+03  0.00000000000E+00 0.  1.
         -6    2    1    2    0  503  0.29642455430E+02  0.93752055238E+02 -0.26043320329E+03  0.32770377992E+03  0.17290515023E+03 0.  0.
        -24    2    3    3    0    0  0.85880477081E+01  0.46042091384E+02 -0.39424956093E+02  0.10057768265E+03  0.79799212665E+02 0.  0.
          6    2    1    2  501    0 -0.29642455430E+02 -0.93752055238E+02 -0.23052775718E+03  0.30401993411E+03  0.17209575962E+03 0.  0.
         24    2    5    5    0    0 -0.32969674616E+02  0.12022226706E+02 -0.13995969144E+03  0.16465016106E+03  0.79305907277E+02 0.  0.
          5    1    5    5  501    0  0.33272191862E+01 -0.10577428194E+03 -0.90568065733E+02  0.13936977305E+03  0.47000000000E+01 0. -1.
        -13    1    6    6    0    0  0.52777402795E+01 -0.17938148350E+02 -0.25097039823E+01  0.18866115731E+02  0.00000000000E+00 0.  1.
         14    1    6    6    0    0 -0.38247414895E+02  0.29960375056E+02 -0.13744998746E+03  0.14578404533E+03  0.00000000000E+00 0. -1.
         -5    1    3    3    0  503  0.21054407722E+02  0.47709963854E+02 -0.22100824719E+03  0.22712609727E+03  0.47000000000E+01 0.  1.
         11    1    4    4    0    0  0.63759514199E+01 -0.20495515308E+02 -0.24079901399E+02  0.32257720869E+02  0.00000000000E+00 0. -1.
        -12    1    4    4    0    0  0.22120962882E+01  0.66537606692E+02 -0.15345054694E+02  0.68319961782E+02  0.00000000000E+00 0.  1.
</event>
<event>
12    1  0.8358445E-002  0.1912995E+03  0.7818608E-02  0.1157430E+00
         21   -1    0    0  501  502  0.00000000000E+00  0.00000000000E+00  0.15046120118E+03  0.15046120118E+03  0.00000000000E+00 0.  1.
         21   -1    0    0  502  503 -0.00000000000E+00 -0.00000000000E+00 -0.49500571772E+03  0.49500571772E+03  0.00000000000E+00 0.  1.
         -6    2    1    2    0  503 -0.55526841207E+02  0.61260112125E+02 -0.40266118924E+03  0.44553435965E+03  0.17183946253E+03 0.  0.
        -24    2    3    3    0    0 -0.59014627102E+02  0.81725374028E+02 -0.17657401517E+03  0.21844738982E+03  0.79869370289E+02 0.  0.
          6    2    1    2  501    0  0.55526841207E+02 -0.61260112125E+02  0.58116672702E+02  0.19993255925E+03  0.17250927271E+03 0.  0.
         24    2    5    5    0    0  0.57580738730E+01 -0.78072640573E+02  0.81802379678E+02  0.14211652315E+03  0.85889371936E+02 0.  0.
          5    1    5    5  501    0  0.49768767334E+02  0.16812528448E+02 -0.23685706975E+02  0.57816036095E+02  0.47000000000E+01 0. -1.
        -11    1    6    6    0    0  0.45369420894E+02 -0.39211375127E+02  0.34379597302E+02  0.69122159994E+02  0.00000000000E+00 0.  1.
         12    1    6    6    0    0 -0.39611347021E+02 -0.38861265446E+02  0.47422782376E+02  0.72994363160E+02  0.00000000000E+00 0. -1.
         -5    1    3    3    0  503  0.34877858942E+01 -0.20465261902E+02 -0.22608717406E+03  0.22708696984E+03  0.47000000000E+01 0.  1.
         11    1    4    4    0    0  0.61092088040E+01  0.59183077314E+02 -0.87887435846E+02  0.10613274920E+03  0.00000000000E+00 0. -1.
        -12    1    4    4    0    0 -0.65123835906E+02  0.22542296714E+02 -0.88686579329E+02  0.11231464062E+03  0.00000000000E+00 0.  1.
</event>
<event>
12    1  0.8358445E-002  0.1770452E+03  0.7818608E-02  0.1171011E+00
         21   -1    0    0  501  502  0.00000000000E+00  0.00000000000E+00  0.18771588698E+02  0.18771588698E+02  0.00000000000E+00 0. -1.
         21   -1    0    0  502  503 -0.00000000000E+00 -0.00000000000E+00 -0.24068482105E+04  0.24068482105E+04  0.00000000000E+00 0. -1.
         -6    2    1    2    0  503  0.18939355666E+02 -0.34050402466E+02 -0.18676559959E+04  0.18759083912E+04  0.17139207728E+03 0.  0.
        -24    2    3    3    0    0 -0.49174373644E+02 -0.28202591069E+02 -0.13283638753E+04  0.13322800638E+04  0.84888621640E+02 0.  0.
          6    2    1    2  501    0 -0.18939355666E+02  0.34050402466E+02 -0.52042062588E+03  0.54971140795E+03  0.17270458907E+03 0.  0.
         24    2    5    5    0    0  0.26613081064E+02  0.59831605752E+02 -0.19733293119E+03  0.22237756706E+03  0.78888652330E+02 0.  0.
          5    1    5    5  501    0 -0.45552436730E+02 -0.25781203286E+02 -0.32308769469E+03  0.32733384089E+03  0.47000000000E+01 0. -1.
        -11    1    6    6    0    0  0.49583663740E+01  0.63027437014E+02 -0.18841887546E+03  0.19874283847E+03  0.00000000000E+00 0.  1.
         12    1    6    6    0    0  0.21654714690E+02 -0.31958312619E+01 -0.89140557326E+01  0.23634728586E+02  0.00000000000E+00 0. -1.
         -5    1    3    3    0  503  0.68113729310E+02 -0.58478113970E+01 -0.53929212064E+03  0.54362832745E+03  0.47000000000E+01 0.  1.
         11    1    4    4    0    0  0.11563547928E+02 -0.31947649823E+02 -0.73953577047E+03  0.74031582704E+03  0.00000000000E+00 0. -1.
        -12    1    4    4    0    0 -0.60737921572E+02  0.37450587534E+01 -0.58882810481E+03  0.59196423675E+03  0.00000000000E+00 0.  1.
</event>
<event>
12    1  0.8358445E-002  0.2754881E+03  0.7818608E-02  0.1098278E+00
         21   -1    0    0  501  502  0.00000000000E+00  0.00000000000E+00  0.36744036666E+03  0.36744036666E+03  0.00000000000E+00 0. -1.
         21   -1    0    0  502  503 -0.00000000000E+00 -0.00000000000E+00 -0.98162786117E+03  0.98162786117E+03  0.00000000000E+00 0.  1.
         -6    2    1    2    0  503 -0.21265142969E+03 -0.34605711497E+02 -0.90659772576E+03  0.94732524477E+03  0.17055057083E+03 0.  0.
        -24    2    3    3    0    0 -0.20629485767E+03 -0.74912270275E+02 -0.75692096126E+03  0.79211490839E+03  0.79669755612E+02 0.  0.
          6    2    1    2  501    0  0.21265142969E+03  0.34605711497E+02  0.29241023126E+03  0.40174298306E+03  0.17168428955E+03 0.  0.
         24    2    5    5    0    0  0.26766988462E+02 -0.39781592634E+01  0.81381229516E+02  0.11784675176E+03  0.80824841232E+02 0.  0.
          5    1    5    5  501    0  0.18588444123E+03  0.38583870760E+02  0.21102900174E+03  0.28389623130E+03  0.47000000000E+01 0. -1.
        -11    1    6    6    0    0 -0.16356244042E+02  0.36768468145E+00  0.71559869047E+02  0.73406244756E+02  0.00000000000E+00 0.  1.
         12    1    6    6    0    0  0.43123232504E+02 -0.43458439449E+01  0.98213604687E+01  0.44440507003E+02  0.00000000000E+00 0. -1.
         -5    1    3    3    0  503 -0.63565720178E+01  0.40306558779E+02 -0.14967676450E+03  0.15521033638E+03  0.47000000000E+01 0.  1.
         11    1    4    4    0    0 -0.14842677596E+02 -0.17682576228E+02 -0.27945042740E+02  0.36247813645E+02  0.00000000000E+00 0. -1.
        -12    1    4    4    0    0 -0.19145218008E+03 -0.57229694047E+02 -0.72897591852E+03  0.75586709474E+03  0.00000000000E+00 0.  1.
</event>
<event>
12    1  0.8358445E-002  0.3087456E+03  0.7818608E-02  0.1081084E+00
         21   -1    0    0  503  502  0.00000000000E+00  0.00000000000E+00  0.43222064565E+03  0.43222064565E+03  0.00000000000E+00 0. -1.
         21   -1    0    0  501  503 -0.00000000000E+00 -0.00000000000E+00 -0.46081662036E+03  0.46081662036E+03  0.00000000000E+00 0. -1.
          6    2    1    2  501    0 -0.23746131498E+03  0.95221966086E+02 -0.33724552060E+03  0.45647299823E+03  0.17081556723E+03 0.  0.
         24    2    3    3    0    0 -0.16066366027E+03  0.12446939431E+02 -0.27406873961E+03  0.32700106898E+03  0.76474093974E+02 0.  0.
         -6    2    1    2    0  502  0.23746131498E+03 -0.95221966086E+02  0.30864954589E+03  0.43656426778E+03  0.17282568903E+03 0.  0.
        -24    2    5    5    0    0  0.15411528630E+03 -0.76645145875E+02  0.10744034488E+03  0.21793469221E+03  0.79536799672E+02 0.  0.
          5    1    3    3  501    0 -0.76797654712E+02  0.82775026655E+02 -0.63176780991E+02  0.12947192925E+03  0.47000000000E+01 0. -1.
        -13    1    4    4    0    0 -0.63283352201E+02  0.33165224908E+02 -0.16223934096E+03  0.17727469804E+03  0.00000000000E+00 0.  1.
         14    1    4    4    0    0 -0.97380308069E+02 -0.20718285477E+02 -0.11182939865E+03  0.14972637094E+03  0.00000000000E+00 0. -1.
         -5    1    5    5    0  502  0.83346028685E+02 -0.18576820211E+02  0.20120920101E+03  0.21862957558E+03  0.47000000000E+01 0.  1.
         11    1    6    6    0    0  0.10347895435E+03 -0.79246794570E+02  0.10465613659E+03  0.16715518349E+03  0.00000000000E+00 0. -1.
        -12    1    6    6    0    0  0.50636331951E+02  0.26016486952E+01  0.27842082899E+01  0.50779508714E+02  0.00000000000E+00 0.  1.
</event>
<event>
12    1  0.8358445E-002  0.2089794E+03  0.7818608E-02  0.1142618E+00
         21   -1    0    0  501  502  0.00000000000E+00  0.00000000000E+00  0.15801539630E+03  0.15801539630E+03  0.00000000000E+00 0.  1.
         21   -1    0    0  502  503 -0.00000000000E+00 -0.00000000000E+00 -0.33948062940E+03  0.33948062940E+03  0.00000000000E+00 0.  1.
         -6    2    1    2    0  503 -0.18881072349E+02 -0.11633400317E+03 -0.19911054366E+03  0.28777302248E+03  0.17110876273E+03 0.  0.
        -24    2    3    3    0    0 -0.72343914548E+02 -0.98438649758E+02 -0.17060790507E+03  0.22442470304E+03  0.79596358724E+02 0.  0.
          6    2    1    2  501    0  0.18881072349E+02  0.11633400317E+03  0.17645310561E+02  0.20972300322E+03  0.17257544989E+03 0.  0.
         24    2    5    5    0    0  0.81535871491E+01  0.14061060382E+03  0.48040849834E+02  0.16909775140E+03  0.80301328660E+02 0.  0.
          5    1    5    5  501    0  0.10727485200E+02 -0.24276600649E+02 -0.30395539272E+02  0.40625251820E+02  0.47000000000E+01 0. -1.
        -13    1    6    6    0    0 -0.24212312301E+02  0.11924726411E+03  0.25777880595E+02  0.12438104836E+03  0.00000000000E+00 0.  1.
         14    1    6    6    0    0  0.32365899450E+02  0.21363339713E+02  0.22262969238E+02  0.44716703034E+02  0.00000000000E+00 0. -1.
         -5    1    3    3    0  503  0.53462842199E+02 -0.17895353412E+02 -0.28502638590E+02  0.63348319444E+02  0.47000000000E+01 0.  1.
         11    1    4    4    0    0 -0.55686453199E+02 -0.10127043027E+03 -0.10323371574E+03  0.15496412870E+03  0.00000000000E+00 0. -1.
        -12    1    4    4    0    0 -0.16657461349E+02  0.28317805149E+01 -0.67374189332E+02  0.69460574340E+02  0.00000000000E+00 0.  1.
</event>
<event>
12    1  0.8358445E-002  0.1915949E+03  0.7818608E-02  0.1157155E+00
         21   -1    0    0  501  502  0.00000000000E+00  0.00000000000E+00  0.41511938940E+03  0.41511938940E+03  0.00000000000E+00 0. -1.
         21   -1    0    0  502  503 -0.00000000000E+00 -0.00000000000E+00 -0.97389952831E+02  0.97389952831E+02  0.00000000000E+00 0. -1.
         -6    2    1    2    0  503  0.78071657944E+02  0.38190077888E+02  0.23790870972E+03  0.30546548043E+03  0.17074817642E+03 0.  0.
        -24    2    3    3    0    0  0.69894423515E+01  0.26098071273E+02  0.34549050984E+02  0.89650423495E+02  0.78189512598E+02 0.  0.
          6    2    1    2  501    0 -0.78071657944E+02 -0.38190077888E+02  0.79820726842E+02  0.20704386180E+03  0.17012391499E+03 0.  0.
         24    2    5    5    0    0 -0.18747884022E+02  0.15798927450E+02  0.83962051810E+01  0.99537233425E+02  0.96104502041E+02 0.  0.
          5    1    5    5  501    0 -0.59323773921E+02 -0.53989005338E+02  0.71424521661E+02  0.10750662837E+03  0.47000000000E+01 0. -1.
        -11    1    6    6    0    0  0.15297763977E+02 -0.14647144383E+02  0.39124442584E+02  0.44489127085E+02  0.00000000000E+00 0.  1.
         12    1    6    6    0    0 -0.34045647999E+02  0.30446071833E+02 -0.30728237403E+02  0.55048106340E+02  0.00000000000E+00 0. -1.
         -5    1    3    3    0  503  0.71082215592E+02  0.12092006615E+02  0.20335965874E+03  0.21581505694E+03  0.47000000000E+01 0.  1.
         11    1    4    4    0    0  0.24671901394E+02 -0.51809072959E+01  0.45560258611E+02  0.52069969114E+02  0.00000000000E+00 0. -1.
        -12    1    4    4    0    0 -0.17682459042E+02  0.31278978569E+02 -0.11011207627E+02  0.37580454381E+02  0.00000000000E+00 0.  1.
</event>
<event>
12    1  0.8358445E-002  0.7419084E+03  0.7818608E-02  0.9648502E-01
         21   -1    0    0  503  502  0.00000000000E+00  0.00000000000E+00  0.58593262385E+03  0.58593262385E+03  0.00000000000E+00 0. -1.
         21   -1    0    0  501  503 -0.00000000000E+00 -0.00000000000E+00 -0.10223482576E+04  0.10223482576E+04  0.00000000000E+00 0.  1.
          6    2    1    2  501    0 -0.44600615686E+03 -0.56751286825E+03 -0.44875033872E+03  0.86626998547E+03  0.16749469737E+03 0.  0.
         24    2    3    3    0    0 -0.16338891008E+03 -0.14456904692E+03 -0.14132576766E+03  0.27189136786E+03  0.79723259156E+02 0.  0.
         -6    2    1    2    0  502  0.44600615686E+03  0.56751286825E+03  0.12334705010E+02  0.74201089593E+03  0.17156828711E+03 0.  0.
        -24    2    5    5    0    0  0.45311615883E+03  0.54729507057E+03 -0.38615999275E+01  0.71473963331E+03  0.77405967523E+02 0.  0.
          5    1    3    3  501    0 -0.28261724677E+03 -0.42294382133E+03 -0.30742457106E+03  0.59437861761E+03  0.47000000000E+01 0. -1.
        -13    1    4    4    0    0 -0.88518624287E+02 -0.98965184023E+02 -0.41665334815E+02  0.13916053542E+03  0.00000000000E+00 0.  1.
         14    1    4    4    0    0 -0.74870285796E+02 -0.45603862896E+02 -0.99660432840E+02  0.13273083244E+03  0.00000000000E+00 0. -1.
         -5    1    5    5    0  502 -0.71100019723E+01  0.20217797682E+02  0.16196304938E+02  0.27271262618E+02  0.47000000000E+01 0.  1.
         13    1    6    6    0    0  0.17170775604E+03  0.15085127595E+03 -0.20636906446E+01  0.22856928875E+03  0.00000000000E+00 0. -1.
        -14    1    6    6    0    0  0.28140840279E+03  0.39644379462E+03 -0.17979092829E+01  0.48617034456E+03  0.00000000000E+00 0.  1.
</event>
<event>
12    1  0.8358445E-002  0.1793918E+03  0.7818608E-02  0.1168584E+00
         21   -1    0    0  503  502  0.00000000000E+00  0.00000000000E+00  0.15086969995E+04  0.15086969995E+04  0.00000000000E+00 0.  1.
         21   -1    0    0  501  503 -0.00000000000E+00 -0.00000000000E+00 -0.30245938584E+02  0.30245938584E+02  0.00000000000E+00 0. -1.
          6    2    1    2  501    0 -0.16928799285E+02 -0.46548204768E+02  0.32042642860E+03  0.36722542935E+03  0.17241838710E+03 0.  0.
         24    2    3    3    0    0 -0.52144320266E+02  0.16721344453E+02  0.24018778231E+03  0.25904271754E+03  0.80089482742E+02 0.  0.
         -6    2    1    2    0  502  0.16928799285E+02  0.46548204768E+02  0.11580246323E+04  0.11717175087E+04  0.17160288924E+03 0.  0.
        -24    2    5    5    0    0  0.40377634086E+02 -0.19376025677E+02  0.88569216034E+03  0.89050065769E+03  0.80839561838E+02 0.  0.
          5    1    3    3  501    0  0.35215520981E+02 -0.63269549221E+02  0.80238646289E+02  0.10818271181E+03  0.47000000000E+01 0. -1.
        -11    1    4    4    0    0  0.17098171113E+02 -0.12367970468E+02  0.67712345771E+02  0.70924438093E+02  0.00000000000E+00 0.  1.
         12    1    4    4    0    0 -0.69242491379E+02  0.29089314921E+02  0.17247543654E+03  0.18811827945E+03  0.00000000000E+00 0. -1.
         -5    1    5    5    0  502 -0.23448834801E+02  0.65924230445E+02  0.27233247199E+03  0.28121685105E+03  0.47000000000E+01 0.  1.
         11    1    6    6    0    0 -0.11631836481E+02  0.73593082916E+01  0.32342664560E+02  0.35149779364E+02  0.00000000000E+00 0. -1.
        -12    1    6    6    0    0  0.52009470567E+02 -0.26735333969E+02  0.85334949578E+03  0.85535087832E+03  0.00000000000E+00 0.  1.
</event>
<event>
12    1  0.8358445E-002  0.1761223E+03  0.7818608E-02  0.1171995E+00
         21   -1    0    0  503  502  0.00000000000E+00  0.00000000000E+00  0.66102554298E+02  0.66102554298E+02  0.00000000000E+00 0. -1.
         21   -1    0    0  501  503 -0.00000000000E+00 -0.00000000000E+00 -0.62384680766E+03  0.62384680766E+03  0.00000000000E+00 0. -1.
          6    2    1    2  501    0 -0.21546975961E+02 -0.22780510813E+02 -0.45377441185E+03  0.48675486288E+03  0.17330855676E+03 0.  0.
         24    2    3    3    0    0 -0.22303775348E+02 -0.44918273120E+02 -0.11096029169E+03  0.14319371222E+03  0.75346819659E+02 0.  0.
         -6    2    1    2    0  502  0.21546975961E+02  0.22780510813E+02 -0.10396984151E+03  0.20319449908E+03  0.17174123752E+03 0.  0.
        -24    2    5    5    0    0 -0.27358345254E+02 -0.36116045550E+02 -0.25419225439E+02  0.93409144496E+02  0.77629140484E+02 0.  0.
          5    1    3    3  501    0  0.75679938726E+00  0.22137762307E+02 -0.34281412016E+03  0.34356115066E+03  0.47000000000E+01 0. -1.
        -11    1    4    4    0    0 -0.19120702978E+02 -0.23081571530E+02 -0.11662159833E+03  0.12041161665E+03  0.00000000000E+00 0.  1.
         12    1    4    4    0    0 -0.31830723706E+01 -0.21836701590E+02  0.56613066352E+01  0.22782095577E+02  0.00000000000E+00 0. -1.
         -5    1    5    5    0  502  0.48905321215E+02  0.58896556363E+02 -0.78550616075E+02  0.10978535458E+03  0.47000000000E+01 0.  1.
         13    1    6    6    0    0 -0.51294833325E+02 -0.17777331493E+02 -0.49903443756E+00  0.54290353436E+02  0.00000000000E+00 0. -1.
        -14    1    6    6    0    0  0.23936488071E+02 -0.18338714056E+02 -0.24920191002E+02  0.39118791060E+02  0.00000000000E+00 0.  1.
</event>
<event>
12    1  0.8358445E-002  0.2179828E+03  0.7818608E-02  0.1135529E+00
         21   -1    0    0  503  502  0.00000000000E+00  0.00000000000E+00  0.46821440103E+03  0.46821440103E+03  0.00000000000E+00 0. -1.
         21   -1    0    0  501  503 -0.00000000000E+00 -0.00000000000E+00 -0.10161956322E+03  0.10161956322E+03  0.00000000000E+00 0. -1.
          6    2    1    2  501    0 -0.52521157432E+02 -0.12340583356E+03  0.16377221815E+03  0.27208653820E+03  0.17094523420E+03 0.  0.
         24    2    3    3    0    0 -0.39264822728E+02 -0.85560055790E+02  0.18756876522E+03  0.22522078356E+03  0.81731941206E+02 0.  0.
         -6    2    1    2    0  502  0.52521157432E+02  0.12340583356E+03  0.20282261966E+03  0.29774742606E+03  0.17184016685E+03 0.  0.
        -24    2    5    5    0    0  0.94894072334E+02  0.12452570385E+03  0.17537127844E+03  0.24702874940E+03  0.75872141431E+02 0.  0.
          5    1    3    3  501    0 -0.13256334704E+02 -0.37845777771E+02 -0.23796547070E+02  0.46865754633E+02  0.47000000000E+01 0. -1.
        -13    1    4    4    0    0 -0.62741483634E+01  0.14662784580E+02  0.10487749565E+02  0.19088087392E+02  0.00000000000E+00 0.  1.
         14    1    4    4    0    0 -0.32990674365E+02 -0.10022284037E+03  0.17708101565E+03  0.20613269617E+03  0.00000000000E+00 0. -1.
         -5    1    5    5    0  502 -0.42372914901E+02 -0.11198702944E+01  0.27451341222E+02  0.50718676655E+02  0.47000000000E+01 0.  1.
         11    1    6    6    0    0 -0.78473094298E+01  0.28801974054E+02  0.13575847069E+02  0.32793865254E+02  0.00000000000E+00 0. -1.
        -12    1    6    6    0    0  0.10274138176E+03  0.95723729801E+02  0.16179543137E+03  0.21423488415E+03  0.00000000000E+00 0.  1.
</event>
<event>
12    1  0.8358445E-002  0.2963013E+03  0.7818608E-02  0.1087127E+00
         21   -1    0    0  503  502  0.00000000000E+00  0.00000000000E+00  0.22233603652E+03  0.22233603652E+03  0.00000000000E+00 0. -1.
         21   -1    0    0  501  503 -0.00000000000E+00 -0.00000000000E+00 -0.50352055835E+03  0.50352055835E+03  0.00000000000E+00 0.  1.
          6    2    1    2  501    0  0.23923232448E+03 -0.27738221557E+02 -0.30940028729E+03  0.42839584929E+03  0.17260634954E+03 0.  0.
         24    2    3    3    0    0  0.14495760938E+03  0.21350860181E+02 -0.26514458351E+03  0.31316513651E+03  0.79386301125E+02 0.  0.
         -6    2    1    2    0  502 -0.23923232448E+03  0.27738221557E+02  0.28215765459E+02  0.29746074558E+03  0.17229408502E+03 0.  0.
        -24    2    5    5    0    0 -0.11067318938E+03  0.77063825345E+02 -0.84306510303E+00  0.15665246444E+03  0.79698781866E+02 0.  0.
          5    1    3    3  501    0  0.94274715093E+02 -0.49089081738E+02 -0.44255703772E+02  0.11523071278E+03  0.47000000000E+01 0. -1.
        -11    1    4    4    0    0  0.64131416980E+02 -0.25457631164E+02 -0.14838911411E+03  0.16364675009E+03  0.00000000000E+00 0.  1.
         12    1    4    4    0    0  0.80826192404E+02  0.46808491345E+02 -0.11675546940E+03  0.14951838641E+03  0.00000000000E+00 0. -1.
         -5    1    5    5    0  502 -0.12855913510E+03 -0.49325603788E+02  0.29058830562E+02  0.14080828115E+03  0.47000000000E+01 0.  1.
         11    1    6    6    0    0 -0.43152646877E+02  0.73548700544E+02 -0.17427779845E+02  0.87036140738E+02  0.00000000000E+00 0. -1.
        -12    1    6    6    0    0 -0.67520542503E+02  0.35151248014E+01  0.16584714742E+02  0.69616323698E+02  0.00000000000E+00 0.  1.
</event>
<event>
12    1  0.8358445E-002  0.2027808E+03  0.7818608E-02  0.1147623E+00
         21   -1    0    0  501  502  0.00000000000E+00  0.00000000000E+00  0.34993072207E+03  0.34993072207E+03  0.00000000000E+00 0.  1.
         21   -1    0    0  502  503 -0.00000000000E+00 -0.00000000000E+00 -0.26828456909E+03  0.26828456909E+03  0.00000000000E+00 0.  1.
         -6    2    1    2    0  503 -0.82571345192E+02  0.73974838351E+02 -0.19130686908E+03  0.27878015369E+03  0.16979326306E+03 0.  0.
        -24    2    3    3    0    0  0.13094683725E+01  0.21272096679E+02 -0.24322168533E+02  0.84564937810E+02  0.78137340755E+02 0.  0.
          6    2    1    2  501    0  0.82571345192E+02 -0.73974838351E+02  0.27295302205E+03  0.33943513747E+03  0.16858990641E+03 0.  0.
         24    2    5    5    0    0  0.94630069709E+01  0.19168421075E+02  0.10005709055E+03  0.12982695770E+03  0.79916460816E+02 0.  0.
          5    1    5    5  501    0  0.73108338221E+02 -0.93143259425E+02  0.17289593150E+03  0.20960817977E+03  0.47000000000E+01 0. -1.
        -11    1    6    6    0    0  0.67851695668E+01 -0.20592645866E+02  0.84183490853E+02  0.86930752453E+02  0.00000000000E+00 0.  1.
         12    1    6    6    0    0  0.26778374042E+01  0.39761066941E+02  0.15873599697E+02  0.42896205249E+02  0.00000000000E+00 0. -1.
         -5    1    3    3    0  503 -0.83880813565E+02  0.52702741672E+02 -0.16698470054E+03  0.19421521588E+03  0.47000000000E+01 0.  1.
         11    1    4    4    0    0 -0.18912891247E+02 -0.23927535833E+02 -0.29818441464E+01  0.30644996669E+02  0.00000000000E+00 0. -1.
        -12    1    4    4    0    0  0.20222359620E+02  0.45199632511E+02 -0.21340324386E+02  0.53919941141E+02  0.00000000000E+00 0.  1.
</event>
<event>
12    1  0.8358445E-002  0.2760661E+03  0.7818608E-02  0.1098134E+00
         21   -1    0    0  503  502  0.00000000000E+00  0.00000000000E+00  0.65029045750E+03  0.65029045750E+03  0.00000000000E+00 0. -1.
         21   -1    0    0  501  503 -0.00000000000E+00 -0.00000000000E+00 -0.14838083571E+03  0.14838083571E+03  0.00000000000E+00 0.  1.
          6    2    1    2  501    0  0.54163386820E+02 -0.20676403137E+03  0.66145120700E+02  0.28387971161E+03  0.17472113933E+03 0.  0.
         24    2    3    3    0    0 -0.28125252694E+02 -0.72739691675E+02 -0.14069183108E+02  0.10727176060E+03  0.72299350785E+02 0.  0.
         -6    2    1    2    0  502 -0.54163386820E+02  0.20676403137E+03  0.43576450109E+03  0.51479158161E+03  0.17156524980E+03 0.  0.
        -24    2    5    5    0    0 -0.10004947232E+03  0.12328759780E+03  0.30900185570E+03  0.35615770732E+03  0.78462965606E+02 0.  0.
          5    1    3    3  501    0  0.82288639514E+02 -0.13402433970E+03  0.80214303808E+02  0.17660795101E+03  0.47000000000E+01 0. -1.
        -13    1    4    4    0    0 -0.34790206914E+02 -0.84232036918E+02 -0.51680965444E+01  0.91280358031E+02  0.00000000000E+00 0.  1.
         14    1    4    4    0    0  0.66649542203E+01  0.11492345243E+02 -0.89010865634E+01  0.15991402564E+02  0.00000000000E+00 0. -1.
         -5    1    5    5    0  502  0.45886085504E+02  0.83476433575E+02  0.12676264539E+03  0.15863387429E+03  0.47000000000E+01 0.  1.
         11    1    6    6    0    0 -0.70085478324E+02  0.25846118173E+02  0.14348361680E+03  0.16176385377E+03  0.00000000000E+00 0. -1.
        -12    1    6    6    0    0 -0.29963994000E+02  0.97441479626E+02  0.16551823890E+03  0.19439385355E+03  0.00000000000E+00 0.  1.
</event>
<event>
12    1  0.8358445E-002  0.1823548E+03  0.7818608E-02  0.1165721E+00
         21   -1    0    0  501  502  0.00000000000E+00  0.00000000000E+00  0.94224207338E+02  0.94224207338E+02  0.00000000000E+00 0. -1.
         21   -1    0    0  502  503 -0.00000000000E+00 -0.00000000000E+00 -0.36329912036E+03  0.36329912036E+03  0.00000000000E+00 0. -1.
         -6    2    1    2    0  503  0.37217277599E+02 -0.43053622411E+02 -0.17607566243E+03  0.25348746279E+03  0.17324697612E+03 0.  0.
        -24    2    3    3    0    0 -0.42101543904E+02 -0.65431444551E+01 -0.10163513100E+03  0.13864856187E+03  0.84133056022E+02 0.  0.
          6    2    1    2  501    0 -0.37217277599E+02  0.43053622411E+02 -0.92999250591E+02  0.20403586491E+03  0.17246168677E+03 0.  0.
         24    2    5    5    0    0  0.12341758851E+02  0.46562057653E+02  0.57103579492E+01  0.93428071197E+02  0.79848932837E+02 0.  0.
          5    1    5    5  501    0 -0.49559036451E+02 -0.35084352415E+01 -0.98709608540E+02  0.11060779371E+03  0.47000000000E+01 0. -1.
        -13    1    6    6    0    0  0.21081741456E+02  0.59002314902E+02 -0.18064505448E+02  0.65207663228E+02  0.00000000000E+00 0.  1.
         14    1    6    6    0    0 -0.87399826045E+01 -0.12440257249E+02  0.23774863397E+02  0.28220407968E+02  0.00000000000E+00 0. -1.
         -5    1    3    3    0  503  0.79318821504E+02 -0.36510477956E+02 -0.74440531426E+02  0.11483890092E+03  0.47000000000E+01 0.  1.
         11    1    4    4    0    0  0.22427941077E+02 -0.15777657638E+02 -0.42833958063E+02  0.50859561391E+02  0.00000000000E+00 0. -1.
        -12    1    4    4    0    0 -0.64529484981E+02  0.92345131831E+01 -0.58801172938E+02  0.87789000476E+02  0.00000000000E+00 0.  1.
</event>
<event>
12    1  0.8358445E-002  0.1961625E+03  0.7818608E-02  0.1153184E+00
         21   -1    0    0  501  502  0.00000000000E+00  0.00000000000E+00  0.48701287912E+03  0.48701287912E+03  0.00000000000E+00 0. -1.
         21   -1    0    0  502  503 -0.00000000000E+00 -0.00000000000E+00 -0.92627321628E+02  0.92627321628E+02  0.00000000000E+00 0. -1.
         -6    2    1    2    0  503  0.79355099898E+02 -0.52115351723E+02  0.85154737687E+02  0.21384824463E+03  0.17165809219E+03 0.  0.
        -24    2    3    3    0    0  0.38234182821E+02  0.40400255408E+01  0.10225009043E+03  0.14202417274E+03  0.90761280880E+02 0.  0.
          6    2    1    2  501    0 -0.79355099898E+02  0.52115351723E+02  0.30923081981E+03  0.36579195612E+03  0.17078294259E+03 0.  0.
         24    2    5    5    0    0  0.12875126381E+02  0.47045578442E+02  0.10098146594E+03  0.13792796022E+03  0.80298259122E+02 0.  0.
          5    1    5    5  501    0 -0.92230226278E+02  0.50697732812E+01  0.20824935387E+03  0.22786399590E+03  0.47000000000E+01 0. -1.
        -13    1    6    6    0    0  0.19344895653E+02  0.66339826474E+01 -0.76562892519E+01  0.21836975035E+02  0.00000000000E+00 0.  1.
         14    1    6    6    0    0 -0.64697692720E+01  0.40411595795E+02  0.10863775519E+03  0.11609098519E+03  0.00000000000E+00 0. -1.
         -5    1    3    3    0  503  0.41120917077E+02 -0.56155377264E+02 -0.17095352744E+02  0.71824071887E+02  0.47000000000E+01 0.  1.
         13    1    4    4    0    0  0.19615537044E+02 -0.79997178485E+01 -0.12870796091E+02  0.24787540645E+02  0.00000000000E+00 0. -1.
        -14    1    4    4    0    0  0.18618645776E+02  0.12039743389E+02  0.11512088652E+03  0.11723663210E+03  0.00000000000E+00 0.  1.
</event>
<event>
12    1  0.8358445E-002  0.3662438E+03  0.7818608E-02  0.1056228E+00
         21   -1    0    0  501  502  0.00000000000E+00  0.00000000000E+00  0.73998115555E+02  0.73998115555E+02  0.00000000000E+00 0.  1.
         21   -1    0    0  502  503 -0.00000000000E+00 -0.00000000000E+00 -0.18195465230E+04  0.18195465230E+04  0.00000000000E+00 0. -1.
         -6    2    1    2    0  503 -0.13494020441E+03  0.29380348059E+03 -0.94899695464E+03  0.10172166799E+04  0.17206164570E+03 0.  0.
        -24    2    3    3    0    0 -0.71168129956E+02  0.24871962805E+03 -0.84743597751E+03  0.88901311785E+03  0.72596360999E+02 0.  0.
          6    2    1    2  501    0  0.13494020441E+03 -0.29380348059E+03 -0.79655145280E+03  0.87632795867E+03  0.17007977605E+03 0.  0.
         24    2    5    5    0    0  0.62522336910E+02 -0.23275061489E+03 -0.68103414692E+03  0.72686847286E+03  0.80301782125E+02 0.  0.
          5    1    5    5  501    0  0.72417867500E+02 -0.61052865709E+02 -0.11551730587E+03  0.14945948582E+03  0.47000000000E+01 0. -1.
        -11    1    6    6    0    0  0.38006312310E+02 -0.26524120744E+02 -0.12292543498E+03  0.13137226237E+03  0.00000000000E+00 0.  1.
         12    1    6    6    0    0  0.24516024600E+02 -0.20622649414E+03 -0.55810871195E+03  0.59549621048E+03  0.00000000000E+00 0. -1.
         -5    1    3    3    0  503 -0.63772074453E+02  0.45083852543E+02 -0.10156097713E+03  0.12820356202E+03  0.47000000000E+01 0.  1.
         13    1    4    4    0    0 -0.73914297970E+01  0.54511059581E+02 -0.10002966365E+03  0.11415788392E+03  0.00000000000E+00 0. -1.
        -14    1    4    4    0    0 -0.63776700159E+02  0.19420856847E+03 -0.74740631386E+03  0.77485523393E+03  0.00000000000E+00 0.  1.
</event>
<event>
12    1  0.8358445E-002  0.2138115E+03  0.7818608E-02  0.1138701E+00
         21   -1    0    0  501  502  0.00000000000E+00  0.00000000000E+00  0.14111078858E+03  0.14111078858E+03  0.00000000000E+00 0. -1.
         21   -1    0    0  502  503 -0.00000000000E+00 -0.00000000000E+00 -0.34574984562E+03  0.34574984562E+03  0.00000000000E+00 0. -1.
         -6    2    1    2    0  503  0.90250164212E+02 -0.88511433359E+02 -0.39805405300E+02  0.21688750991E+03  0.17168679532E+03 0.  0.
        -24    2    3    3    0    0 -0.21581209991E+02 -0.34291143553E+02  0.67231467751E+01  0.84097855790E+02  0.73386766484E+02 0.  0.
          6    2    1    2  501    0 -0.90250164212E+02  0.88511433359E+02 -0.16483365174E+03  0.26997312429E+03  0.17244126281E+03 0.  0.
         24    2    5    5    0    0 -0.56612618655E+02 -0.18942990187E+02 -0.67507213583E+02  0.12106891624E+03  0.80849447282E+02 0.  0.
          5    1    5    5  501    0 -0.33637545557E+02  0.10745442355E+03 -0.97326438154E+02  0.14890420805E+03  0.47000000000E+01 0. -1.
        -11    1    6    6    0    0 -0.73952067707E+02 -0.79303849757E+01 -0.34028188921E+02  0.81790689966E+02  0.00000000000E+00 0.  1.
         12    1    6    6    0    0  0.17339449051E+02 -0.11012605212E+02 -0.33479024663E+02  0.39278226275E+02  0.00000000000E+00 0. -1.
         -5    1    3    3    0  503  0.11183137420E+03 -0.54220289806E+02 -0.46528552075E+02  0.13278965412E+03  0.47000000000E+01 0.  1.
         13    1    4    4    0    0 -0.96846019178E+01 -0.45704458829E+02  0.30038416591E+02  0.55542736181E+02  0.00000000000E+00 0. -1.
        -14    1    4    4    0    0 -0.11896608074E+02  0.11413315277E+02 -0.23315269816E+02  0.28555119609E+02  0.00000000000E+00 0.  1.
</event>
<event>
12    1  0.8358445E-002  0.2348381E+03  0.7818608E-02  0.1123523E+00
         21   -1    0    0  503  502  0.00000000000E+00  0.00000000000E+00  0.19598445891E+03  0.19598445891E+03  0.00000000000E+00 0.  1.
         21   -1    0    0  501  503 -0.00000000000E+00 -0.00000000000E+00 -0.40363706128E+03  0.40363706128E+03  0.00000000000E+00 0. -1.
          6    2    1    2  501    0 -0.10970844696E+03 -0.11457380547E+03 -0.27017129820E+03  0.35796851627E+03  0.17316416500E+03 0.  0.
         24    2    3    3    0    0 -0.62420849221E+02  0.42820008112E+01 -0.15806266997E+03  0.18781195863E+03  0.79842508835E+02 0.  0.
         -6    2    1    2    0  502  0.10970844696E+03  0.11457380547E+03  0.62518695831E+02  0.24165300391E+03  0.17124393927E+03 0.  0.
        -24    2    5    5    0    0  0.66483979157E+00  0.87084071715E+02  0.47575137892E+02  0.12811184992E+03  0.81025766183E+02 0.  0.
          5    1    3    3  501    0 -0.47287597742E+02 -0.11885580628E+03 -0.11210862822E+03  0.17015655764E+03  0.47000000000E+01 0. -1.
        -11    1    4    4    0    0 -0.51568334725E+02  0.26396416490E+01 -0.30897656521E+02  0.60174130927E+02  0.00000000000E+00 0.  1.
         12    1    4    4    0    0 -0.10852514496E+02  0.16423591622E+01 -0.12716501345E+03  0.12763782770E+03  0.00000000000E+00 0. -1.
         -5    1    5    5    0  502  0.10904360717E+03  0.27489733755E+02  0.14943557939E+02  0.11354115400E+03  0.47000000000E+01 0.  1.
         11    1    6    6    0    0 -0.74233534279E+01 -0.12793476861E+02 -0.41257386110E+01  0.15355811453E+02  0.00000000000E+00 0. -1.
        -12    1    6    6    0    0  0.80881932195E+01  0.99877548575E+02  0.51700876503E+02  0.11275603846E+03  0.00000000000E+00 0.  1.
</event>
<event>
12    1  0.8358445E-002  0.2175343E+03  0.7818608E-02  0.1135785E+00
         21   -1    0    0  501  502  0.00000000000E+00  0.00000000000E+00  0.15938006990E+03  0.15938006990E+03  0.00000000000E+00 0. -1.
         21   -1    0    0  502  503 -0.00000000000E+00 -0.00000000000E+00 -0.44626465281E+03  0.44626465281E+03  0.00000000000E+00 0.  1.
         -6    2    1    2    0  503 -0.25530842009E+02  0.13363686958E+03 -0.31890213131E+03  0.38603073502E+03  0.16973662605E+03 0.  0.
        -24    2    3    3    0    0 -0.48146263797E+01  0.16276794569E+03 -0.26152464824E+03  0.31826609271E+03  0.79884788024E+02 0.  0.
          6    2    1    2  501    0  0.25530842009E+02 -0.13363686958E+03  0.32017548399E+02  0.21961398768E+03  0.16939463798E+03 0.  0.
         24    2    5    5    0    0  0.38563332128E+02 -0.10089532939E+03 -0.39603515323E+02  0.13965449155E+03  0.79170325925E+02 0.  0.
          5    1    5    5  501    0 -0.13032490119E+02 -0.32741540190E+02  0.71621063721E+02  0.79959496129E+02  0.47000000000E+01 0. -1.
        -13    1    6    6    0    0  0.82206478069E+01  0.70177761633E+01  0.12085261355E+02  0.16213629287E+02  0.00000000000E+00 0.  1.
         14    1    6    6    0    0  0.30342684321E+02 -0.10791310556E+03 -0.51688776678E+02  0.12344086227E+03  0.00000000000E+00 0. -1.
         -5    1    3    3    0  503 -0.20716215629E+02 -0.29131076104E+02 -0.57377483066E+02  0.67764642314E+02  0.47000000000E+01 0.  1.
         13    1    4    4    0    0  0.23388148879E+01  0.34273583902E+02 -0.10080575118E+02  0.35801768159E+02  0.00000000000E+00 0. -1.
        -14    1    4    4    0    0 -0.71534412676E+01  0.12849436178E+03 -0.25144407312E+03  0.28246432455E+03  0.00000000000E+00 0.  1.
</event>
<event>
12    1  0.8358445E-002  0.2137476E+03  0.7818608E-02  0.1138796E+00
         21   -1    0    0  501  502  0.00000000000E+00  0.00000000000E+00  0.32126181293E+03  0.32126181293E+03  0.00000000000E+00 0. -1.
         21   -1    0    0  502  503 -0.00000000000E+00 -0.00000000000E+00 -0.28604278233E+03  0.28604278233E+03  0.00000000000E+00 0. -1.
         -6    2    1    2    0  503 -0.12662019747E+03  0.91774304947E+01 -0.19811165568E+03  0.29143827296E+03  0.17196260987E+03 0.  0.
        -24    2    3    3    0    0 -0.15195509525E+03 -0.22829711808E+02 -0.15807355132E+03  0.23406707806E+03  0.78667672450E+02 0.  0.
          6    2    1    2  501    0  0.12662019747E+03 -0.91774304947E+01  0.23333068627E+03  0.31586632230E+03  0.17091350084E+03 0.  0.
         24    2    5    5    0    0  0.28254529314E+02  0.49295146686E+02  0.11283223865E+03  0.14962308835E+03  0.80172467694E+02 0.  0.
          5    1    5    5  501    0  0.98365668158E+02 -0.58472577181E+02  0.12049844763E+03  0.16624323395E+03  0.47000000000E+01 0. -1.
        -13    1    6    6    0    0 -0.12322986101E+02  0.39476750358E+01 -0.73729227793E+01  0.14892955212E+02  0.00000000000E+00 0.  1.
         14    1    6    6    0    0  0.40577515414E+02  0.45347471650E+02  0.12020516143E+03  0.13473013314E+03  0.00000000000E+00 0. -1.
         -5    1    3    3    0  503  0.25334897783E+02  0.32007142303E+02 -0.40038104359E+02  0.57371194904E+02  0.47000000000E+01 0.  1.
         11    1    4    4    0    0 -0.56408677278E+02  0.29398246401E+02 -0.53969526109E+02  0.83420054616E+02  0.00000000000E+00 0. -1.
        -12    1    4    4    0    0 -0.95546417977E+02 -0.52227958209E+02 -0.10410402521E+03  0.15064702344E+03  0.00000000000E+00 0.  1.
</event>
<event>
12    1  0.8358445E-002  0.2485065E+03  0.7818608E-02  0.1114387E+00
         21   -1    0    0  503  502  0.00000000000E+00  0.00000000000E+00  0.74238039771E+03  0.74238039771E+03  0.00000000000E+00 0. -1.
         21   -1    0    0  501  503 -0.00000000000E+00 -0.00000000000E+00 -0.11362519397E+04  0.11362519397E+04  0.00000000000E+00 0. -1.
          6    2    1    2  501    0 -0.11072487688E+03 -0.14017563723E+03 -0.11013599312E+04  0.11290479111E+04  0.17276075941E+03 0.  0.
         24    2    3    3    0    0 -0.75652174437E+02 -0.32192745562E+02 -0.77743216228E+03  0.78576713856E+03  0.79180835670E+02 0.  0.
         -6    2    1    2    0  502  0.11072487688E+03  0.14017563723E+03  0.70748838918E+03  0.74958442629E+03  0.17154528170E+03 0.  0.
        -24    2    5    5    0    0  0.12036419640E+03  0.72755743038E+02  0.34824921590E+03  0.38391622664E+03  0.79581497739E+02 0.  0.
          5    1    3    3  501    0 -0.35072702441E+02 -0.10798289167E+03 -0.32392776888E+03  0.34328077255E+03  0.47000000000E+01 0. -1.
        -11    1    4    4    0    0 -0.58085653265E+02  0.18087374137E+02 -0.42594208779E+03  0.43026475381E+03  0.00000000000E+00 0.  1.
         12    1    4    4    0    0 -0.17566521172E+02 -0.50280119699E+02 -0.35149007449E+03  0.35550238475E+03  0.00000000000E+00 0. -1.
         -5    1    5    5    0  502 -0.96393195222E+01  0.67419894193E+02  0.35923917328E+03  0.36566819965E+03  0.47000000000E+01 0.  1.
         13    1    6    6    0    0  0.71696882807E+02 -0.25144884529E+01  0.14481843885E+03  0.16161418839E+03  0.00000000000E+00 0. -1.
        -14    1    6    6    0    0  0.48667313593E+02  0.75270231491E+02  0.20343077705E+03  0.22230203825E+03  0.00000000000E+00 0.  1.
</event>
<event>
12    1  0.8358445E-002  0.2051421E+03  0.7818608E-02  0.1145701E+00
         21   -1    0    0  501  502  0.00000000000E+00  0.00000000000E+00  0.34830927028E+03  0.34830927028E+03  0.00000000000E+00 0. -1.
         21   -1    0    0  502  503 -0.00000000000E+00 -0.00000000000E+00 -0.14202941485E+03  0.14202941485E+03  0.00000000000E+00 0. -1.
         -6    2    1    2    0  503  0.10152786713E+03 -0.39829992489E+02  0.67061746310E+01  0.20413433176E+03  0.17242829385E+03 0.  0.
        -24    2    3    3    0    0  0.60943217796E+02 -0.56626279368E+02  0.62429958456E+02  0.13302554821E+03  0.82931812075E+02 0.  0.
          6    2    1    2  501    0 -0.10152786713E+03  0.39829992489E+02  0.19957368080E+03  0.28620435336E+03  0.17374965240E+03 0.  0.
         24    2    5    5    0    0 -0.20485071007E+02 -0.24373882541E+02  0.39714995709E+02  0.95765487656E+02  0.81117343753E+02 0.  0.
          5    1    5    5  501    0 -0.81042796122E+02  0.64203875030E+02  0.15985868509E+03  0.19043886571E+03  0.47000000000E+01 0. -1.
        -11    1    6    6    0    0 -0.58656903618E+01  0.20302390029E+02 -0.13254586123E+02  0.24945488922E+02  0.00000000000E+00 0.  1.
         12    1    6    6    0    0 -0.14619380645E+02 -0.44676272570E+02  0.52969581832E+02  0.70819998733E+02  0.00000000000E+00 0. -1.
         -5    1    3    3    0  503  0.40584649332E+02  0.16796286880E+02 -0.55723783825E+02  0.71108783551E+02  0.47000000000E+01 0.  1.
         11    1    4    4    0    0  0.58606318751E+02 -0.36336806827E+02  0.17266685684E+01  0.68978587346E+02  0.00000000000E+00 0. -1.
        -12    1    4    4    0    0  0.23368990456E+01 -0.20289472542E+02  0.60703289888E+02  0.64046960867E+02  0.00000000000E+00 0.  1.
</event>
<event>
12    1  0.8358445E-002  0.2981037E+03  0.7818608E-02  0.1086267E+00
         21   -1    0    0  503  502  0.00000000000E+00  0.00000000000E+00  0.38707829990E+03  0.38707829990E+03  0.00000000000E+00 0. -1.
         21   -1    0    0  501  503 -0.00000000000E+00 -0.00000000000E+00 -0.23075351473E+03  0.23075351473E+03  0.00000000000E+00 0.  1.
          6    2    1    2  501    0  0.24152314065E+03 -0.22662787811E+02  0.52148395152E+02  0.30204936071E+03  0.17224207317E+03 0.  0.
         24    2    3    3    0    0  0.22170793575E+03  0.20501675233E+02  0.71875311051E+01  0.23647968395E+03  0.79348931033E+02 0.  0.
         -6    2    1    2    0  502 -0.24152314065E+03  0.22662787811E+02  0.10417639002E+03  0.31578245391E+03  0.17325936782E+03 0.  0.
        -24    2    5    5    0    0 -0.23662735259E+03  0.62899003370E+02  0.95771729559E+02  0.27412131973E+03  0.77598228906E+02 0.  0.
          5    1    3    3  501    0  0.19815204904E+02 -0.43164463044E+02  0.44960864047E+02  0.65569676765E+02  0.47000000000E+01 0. -1.
        -11    1    4    4    0    0  0.18125997344E+02  0.25892216241E+02 -0.68609894985E+01  0.32342415162E+02  0.00000000000E+00 0.  1.
         12    1    4    4    0    0  0.20358193840E+03 -0.53905410077E+01  0.14048520604E+02  0.20413726879E+03  0.00000000000E+00 0. -1.
         -5    1    5    5    0  502 -0.48957880557E+01 -0.40236215560E+02  0.84046604602E+01  0.41661134175E+02  0.47000000000E+01 0.  1.
         13    1    6    6    0    0 -0.63885484404E+02  0.51764867465E+02  0.44976242834E+02  0.93722030712E+02  0.00000000000E+00 0. -1.
        -14    1    6    6    0    0 -0.17274186819E+03  0.11134135905E+02  0.50795486724E+02  0.18039928902E+03  0.00000000000E+00 0.  1.
</event>
<event>
12    1  0.8358445E-002  0.1840897E+03  0.7818608E-02  0.1164332E+00
         21   -1    0    0  503  502  0.00000000000E+00  0.00000000000E+00  0.79689665356E+03  0.79689665356E+03  0.00000000000E+00 0. -1.
         21   -1    0    0  501  503 -0.00000000000E+00 -0.00000000000E+00 -0.49047515238E+02  0.49047515238E+02  0.00000000000E+00 0. -1.
          6    2    1    2  501    0  0.65066530619E+02 -0.59992591923E+01  0.21322392650E+03  0.28051235948E+03  0.17015609443E+03 0.  0.
         24    2    3    3    0    0 -0.19957275224E+02  0.27118582629E+02  0.14152028580E+03  0.16436873677E+03  0.76520454625E+02 0.  0.
         -6    2    1    2    0  502 -0.65066530619E+02  0.59992591923E+01  0.53462521182E+03  0.56543180932E+03  0.17210278717E+03 0.  0.
        -24    2    5    5    0    0 -0.10287608209E+03 -0.28110044473E+01  0.48598545452E+03  0.50302108172E+03  0.79100926929E+02 0.  0.
          5    1    3    3  501    0  0.85023805842E+02 -0.33117841821E+02  0.71703640695E+02  0.11614362271E+03  0.47000000000E+01 0. -1.
        -11    1    4    4    0    0 -0.31210653663E+02  0.15404608171E+02  0.16894649451E+02  0.38688965288E+02  0.00000000000E+00 0.  1.
         12    1    4    4    0    0  0.11253378439E+02  0.11713974458E+02  0.12462563635E+03  0.12567977148E+03  0.00000000000E+00 0. -1.
         -5    1    5    5    0  502  0.37809551475E+02  0.88102636396E+01  0.48639757304E+02  0.62410727594E+02  0.47000000000E+01 0.  1.
         13    1    6    6    0    0 -0.84211564650E+01  0.28924211340E+02  0.11762649885E+03  0.12142289368E+03  0.00000000000E+00 0. -1.
        -14    1    6    6    0    0 -0.94454925629E+02 -0.31735215787E+02  0.36835895567E+03  0.38159818804E+03  0.00000000000E+00 0.  1.
</event>
<event>
12    1  0.8358445E-002  0.1991252E+03  0.7818608E-02  0.1152636E+00
         21   -1    0    0  501  502  0.00000000000E+00  0.00000000000E+00  0.49353358295E+03  0.49353358295E+03  0.00000000000E+00 0.  1.
         21   -1    0    0  502  503 -0.00000000000E+00 -0.00000000000E+00 -0.80709476859E+02  0.80709476859E+02  0.00000000000E+00 0.  1.
         -6    2    1    2    0  503 -0.74043410579E+02 -0.30850600495E+02  0.13510101546E+03  0.23251074012E+03  0.17139070480E+03 0.  0.
        -24    2    3    3    0    0 -0.86549912645E+01  0.39819961409E+02  0.10711686594E+03  0.13213556229E+03  0.65766599814E+02 0.  0.
          6    2    1    2  501    0  0.74043410579E+02  0.30850600495E+02  0.27772309063E+03  0.34173231969E+03  0.18225442944E+03 0.  0.
         24    2    5    5    0    0  0.59620662082E+02 -0.53017426360E+02  0.18881625883E+03  0.21857235727E+03  0.75873743275E+02 0.  0.
          5    1    5    5  501    0  0.14422748498E+02  0.83868026856E+02  0.88906831797E+02  0.12315996242E+03  0.47000000000E+01 0. -1.
        -11    1    6    6    0    0  0.70496775378E+02 -0.27918882091E+02  0.99107990715E+02  0.12478643011E+03  0.00000000000E+00 0.  1.
         12    1    6    6    0    0 -0.10876113297E+02 -0.25098544270E+02  0.89708268115E+02  0.93785927159E+02  0.00000000000E+00 0. -1.
         -5    1    3    3    0  503 -0.65388419315E+02 -0.70670561905E+02  0.27984149520E+02  0.10037517783E+03  0.47000000000E+01 0.  1.
         11    1    4    4    0    0  0.99798683360E+01  0.13470279835E+02 -0.33110092008E+01  0.17088270619E+02  0.00000000000E+00 0. -1.
        -12    1    4    4    0    0 -0.18634859601E+02  0.26349681575E+02  0.11042787514E+03  0.11504729167E+03  0.00000000000E+00 0.  1.
</event>
<event>
12    1  0.8358445E-002  0.1905148E+03  0.7818608E-02  0.1158352E+00
         21   -1    0    0  503  502  0.00000000000E+00  0.00000000000E+00  0.39423850603E+03  0.39423850603E+03  0.00000000000E+00 0.  1.
         21   -1    0    0  501  503 -0.00000000000E+00 -0.00000000000E+00 -0.14695685930E+03  0.14695685930E+03  0.00000000000E+00 0.  1.
          6    2    1    2  501    0 -0.23530155587E+02 -0.79910580632E+02 -0.42554948861E+02  0.19520965689E+03  0.17133743710E+03 0.  0.
         24    2    3    3    0    0  0.27299733569E+02 -0.10076933004E+03 -0.48326900279E+02  0.13976445438E+03  0.79365484231E+02 0.  0.
         -6    2    1    2    0  502  0.23530155587E+02  0.79910580632E+02  0.28983659560E+03  0.34598570843E+03  0.16959212593E+03 0.  0.
        -24    2    5    5    0    0  0.15313408214E+02  0.18923105818E+02  0.26647854360E+03  0.27999574242E+03  0.82427041492E+02 0.  0.
          5    1    3    3  501    0 -0.50829889156E+02  0.20858749410E+02  0.57719514182E+01  0.55445202513E+02  0.47000000000E+01 0. -1.
        -13    1    4    4    0    0  0.99686260215E+00 -0.94480524340E+02 -0.13154921525E+02  0.95397144480E+02  0.00000000000E+00 0.  1.
         14    1    4    4    0    0  0.26302870967E+02 -0.62888057021E+01 -0.35171978754E+02  0.44367309899E+02  0.00000000000E+00 0. -1.
         -5    1    5    5    0  502  0.82167473727E+01  0.60987474814E+02  0.23358051994E+02  0.65989966014E+02  0.47000000000E+01 0.  1.
         11    1    6    6    0    0  0.64688765801E+01 -0.48664244043E+01 -0.35054686261E+01  0.88213808998E+01  0.00000000000E+00 0. -1.
        -12    1    6    6    0    0  0.88445316340E+01  0.23789530222E+02  0.26998401223E+03  0.27117436152E+03  0.00000000000E+00 0.  1.
</event>
<event>
12    1  0.8358445E-002  0.1895566E+03  0.7818608E-02  0.1161541E+00
         21   -1    0    0  501  502  0.00000000000E+00  0.00000000000E+00  0.18642012792E+03  0.18642012792E+03  0.00000000000E+00 0. -1.
         21   -1    0    0  502  503 -0.00000000000E+00 -0.00000000000E+00 -0.24244891533E+03  0.24244891533E+03  0.00000000000E+00 0. -1.
         -6    2    1    2    0  503 -0.52391012719E+02  0.30385344035E+02 -0.13634170208E+03  0.23349684202E+03  0.17962078989E+03 0.  0.
        -24    2    3    3    0    0  0.14092913980E+02 -0.37603827209E+02 -0.41214082139E+02  0.98908603335E+02  0.80446586018E+02 0.  0.
          6    2    1    2  501    0  0.52391012719E+02 -0.30385344035E+02  0.80312914668E+02  0.19537220124E+03  0.16748744851E+03 0.  0.
         24    2    5    5    0    0 -0.30850607091E+02 -0.41102965926E+02  0.32336792398E+02  0.98584634910E+02  0.77666262508E+02 0.  0.
          5    1    5    5  501    0  0.83241619810E+02  0.10717621891E+02  0.47976122270E+02  0.96787566328E+02  0.47000000000E+01 0. -1.
        -11    1    6    6    0    0  0.22381150247E+02  0.34483049261E+01  0.14585381087E+02  0.26935850361E+02  0.00000000000E+00 0.  1.
         12    1    6    6    0    0 -0.53231757338E+02 -0.44551270852E+02  0.17751411311E+02  0.71648784549E+02  0.00000000000E+00 0. -1.
         -5    1    3    3    0  503 -0.66483926699E+02  0.67989171244E+02 -0.95127619941E+02  0.13458823868E+03  0.47000000000E+01 0.  1.
         11    1    4    4    0    0  0.24688247403E+02  0.16321539088E+02 -0.31279097839E+02  0.43061399881E+02  0.00000000000E+00 0. -1.
        -12    1    4    4    0    0 -0.10595333423E+02 -0.53925366298E+02 -0.99349842994E+01  0.55847203455E+02  0.00000000000E+00 0.  1.
</event>
<event>
12    1  0.8358445E-002  0.1857284E+03  0.7818608E-02  0.1164384E+00
         21   -1    0    0  503  502  0.00000000000E+00  0.00000000000E+00  0.26795650028E+03  0.26795650028E+03  0.00000000000E+00 0.  1.
         21   -1    0    0  501  503 -0.00000000000E+00 -0.00000000000E+00 -0.12369450022E+03  0.12369450022E+03  0.00000000000E+00 0. -1.
          6    2    1    2  501    0  0.65610629337E+02  0.16803565762E+02  0.58523017618E+02  0.19473050773E+03  0.17293904286E+03 0.  0.
         24    2    3    3    0    0  0.69537644897E+02 -0.15695217986E+02 -0.19048060647E+02  0.11040403158E+03  0.82124281728E+02 0.  0.
         -6    2    1    2    0  502 -0.65610629337E+02 -0.16803565762E+02  0.85738982438E+02  0.19692049277E+03  0.16382732635E+03 0.  0.
        -24    2    5    5    0    0 -0.26368977790E+02 -0.61007040493E+02  0.91188783717E+02  0.13737517617E+03  0.78354085874E+02 0.  0.
          5    1    3    3  501    0 -0.39270155604E+01  0.32498783748E+02  0.77571078265E+02  0.84326476148E+02  0.47000000000E+01 0. -1.
        -11    1    4    4    0    0  0.16440964862E+02  0.26184721802E+01  0.30991687001E+02  0.35180198768E+02  0.00000000000E+00 0.  1.
         12    1    4    4    0    0  0.53096680035E+02 -0.18313690167E+02 -0.50039747648E+02  0.75223832813E+02  0.00000000000E+00 0. -1.
         -5    1    5    5    0  502 -0.39241651547E+02  0.44203474731E+02 -0.54498012789E+01  0.59545316595E+02  0.47000000000E+01 0.  1.
         11    1    6    6    0    0 -0.16877263599E+02  0.39693414272E+00 -0.92661207204E+01  0.19257740690E+02  0.00000000000E+00 0. -1.
        -12    1    6    6    0    0 -0.94917141915E+01 -0.61403974636E+02  0.10045490444E+03  0.11811743548E+03  0.00000000000E+00 0.  1.
</event>
<event>
12    1  0.8358445E-002  0.2693819E+03  0.7818608E-02  0.1101850E+00
         21   -1    0    0  501  502  0.00000000000E+00  0.00000000000E+00  0.57148435783E+03  0.57148435783E+03  0.00000000000E+00 0. -1.
         21   -1    0    0  502  503 -0.00000000000E+00 -0.00000000000E+00 -0.14809895444E+03  0.14809895444E+03  0.00000000000E+00 0. -1.
         -6    2    1    2    0  503 -0.19405118329E+03 -0.74442914200E+02  0.74077058414E+02  0.27938149485E+03  0.17137385994E+03 0.  0.
        -24    2    3    3    0    0 -0.13505385909E+03 -0.11556033059E+03  0.34624511934E+02  0.19722360042E+03  0.78131663723E+02 0.  0.
          6    2    1    2  501    0  0.19405118329E+03  0.74442914200E+02  0.34930834498E+03  0.44020181742E+03  0.16900802044E+03 0.  0.
         24    2    5    5    0    0  0.94475862863E+02 -0.11575176300E+01  0.96204408872E+02  0.15786449752E+03  0.82090698505E+02 0.  0.
          5    1    5    5  501    0  0.99575320427E+02  0.75600431830E+02  0.25310393611E+03  0.28233731989E+03  0.47000000000E+01 0. -1.
        -11    1    6    6    0    0  0.12885916465E+01 -0.19547652065E+02 -0.37842319229E+01  0.19952232480E+02  0.00000000000E+00 0.  1.
         12    1    6    6    0    0  0.93187271216E+02  0.18390134435E+02  0.99988640794E+02  0.13791226504E+03  0.00000000000E+00 0. -1.
         -5    1    3    3    0  503 -0.58997324199E+02  0.41117416389E+02  0.39452546481E+02  0.82157894429E+02  0.47000000000E+01 0.  1.
         11    1    4    4    0    0 -0.14271577320E+03 -0.11337251279E+03  0.41232133660E+02  0.18687216867E+03  0.00000000000E+00 0. -1.
        -12    1    4    4    0    0  0.76619141089E+01 -0.21878178008E+01 -0.66076217265E+01  0.10351431757E+02  0.00000000000E+00 0.  1.
</event>
<event>
12    1  0.8358445E-002  0.2246184E+03  0.7818608E-02  0.1130492E+00
         21   -1    0    0  503  502  0.00000000000E+00  0.00000000000E+00  0.61858898995E+02  0.61858898995E+02  0.00000000000E+00 0. -1.
         21   -1    0    0  501  503 -0.00000000000E+00 -0.00000000000E+00 -0.12888112257E+04  0.12888112257E+04  0.00000000000E+00 0.  1.
          6    2    1    2  501    0 -0.21984432110E+01  0.14439796306E+03 -0.10227638988E+04  0.10471386743E+04  0.17204012763E+03 0.  0.
         24    2    3    3    0    0  0.29965268806E+02  0.14940133066E+03 -0.96854919472E+03  0.98372840538E+03  0.80095930206E+02 0.  0.
         -6    2    1    2    0  502  0.21984432110E+01 -0.14439796306E+03 -0.20418842790E+03  0.30353145045E+03  0.17199657681E+03 0.  0.
        -24    2    5    5    0    0 -0.57930831265E+02 -0.12112344882E+03 -0.11585584025E+03  0.19406927112E+03  0.78825346237E+02 0.  0.
          5    1    3    3  501    0 -0.32163712017E+02 -0.50033675990E+01 -0.54214704100E+02  0.63410268874E+02  0.47000000000E+01 0. -1.
        -13    1    4    4    0    0  0.53093202278E+01  0.12981700795E+03 -0.88418023851E+03  0.89367518630E+03  0.00000000000E+00 0.  1.
         14    1    4    4    0    0  0.24655948578E+02  0.19584322705E+02 -0.84368956204E+02  0.90053219082E+02  0.00000000000E+00 0. -1.
         -5    1    5    5    0  502  0.60129274476E+02 -0.23274514240E+02 -0.88332587650E+02  0.10946217933E+03  0.47000000000E+01 0.  1.
         11    1    6    6    0    0 -0.29636977996E+02 -0.95732454803E+02 -0.11940623750E+03  0.15588746878E+03  0.00000000000E+00 0. -1.
        -12    1    6    6    0    0 -0.28293853269E+02 -0.25390994015E+02  0.35503972486E+01  0.38181802347E+02  0.00000000000E+00 0.  1.
</event>
<event>
12    1  0.8358445E-002  0.1886840E+03  0.7818608E-02  0.1159717E+00
         21   -1    0    0  501  502  0.00000000000E+00  0.00000000000E+00  0.24190857646E+03  0.24190857646E+03  0.00000000000E+00 0.  1.
         21   -1    0    0  502  503 -0.00000000000E+00 -0.00000000000E+00 -0.24383268074E+03  0.24383268074E+03  0.00000000000E+00 0.  1.
         -6    2    1    2    0  503 -0.61490918949E+02 -0.47690235066E+02 -0.15405124573E+03  0.24336895663E+03  0.17158429737E+03 0.  0.
        -24    2    3    3    0    0 -0.86063021898E+02  0.16685974419E+02 -0.85459999997E+02  0.14602968612E+03  0.79598945654E+02 0.  0.
          6    2    1    2  501    0  0.61490918949E+02  0.47690235066E+02  0.15212714146E+03  0.24237230058E+03  0.17189000345E+03 0.  0.
         24    2    5    5    0    0  0.47894922075E+02 -0.36240473463E+02  0.10257370008E+03  0.14384896061E+03  0.81017677355E+02 0.  0.
          5    1    5    5  501    0  0.13595996875E+02  0.83930708529E+02  0.49553441378E+02  0.98523339964E+02  0.47000000000E+01 0. -1.
        -11    1    6    6    0    0  0.85514839134E+01  0.23743341765E+02  0.11016568801E+02  0.27536138862E+02  0.00000000000E+00 0.  1.
         12    1    6    6    0    0  0.39343438161E+02 -0.59983815228E+02  0.91557131278E+02  0.11631282175E+03  0.00000000000E+00 0. -1.
         -5    1    3    3    0  503  0.24572102949E+02 -0.64376209484E+02 -0.68591245733E+02  0.97339270504E+02  0.47000000000E+01 0.  1.
         11    1    4    4    0    0  0.75245996841E+01 -0.10944578735E+02  0.37656817363E+01  0.13805207823E+02  0.00000000000E+00 0. -1.
        -12    1    4    4    0    0 -0.93587621582E+02  0.27630553154E+02 -0.89225681733E+02  0.13222447830E+03  0.00000000000E+00 0.  1.
</event>
<event>
12    1  0.8358445E-002  0.1729209E+03  0.7818608E-02  0.1176168E+00
         21   -1    0    0  503  502  0.00000000000E+00  0.00000000000E+00  0.38720485840E+02  0.38720485840E+02  0.00000000000E+00 0. -1.
         21   -1    0    0  501  503 -0.00000000000E+00 -0.00000000000E+00 -0.89936834491E+03  0.89936834491E+03  0.00000000000E+00 0. -1.
          6    2    1    2  501    0  0.46374728338E+01  0.19477036095E+02 -0.62722516672E+03  0.65062512297E+03  0.17175791041E+03 0.  0.
         24    2    3    3    0    0  0.68837783511E+02  0.12732251880E+02 -0.43453416818E+03  0.44735416361E+03  0.80031579402E+02 0.  0.
         -6    2    1    2    0  502 -0.46374728338E+01 -0.19477036095E+02 -0.23342269235E+03  0.28746370778E+03  0.16657841665E+03 0.  0.
        -24    2    5    5    0    0 -0.34128579361E+02 -0.67841612554E+02 -0.16646956439E+03  0.19963621229E+03  0.79845206897E+02 0.  0.
          5    1    3    3  501    0 -0.64200310677E+02  0.67447842159E+01 -0.19269099854E+03  0.20327095937E+03  0.47000000000E+01 0. -1.
        -13    1    4    4    0    0  0.18980961815E+02 -0.28903770945E+02 -0.83769066606E+02  0.90625390517E+02  0.00000000000E+00 0.  1.
         14    1    4    4    0    0  0.49856821696E+02  0.41636022825E+02 -0.35076510158E+03  0.35672877309E+03  0.00000000000E+00 0. -1.
         -5    1    5    5    0  502  0.29491106528E+02  0.48364576459E+02 -0.66953127960E+02  0.87827495489E+02  0.47000000000E+01 0.  1.
         13    1    6    6    0    0 -0.39290343494E+01 -0.16557810469E+02  0.53197481063E+01  0.17829697652E+02  0.00000000000E+00 0. -1.
        -14    1    6    6    0    0 -0.30199545012E+02 -0.51283802085E+02 -0.17178931250E+03  0.18180651464E+03  0.00000000000E+00 0.  1.
</event>
<event>
12    1  0.8358445E-002  0.2177951E+03  0.7818608E-02  0.1135912E+00
         21   -1    0    0  501  502  0.00000000000E+00  0.00000000000E+00  0.92833406990E+03  0.92833406990E+03  0.00000000000E+00 0. -1.
         21   -1    0    0  502  503 -0.00000000000E+00 -0.00000000000E+00 -0.78150823051E+02  0.78150823051E+02  0.00000000000E+00 0. -1.
         -6    2    1    2    0  503 -0.31985416147E+02  0.12938991976E+03  0.12773626875E+03  0.25249015513E+03  0.17224954543E+03 0.  0.
        -24    2    3    3    0    0 -0.78515602865E+02  0.44476624410E+02  0.73394232761E+02  0.14135747371E+03  0.80326533343E+02 0.  0.
          6    2    1    2  501    0  0.31985416147E+02 -0.12938991976E+03  0.72244697810E+03  0.75399473782E+03  0.16974572253E+03 0.  0.
         24    2    5    5    0    0  0.24694141855E+02 -0.13811975145E+03  0.39581860043E+03  0.42713458463E+03  0.78004631675E+02 0.  0.
          5    1    5    5  501    0  0.72912742925E+01  0.87298316920E+01  0.32662837767E+03  0.32686015319E+03  0.47000000000E+01 0. -1.
        -13    1    6    6    0    0 -0.18798160649E+02 -0.48641619375E+02  0.75781100587E+02  0.91989962417E+02  0.00000000000E+00 0.  1.
         14    1    6    6    0    0  0.43492302504E+02 -0.89478132079E+02  0.32003749984E+03  0.33514462222E+03  0.00000000000E+00 0. -1.
         -5    1    3    3    0  503  0.46530186718E+02  0.84913295352E+02  0.54342035986E+02  0.11113268142E+03  0.47000000000E+01 0.  1.
         11    1    4    4    0    0 -0.82941654167E+01 -0.22305646633E+02  0.16867173477E+02  0.29169103393E+02  0.00000000000E+00 0. -1.
        -12    1    4    4    0    0 -0.70221437448E+02  0.66782271043E+02  0.56527059284E+02  0.11218837032E+03  0.00000000000E+00 0.  1.
</event>
<event>
12    1  0.8358445E-002  0.1855899E+03  0.7818608E-02  0.1162630E+00
         21   -1    0    0  501  502  0.00000000000E+00  0.00000000000E+00  0.26074172133E+03  0.26074172133E+03  0.00000000000E+00 0.  1.
         21   -1    0    0  502  503 -0.00000000000E+00 -0.00000000000E+00 -0.15077568505E+03  0.15077568505E+03  0.00000000000E+00 0. -1.
         -6    2    1    2    0  503 -0.19658655118E+02 -0.66311321708E+02 -0.18272727041E+02  0.18593199054E+03  0.17161922516E+03 0.  0.
        -24    2    3    3    0    0 -0.73989278558E+01 -0.74951468085E+02 -0.71291227282E+02  0.13063276442E+03  0.79435592471E+02 0.  0.
          6    2    1    2  501    0  0.19658655118E+02  0.66311321708E+02  0.12823876332E+03  0.22558541583E+03  0.17222062975E+03 0.  0.
         24    2    5    5    0    0  0.72396767501E+02  0.56631384181E+02  0.51887505317E+02  0.13216906669E+03  0.79548371221E+02 0.  0.
          5    1    5    5  501    0 -0.52738112383E+02  0.96799375270E+01  0.76351258000E+02  0.93416349139E+02  0.47000000000E+01 0. -1.
        -11    1    6    6    0    0  0.38360385999E+02  0.60785879123E+02  0.63558195002E+02  0.95948353122E+02  0.00000000000E+00 0.  1.
         12    1    6    6    0    0  0.34036381502E+02 -0.41544949428E+01 -0.11670689685E+02  0.36220713572E+02  0.00000000000E+00 0. -1.
         -5    1    3    3    0  503 -0.12259727262E+02  0.86401463772E+01  0.53018500241E+02  0.55299226123E+02  0.47000000000E+01 0.  1.
         13    1    4    4    0    0  0.91080988573E+01 -0.64806225439E+02 -0.98144098311E+01  0.66174972314E+02  0.00000000000E+00 0. -1.
        -14    1    4    4    0    0 -0.16507026713E+02 -0.10145242646E+02 -0.61476817451E+02  0.64457792106E+02  0.00000000000E+00 0.  1.
</event>
<event>
12    1  0.8358445E-002  0.2663410E+03  0.7818608E-02  0.1103454E+00
         21   -1    0    0  503  502  0.00000000000E+00  0.00000000000E+00  0.94373291872E+02  0.94373291872E+02  0.00000000000E+00 0. -1.
         21   -1    0    0  501  503 -0.00000000000E+00 -0.00000000000E+00 -0.11679370274E+04  0.11679370274E+04  0.00000000000E+00 0. -1.
          6    2    1    2  501    0 -0.75743869776E+02 -0.18936300031E+03 -0.91439546002E+03  0.95239517717E+03  0.17129517357E+03 0.  0.
         24    2    3    3    0    0 -0.63598773269E+02 -0.89919790490E+02 -0.72946365419E+03  0.74201856688E+03  0.79648968148E+02 0.  0.
         -6    2    1    2    0  502  0.75743869776E+02  0.18936300031E+03 -0.15916827548E+03  0.30991514208E+03  0.17063814250E+03 0.  0.
        -24    2    5    5    0    0  0.58144760649E+01  0.15555259356E+03 -0.58581637421E+02  0.18274193159E+03  0.75712534129E+02 0.  0.
          5    1    3    3  501    0 -0.12145096507E+02 -0.99443209817E+02 -0.18493180583E+03  0.21037661029E+03  0.47000000000E+01 0.  1.
        -13    1    4    4    0    0 -0.57123886986E+02 -0.51016797933E+02 -0.26394541216E+03  0.27483273593E+03  0.00000000000E+00 0.  1.
         14    1    4    4    0    0 -0.64748862827E+01 -0.38902992557E+02 -0.46551824203E+03  0.46718583095E+03  0.00000000000E+00 0. -1.
         -5    1    5    5    0  502  0.69929393711E+02  0.33810406748E+02 -0.10058663806E+03  0.12717321048E+03  0.47000000000E+01 0.  1.
         11    1    6    6    0    0 -0.22905097165E+02  0.93566889260E+02 -0.61631019919E+02  0.11435816044E+03  0.00000000000E+00 0. -1.
        -12    1    6    6    0    0  0.28719573230E+02  0.61985704299E+02  0.30493824977E+01  0.68383771157E+02  0.00000000000E+00 0.  1.
</event>
<event>
12    1  0.8358445E-002  0.1857641E+03  0.7818608E-02  0.1162431E+00
         21   -1    0    0  501  502  0.00000000000E+00  0.00000000000E+00  0.33516447616E+03  0.33516447616E+03  0.00000000000E+00 0. -1.
         21   -1    0    0  502  503 -0.00000000000E+00 -0.00000000000E+00 -0.18036794770E+03  0.18036794770E+03  0.00000000000E+00 0. -1.
         -6    2    1    2    0  503 -0.62552037467E+02  0.22445150343E+02 -0.91754863242E+02  0.20683210298E+03  0.17304340995E+03 0.  0.
        -24    2    3    3    0    0 -0.51918801521E+02 -0.31663508647E+02 -0.10788441635E+01  0.10060101939E+03  0.80132773984E+02 0.  0.
          6    2    1    2  501    0  0.62552037467E+02 -0.22445150343E+02  0.24655139170E+03  0.30870032088E+03  0.17346975875E+03 0.  0.
         24    2    5    5    0    0  0.75863990673E+02  0.39756201199E+01  0.71918844491E+02  0.13151713389E+03  0.79707500761E+02 0.  0.
          5    1    5    5  501    0 -0.13311953206E+02 -0.26420770463E+02  0.17463254721E+03  0.17718318699E+03  0.47000000000E+01 0. -1.
        -11    1    6    6    0    0  0.63895735226E+02 -0.15346360131E+02  0.83299305805E+02  0.10609877519E+03  0.00000000000E+00 0.  1.
         12    1    6    6    0    0  0.11968255447E+02  0.19321980251E+02 -0.11380461314E+02  0.25418358699E+02  0.00000000000E+00 0. -1.
         -5    1    3    3    0  503 -0.10633235946E+02  0.54108658990E+02 -0.90676019079E+02  0.10623108359E+03  0.47000000000E+01 0.  1.
         13    1    4    4    0    0 -0.38266786049E+02  0.17698304200E+02 -0.19129673991E+02  0.46298178291E+02  0.00000000000E+00 0. -1.
        -14    1    4    4    0    0 -0.13652015472E+02 -0.49361812847E+02  0.18050829828E+02  0.54302841099E+02  0.00000000000E+00 0.  1.
</event>
<event>
12    1  0.8358445E-002  0.2600175E+03  0.7818608E-02  0.1107806E+00
         21   -1    0    0  503  502  0.00000000000E+00  0.00000000000E+00  0.12864957457E+04  0.12864957457E+04  0.00000000000E+00 0.  1.
         21   -1    0    0  501  503 -0.00000000000E+00 -0.00000000000E+00 -0.51750248795E+02  0.51750248795E+02  0.00000000000E+00 0. -1.
          6    2    1    2  501    0 -0.17519677325E+03 -0.68546063743E+02  0.65074140408E+03  0.70076636576E+03  0.17948997795E+03 0.  0.
         24    2    3    3    0    0 -0.18670082547E+03 -0.52553441290E+02  0.64634540151E+03  0.68004145251E+03  0.84112642653E+02 0.  0.
         -6    2    1    2    0  502  0.17519677325E+03  0.68546063743E+02  0.58400409284E+03  0.63747962875E+03  0.17299429010E+03 0.  0.
        -24    2    5    5    0    0  0.30102236069E+02  0.26862620854E+02  0.12299630576E+03  0.15236087641E+03  0.80361684977E+02 0.  0.
          5    1    3    3  501    0  0.11504052224E+02 -0.15992622452E+02  0.43960025635E+01  0.20724913245E+02  0.47000000000E+01 0. -1.
        -11    1    4    4    0    0 -0.50999989425E+02 -0.31928568451E+02  0.32634508466E+03  0.33184566697E+03  0.00000000000E+00 0.  1.
         12    1    4    4    0    0 -0.13570083605E+03 -0.20624872840E+02  0.32000031686E+03  0.34819578555E+03  0.00000000000E+00 0. -1.
         -5    1    5    5    0  502  0.14509453718E+03  0.41683442889E+02  0.46100778707E+03  0.48511875234E+03  0.47000000000E+01 0.  1.
         11    1    6    6    0    0  0.17512409996E+02  0.54525351046E+02  0.95610528713E+02  0.11144986142E+03  0.00000000000E+00 0. -1.
        -12    1    6    6    0    0  0.12589826073E+02 -0.27662730192E+02  0.27385777049E+02  0.40911014982E+02  0.00000000000E+00 0.  1.
</event>
<event>
12    1  0.8358445E-002  0.1909692E+03  0.7818608E-02  0.1157755E+00
         21   -1    0    0  501  502  0.00000000000E+00  0.00000000000E+00  0.49802665238E+02  0.49802665238E+02  0.00000000000E+00 0. -1.
         21   -1    0    0  502  503 -0.00000000000E+00 -0.00000000000E+00 -0.99595814702E+03  0.99595814702E+03  0.00000000000E+00 0. -1.
         -6    2    1    2    0  503  0.67140699301E+02 -0.48376450748E+02 -0.74288741878E+03  0.76685734867E+03  0.17129016823E+03 0.  0.
        -24    2    3    3    0    0  0.90807657681E+02 -0.32665844360E+02 -0.71767165668E+03  0.72858369284E+03  0.80427001615E+02 0.  0.
          6    2    1    2  501    0 -0.67140699301E+02  0.48376450748E+02 -0.20326806300E+03  0.27890346359E+03  0.17210776297E+03 0.  0.
         24    2    5    5    0    0 -0.84885250448E+02  0.83242713269E+02 -0.18831532241E+03  0.23675847802E+03  0.80355841119E+02 0.  0.
          5    1    5    5  501    0  0.17744551148E+02 -0.34866262521E+02 -0.14952740586E+02  0.42144985569E+02  0.47000000000E+01 0. -1.
        -13    1    6    6    0    0 -0.12622319588E+02  0.24033164767E+02 -0.11455603450E+03  0.11772850548E+03  0.00000000000E+00 0.  1.
         14    1    6    6    0    0 -0.72262930861E+02  0.59209548502E+02 -0.73759287909E+02  0.11902997254E+03  0.00000000000E+00 0. -1.
         -5    1    3    3    0  503 -0.23666958381E+02 -0.15710606388E+02 -0.25215762098E+02  0.38273655826E+02  0.47000000000E+01 0.  1.
         13    1    4    4    0    0  0.29097287368E+02  0.27065168921E+02 -0.22918049824E+03  0.23260024995E+03  0.00000000000E+00 0. -1.
        -14    1    4    4    0    0  0.61710370313E+02 -0.59731013281E+02 -0.48849115844E+03  0.49598344289E+03  0.00000000000E+00 0.  1.
</event>
<event>
12    1  0.8358445E-002  0.2076935E+03  0.7818608E-02  0.1143533E+00
         21   -1    0    0  503  502  0.00000000000E+00  0.00000000000E+00  0.29890462301E+03  0.29890462301E+03  0.00000000000E+00 0. -1.
         21   -1    0    0  501  503 -0.00000000000E+00 -0.00000000000E+00 -0.78589547756E+03  0.78589547756E+03  0.00000000000E+00 0. -1.
          6    2    1    2  501    0 -0.11085917861E+03  0.30097599628E+02 -0.73367050853E+03  0.76232925363E+03  0.17227261207E+03 0.  0.
         24    2    3    3    0    0 -0.51294169764E+02  0.72526232738E+02 -0.30681469296E+03  0.32922862274E+03  0.79781476120E+02 0.  0.
         -6    2    1    2    0  502  0.11085917861E+03 -0.30097599628E+02  0.24667965399E+03  0.32247084693E+03  0.17303459899E+03 0.  0.
        -24    2    5    5    0    0  0.12883265007E+03 -0.59273822813E+02  0.23466118198E+03  0.28585348295E+03  0.80839999974E+02 0.  0.
          5    1    3    3  501    0 -0.59565008844E+02 -0.42428633110E+02 -0.42685581558E+03  0.43310063089E+03  0.47000000000E+01 0. -1.
        -11    1    4    4    0    0 -0.12063381617E+02 -0.50332366549E+01 -0.14465292143E+03  0.14524230212E+03  0.00000000000E+00 0.  1.
         12    1    4    4    0    0 -0.39230788147E+02  0.77559469393E+02 -0.16216177153E+03  0.18398632062E+03  0.00000000000E+00 0. -1.
         -5    1    5    5    0  502 -0.17973471457E+02  0.29176223185E+02  0.12018472010E+02  0.36617363982E+02  0.47000000000E+01 0.  1.
         13    1    6    6    0    0  0.54433553567E+02  0.14798658570E+02  0.10325156866E+03  0.11765584763E+03  0.00000000000E+00 0. -1.
        -14    1    6    6    0    0  0.74399096499E+02 -0.74072481383E+02  0.13140961331E+03  0.16819763532E+03  0.00000000000E+00 0.  1.
</event>
<event>
12    1  0.8358445E-002  0.2164487E+03  0.7818608E-02  0.1136860E+00
         21   -1    0    0  503  502  0.00000000000E+00  0.00000000000E+00  0.63471606938E+03  0.63471606938E+03  0.00000000000E+00 0.  1.
         21   -1    0    0  501  503 -0.00000000000E+00 -0.00000000000E+00 -0.21716811794E+03  0.21716811794E+03  0.00000000000E+00 0.  1.
          6    2    1    2  501    0  0.18734072669E+02 -0.12656591538E+03 -0.13819552421E+03  0.25547758332E+03  0.17262936093E+03 0.  0.
         24    2    3    3    0    0  0.65732762586E+02 -0.12204275915E+03 -0.13447702475E+03  0.20788290889E+03  0.76915554245E+02 0.  0.
         -6    2    1    2    0  502 -0.18734072669E+02  0.12656591538E+03  0.55574347564E+03  0.59640660400E+03  0.17458559551E+03 0.  0.
        -24    2    5    5    0    0  0.22784083802E+02  0.88821328780E+02  0.51304028598E+03  0.52573791545E+03  0.69149676613E+02 0.  0.
          5    1    3    3  501    0 -0.46998689917E+02 -0.45231562302E+01 -0.37184994589E+01  0.47594674434E+02  0.47000000000E+01 0. -1.
        -11    1    4    4    0    0 -0.15107633630E+02 -0.32249614189E+02 -0.45771922556E+02  0.57994371311E+02  0.00000000000E+00 0.  1.
         12    1    4    4    0    0  0.80840396216E+02 -0.89793144961E+02 -0.88705102193E+02  0.14988853758E+03  0.00000000000E+00 0. -1.
         -5    1    5    5    0  502 -0.41518156470E+02  0.37744586600E+02  0.42703189657E+02  0.70668688549E+02  0.47000000000E+01 0.  1.
         11    1    6    6    0    0  0.15530796701E+01  0.22600530359E+02  0.31554365434E+03  0.31635580258E+03  0.00000000000E+00 0. -1.
        -12    1    6    6    0    0  0.21231004132E+02  0.66220798421E+02  0.19749663164E+03  0.20938211287E+03  0.00000000000E+00 0.  1.
</event>
<event>
12    1  0.8358445E-002  0.2009937E+03  0.7818608E-02  0.1148920E+00
         21   -1    0    0  503  502  0.00000000000E+00  0.00000000000E+00  0.43903684527E+03  0.43903684527E+03  0.00000000000E+00 0.  1.
         21   -1    0    0  501  503 -0.00000000000E+00 -0.00000000000E+00 -0.92035800388E+02  0.92035800388E+02  0.00000000000E+00 0.  1.
          6    2    1    2  501    0  0.91565168087E+02  0.48554728649E+02  0.18002524498E+03  0.26976941408E+03  0.17211829148E+03 0.  0.
         24    2    3    3    0    0  0.93172971117E+02 -0.21247682390E+02  0.83564037830E+02  0.15059804125E+03  0.81019473310E+02 0.  0.
         -6    2    1    2    0  502 -0.91565168087E+02 -0.48554728649E+02  0.16697579990E+03  0.26130323158E+03  0.17221126386E+03 0.  0.
        -24    2    5    5    0    0 -0.12887648059E+03 -0.21579372484E+02  0.11553682078E+03  0.19210884992E+03  0.80512338784E+02 0.  0.
          5    1    3    3  501    0 -0.16078030298E+01  0.69802411038E+02  0.96461207151E+02  0.11917137283E+03  0.47000000000E+01 0. -1.
        -11    1    4    4    0    0  0.52821413877E+02  0.28452046076E+02  0.29757228705E+02  0.66970988869E+02  0.00000000000E+00 0.  1.
         12    1    4    4    0    0  0.40351557240E+02 -0.49699728466E+02  0.53806809125E+02  0.83627052378E+02  0.00000000000E+00 0. -1.
         -5    1    5    5    0  502  0.37311312498E+02 -0.26975356165E+02  0.51438979119E+02  0.69194381660E+02  0.47000000000E+01 0.  1.
         13    1    6    6    0    0 -0.74512613900E+02 -0.38764283568E+02  0.10443889323E+03  0.13402343724E+03  0.00000000000E+00 0. -1.
        -14    1    6    6    0    0 -0.54363866685E+02  0.17184911084E+02  0.11097927547E+02  0.58085412676E+02  0.00000000000E+00 0.  1.
</event>
<event>
12    1  0.8358445E-002  0.1939575E+03  0.7818608E-02  0.1156275E+00
         21   -1    0    0  503  502  0.00000000000E+00  0.00000000000E+00  0.37120677633E+03  0.37120677633E+03  0.00000000000E+00 0.  1.
         21   -1    0    0  501  503 -0.00000000000E+00 -0.00000000000E+00 -0.13680096264E+03  0.13680096264E+03  0.00000000000E+00 0. -1.
          6    2    1    2  501    0  0.24622891533E+02 -0.86600017241E+02 -0.16318428126E+02  0.19464271627E+03  0.17179536119E+03 0.  0.
         24    2    3    3    0    0 -0.33187146857E+02 -0.86437136521E+02 -0.42970488524E+02  0.13081130244E+03  0.81806898698E+02 0.  0.
         -6    2    1    2    0  502 -0.24622891533E+02  0.86600017241E+02  0.25072424181E+03  0.31336502270E+03  0.16501255177E+03 0.  0.
        -24    2    5    5    0    0 -0.71106046794E+02  0.23774912303E+02  0.15340984053E+03  0.18846562226E+03  0.79770892275E+02 0.  0.
          5    1    3    3  501    0  0.57810038389E+02 -0.16288071957E+00  0.26652060398E+02  0.63831413835E+02  0.47000000000E+01 0. -1.
        -11    1    4    4    0    0 -0.76406624305E+01 -0.31384372284E+02  0.24142227565E+02  0.40326240810E+02  0.00000000000E+00 0.  1.
         12    1    4    4    0    0 -0.25546484426E+02 -0.55052764237E+02 -0.67112716089E+02  0.90485061627E+02  0.00000000000E+00 0. -1.
         -5    1    5    5    0  502  0.46483155261E+02  0.62825104938E+02  0.97314401281E+02  0.12489940044E+03  0.47000000000E+01 0.  1.
         11    1    6    6    0    0 -0.30102945177E+02 -0.14223740207E+02  0.10341624701E+02  0.34863323067E+02  0.00000000000E+00 0. -1.
        -12    1    6    6    0    0 -0.41003101617E+02  0.37998652510E+02  0.14306821583E+03  0.15360229919E+03  0.00000000000E+00 0.  1.
</event>
<event>
12    1  0.8358445E-002  0.2824260E+03  0.7818608E-02  0.1094394E+00
         21   -1    0    0  501  502  0.00000000000E+00  0.00000000000E+00  0.28212213456E+04  0.28212213456E+04  0.00000000000E+00 0.  1.
         21   -1    0    0  502  503 -0.00000000000E+00 -0.00000000000E+00 -0.30942843481E+02  0.30942843481E+02  0.00000000000E+00 0. -1.
         -6    2    1    2    0  503  0.23446797031E+02  0.22252261763E+03  0.18149949860E+04  0.18368108515E+04  0.17205010133E+03 0.  0.
        -24    2    3    3    0    0 -0.31511272731E+02  0.99693786828E+02  0.64607976094E+03  0.66016638334E+03  0.86422131122E+02 0.  0.
          6    2    1    2  501    0 -0.23446797031E+02 -0.22252261763E+03  0.97528351607E+03  0.10153533375E+04  0.17233222466E+03 0.  0.
         24    2    5    5    0    0  0.23864594737E+02 -0.13838466410E+03  0.79265964530E+03  0.80873501503E+03  0.77609130319E+02 0.  0.
          5    1    5    5  501    0 -0.47311391768E+02 -0.84137953533E+02  0.18262387078E+03  0.20661832250E+03  0.47000000000E+01 0. -1.
        -11    1    6    6    0    0 -0.87649021627E+01 -0.39039407554E+02  0.41315997741E+03  0.41509283996E+03  0.00000000000E+00 0.  1.
         12    1    6    6    0    0  0.32629496900E+02 -0.99345256543E+02  0.37949966789E+03  0.39364217507E+03  0.00000000000E+00 0. -1.
         -5    1    3    3    0  503  0.54958069762E+02  0.12282883080E+03  0.11689152251E+04  0.11766444682E+04  0.47000000000E+01 0.  1.
         11    1    4    4    0    0  0.11822102589E+02 -0.11172552624E+02  0.63498748337E+02  0.65549058591E+02  0.00000000000E+00 0. -1.
        -12    1    4    4    0    0 -0.43333375320E+02  0.11086633945E+03  0.58258101260E+03  0.59461732475E+03  0.00000000000E+00 0.  1.
</event>
<event>
12    1  0.8358445E-002  0.1890190E+03  0.7818608E-02  0.1159448E+00
         21   -1    0    0  501  502  0.00000000000E+00  0.00000000000E+00  0.79960758003E+02  0.79960758003E+02  0.00000000000E+00 0. -1.
         21   -1    0    0  502  503 -0.00000000000E+00 -0.00000000000E+00 -0.88265291660E+03  0.88265291660E+03  0.00000000000E+00 0. -1.
         -6    2    1    2    0  503  0.70505665446E+02 -0.32997254356E+02 -0.74019018292E+03  0.76394351268E+03  0.17224493032E+03 0.  0.
        -24    2    3    3    0    0  0.10821128933E+03 -0.51803994647E+02 -0.51274174330E+03  0.53257737376E+03  0.79631819778E+02 0.  0.
          6    2    1    2  501    0 -0.70505665446E+02  0.32997254356E+02 -0.62501975676E+02  0.19867016192E+03  0.17176573762E+03 0.  0.
         24    2    5    5    0    0 -0.61391657130E+02 -0.42307383194E+02 -0.18995857452E+02  0.11109890004E+03  0.80145322711E+02 0.  0.
          5    1    5    5  501    0 -0.91140083160E+01  0.75304637550E+02 -0.43506118224E+02  0.87571261879E+02  0.47000000000E+01 0. -1.
        -11    1    6    6    0    0 -0.22149556174E+02 -0.79937237877E+01 -0.46527276725E+02  0.52146811390E+02  0.00000000000E+00 0.  1.
         12    1    6    6    0    0 -0.39242100956E+02 -0.34313659406E+02  0.27531419273E+02  0.58952088652E+02  0.00000000000E+00 0. -1.
         -5    1    3    3    0  503 -0.37705623885E+02  0.18806740291E+02 -0.22744843962E+03  0.23136613892E+03  0.47000000000E+01 0.  1.
         13    1    4    4    0    0  0.57342753538E+02 -0.52704989744E+02 -0.41645970634E+03  0.42367994327E+03  0.00000000000E+00 0. -1.
        -14    1    4    4    0    0  0.50868535793E+02  0.90099509681E+00 -0.96282036958E+02  0.10889743049E+03  0.00000000000E+00 0.  1.
</event>
<event>
12    1  0.8358445E-002  0.1809124E+03  0.7818608E-02  0.1166978E+00
         21   -1    0    0  501  502  0.00000000000E+00  0.00000000000E+00  0.29315483789E+03  0.29315483789E+03  0.00000000000E+00 0. -1.
         21   -1    0    0  502  503 -0.00000000000E+00 -0.00000000000E+00 -0.19136498872E+03  0.19136498872E+03  0.00000000000E+00 0. -1.
         -6    2    1    2    0  503 -0.53503208224E+02 -0.15703739759E+02 -0.10558708965E+03  0.20947057603E+03  0.17210487497E+03 0.  0.
        -24    2    3    3    0    0 -0.11585353730E+02 -0.62036872941E+02 -0.21037606684E+02  0.10423478922E+03  0.80246597206E+02 0.  0.
          6    2    1    2  501    0  0.53503208224E+02  0.15703739759E+02  0.20737693882E+03  0.27504925059E+03  0.17186533904E+03 0.  0.
         24    2    5    5    0    0  0.91127210165E+02  0.11962987015E+02  0.20029625592E+03  0.23629638200E+03  0.85264931381E+02 0.  0.
          5    1    5    5  501    0 -0.37624001940E+02  0.37407527436E+01  0.70806829023E+01  0.38752868584E+02  0.47000000000E+01 0. -1.
        -11    1    6    6    0    0  0.33447356892E+02 -0.36340735400E+02  0.92206976156E+02  0.10460163089E+03  0.00000000000E+00 0.  1.
         12    1    6    6    0    0  0.57679853273E+02  0.48303722415E+02  0.10808927976E+03  0.13169475112E+03  0.00000000000E+00 0. -1.
         -5    1    3    3    0  503 -0.41917854494E+02  0.46333133182E+02 -0.84549482965E+02  0.10523578681E+03  0.47000000000E+01 0.  1.
         13    1    4    4    0    0  0.10169349041E+02 -0.41240220003E+02 -0.47810926518E+02  0.63953546425E+02  0.00000000000E+00 0. -1.
        -14    1    4    4    0    0 -0.21754702771E+02 -0.20796652938E+02  0.26773319834E+02  0.40281242793E+02  0.00000000000E+00 0.  1.
</event>
<event>
12    1  0.8358445E-002  0.2421593E+03  0.7818608E-02  0.1118703E+00
         21   -1    0    0  501  502  0.00000000000E+00  0.00000000000E+00  0.83589058879E+03  0.83589058879E+03  0.00000000000E+00 0. -1.
         21   -1    0    0  502  503 -0.00000000000E+00 -0.00000000000E+00 -0.14636580160E+03  0.14636580160E+03  0.00000000000E+00 0. -1.
         -6    2    1    2    0  503 -0.94207870938E+02 -0.13932361257E+03 -0.11707047864E+02  0.24038899323E+03  0.17135816622E+03 0.  0.
        -24    2    3    3    0    0  0.18535497800E+01 -0.14280704759E+02  0.62519891541E+01  0.81618270628E+02  0.80094198022E+02 0.  0.
          6    2    1    2  501    0  0.94207870938E+02  0.13932361257E+03  0.70123183505E+03  0.74186739716E+03  0.17422673878E+03 0.  0.
         24    2    5    5    0    0 -0.18019620859E+02  0.46103306032E+02  0.25906868475E+03  0.27623301596E+03  0.82084554735E+02 0.  0.
          5    1    5    5  501    0  0.11222749180E+03  0.93220306539E+02  0.44216315030E+03  0.46563438120E+03  0.47000000000E+01 0. -1.
        -13    1    6    6    0    0 -0.24627138301E+02  0.68006413253E+02  0.20964519707E+03  0.22177122636E+03  0.00000000000E+00 0.  1.
         14    1    6    6    0    0  0.66075174422E+01 -0.21903107221E+02  0.49423487677E+02  0.54461789603E+02  0.00000000000E+00 0. -1.
         -5    1    3    3    0  503 -0.96061420718E+02 -0.12504290781E+03 -0.17959037018E+02  0.15877072260E+03  0.47000000000E+01 0.  1.
         13    1    4    4    0    0 -0.20068304475E+02 -0.41679479141E+02  0.46509447137E+01  0.46492441457E+02  0.00000000000E+00 0. -1.
        -14    1    4    4    0    0  0.21921854255E+02  0.27398774382E+02  0.16010444404E+01  0.35125829171E+02  0.00000000000E+00 0.  1.
</event>
<event>
12    1  0.8358445E-002  0.2341123E+03  0.7818608E-02  0.1124162E+00
         21   -1    0    0  503  502  0.00000000000E+00  0.00000000000E+00  0.27846805748E+03  0.27846805748E+03  0.00000000000E+00 0.  1.
         21   -1    0    0  501  503 -0.00000000000E+00 -0.00000000000E+00 -0.34916171808E+03  0.34916171808E+03  0.00000000000E+00 0.  1.
          6    2    1    2  501    0 -0.80997404171E+02 -0.13511380987E+03  0.17310499709E+03  0.29115961221E+03  0.17318273200E+03 0.  0.
         24    2    3    3    0    0 -0.98347047639E+02 -0.15589243973E+03  0.17060563366E+03  0.26357160023E+03  0.79931918955E+02 0.  0.
         -6    2    1    2    0  502  0.80997404171E+02  0.13511380987E+03 -0.24379865768E+03  0.33647016335E+03  0.17017069147E+03 0.  0.
        -24    2    5    5    0    0 -0.18533744481E+02  0.65706166929E+02 -0.14622148979E+03  0.18069062636E+03  0.81287012001E+02 0.  0.
          5    1    3    3  501    0  0.17349643468E+02  0.20778629860E+02  0.24993634296E+01  0.27588011978E+02  0.47000000000E+01 0. -1.
        -13    1    4    4    0    0 -0.34995496480E+02 -0.12545778905E+03  0.11841767017E+03  0.17603149211E+03  0.00000000000E+00 0.  1.
         14    1    4    4    0    0 -0.63351551159E+02 -0.30434650684E+02  0.52187963488E+02  0.87540108119E+02  0.00000000000E+00 0. -1.
         -5    1    5    5    0  502  0.99531148652E+02  0.69407642942E+02 -0.97577167893E+02  0.15577953699E+03  0.47000000000E+01 0.  1.
         11    1    6    6    0    0 -0.22008737920E+02 -0.81565672923E+01 -0.96338888561E+01  0.25371754951E+02  0.00000000000E+00 0. -1.
        -12    1    6    6    0    0  0.34749934389E+01  0.73862734221E+02 -0.13658760093E+03  0.15531887141E+03  0.00000000000E+00 0.  1.
</event>
<event>
12    1  0.8358445E-002  0.2196166E+03  0.7818608E-02  0.1134350E+00
         21   -1    0    0  501  502  0.00000000000E+00  0.00000000000E+00  0.52803666953E+03  0.52803666953E+03  0.00000000000E+00 0.  1.
         21   -1    0    0  502  503 -0.00000000000E+00 -0.00000000000E+00 -0.11521451766E+03  0.11521451766E+03  0.00000000000E+00 0. -1.
         -6    2    1    2    0  503  0.94939114792E+02  0.97742237146E+02  0.59141990831E+02  0.22744064182E+03  0.17223382372E+03 0.  0.
        -24    2    3    3    0    0  0.17429225329E+02 -0.33081731015E+01 -0.11858819646E+02  0.81556532118E+02  0.78715401434E+02 0.  0.
          6    2    1    2  501    0 -0.94939114792E+02 -0.97742237146E+02  0.35368016104E+03  0.41581054537E+03  0.17100225989E+03 0.  0.
         24    2    5    5    0    0 -0.88020779170E+02 -0.36296738252E+01  0.23983684074E+03  0.26786653732E+03  0.80435934371E+02 0.  0.
          5    1    5    5  501    0 -0.69183356218E+01 -0.94112563321E+02  0.11384332030E+03  0.14794400806E+03  0.47000000000E+01 0. -1.
        -11    1    6    6    0    0 -0.80015886413E+01 -0.13858793174E+02  0.13317872414E+03  0.13413673670E+03  0.00000000000E+00 0.  1.
         12    1    6    6    0    0 -0.80019190528E+02  0.10229119349E+02  0.10665811661E+03  0.13372980062E+03  0.00000000000E+00 0. -1.
         -5    1    3    3    0  503  0.77509889463E+02  0.10105041025E+03  0.71000810477E+02  0.14588410970E+03  0.47000000000E+01 0.  1.
         13    1    4    4    0    0 -0.24849366584E+02  0.17986490698E+02 -0.14934579950E+02  0.34118126349E+02  0.00000000000E+00 0. -1.
        -14    1    4    4    0    0  0.42278591913E+02 -0.21294663800E+02  0.30757603049E+01  0.47438405769E+02  0.00000000000E+00 0.  1.
</event>
<event>
12    1  0.8358445E-002  0.1825186E+03  0.7818608E-02  0.1165452E+00
         21   -1    0    0  503  502  0.00000000000E+00  0.00000000000E+00  0.59829356362E+02  0.59829356362E+02  0.00000000000E+00 0. -1.
         21   -1    0    0  501  503 -0.00000000000E+00 -0.00000000000E+00 -0.56337937192E+03  0.56337937192E+03  0.00000000000E+00 0. -1.
          6    2    1    2  501    0 -0.62602082135E+02  0.10270670343E+02 -0.28766968765E+03  0.34068588657E+03  0.17113888149E+03 0.  0.
         24    2    3    3    0    0 -0.46103734732E+02  0.30419625875E+02 -0.45408692804E+02  0.96983905660E+02  0.65521146055E+02 0.  0.
         -6    2    1    2    0  502  0.62602082135E+02 -0.10270670343E+02 -0.21588032791E+03  0.28252284172E+03  0.17085178593E+03 0.  0.
        -24    2    5    5    0    0  0.40357810340E+02  0.54679806236E+02 -0.89338410953E+02  0.13848007451E+03  0.81097134970E+02 0.  0.
          5    1    3    3  501    0 -0.16498347403E+02 -0.20148955532E+02 -0.24226099484E+03  0.24370198091E+03  0.47000000000E+01 0. -1.
        -11    1    4    4    0    0 -0.37811744732E+02 -0.14138988792E+02 -0.20903775652E+02  0.45459948089E+02  0.00000000000E+00 0.  1.
         12    1    4    4    0    0 -0.82919899997E+01  0.44558614667E+02 -0.24504917152E+02  0.51523957571E+02  0.00000000000E+00 0. -1.
         -5    1    5    5    0  502  0.22244271796E+02 -0.64950476579E+02 -0.12654191696E+03  0.14404276720E+03  0.47000000000E+01 0.  1.
         11    1    6    6    0    0 -0.12219560402E+02 -0.14373803054E+02 -0.13201542124E+02  0.23026171742E+02  0.00000000000E+00 0. -1.
        -12    1    6    6    0    0  0.52577370741E+02  0.69053609290E+02 -0.76136868828E+02  0.11545390277E+03  0.00000000000E+00 0.  1.
</event>
<event>
12    1  0.8358445E-002  0.2391217E+03  0.7818608E-02  0.1120413E+00
         21   -1    0    0  501  502  0.00000000000E+00  0.00000000000E+00  0.17136374205E+03  0.17136374205E+03  0.00000000000E+00 0. -1.
         21   -1    0    0  502  503 -0.00000000000E+00 -0.00000000000E+00 -0.38596715401E+03  0.38596715401E+03  0.00000000000E+00 0.  1.
         -6    2    1    2    0  503 -0.14624598192E+03  0.78583424074E+02 -0.21011044557E+03  0.31816701970E+03  0.17181563178E+03 0.  0.
        -24    2    3    3    0    0 -0.14923912425E+03  0.11130014350E+03 -0.19741016553E+03  0.28263211089E+03  0.79057564485E+02 0.  0.
          6    2    1    2  501    0  0.14624598192E+03 -0.78583424074E+02 -0.44929663959E+01  0.23916387636E+03  0.17209279834E+03 0.  0.
         24    2    5    5    0    0  0.17176123120E+03 -0.57176961219E+02  0.17494006620E+02  0.19897953139E+03  0.80719812980E+02 0.  0.
          5    1    5    5  501    0 -0.25515249283E+02 -0.21406462855E+02 -0.21986973016E+02  0.40184344966E+02  0.47000000000E+01 0. -1.
        -13    1    6    6    0    0  0.32314665604E+02  0.19868199074E+02 -0.43152424919E+01  0.38178583857E+02  0.00000000000E+00 0.  1.
         14    1    6    6    0    0  0.13944656559E+03 -0.77045160293E+02  0.21809249112E+02  0.16080094753E+03  0.00000000000E+00 0. -1.
         -5    1    3    3    0  503  0.29931423328E+01 -0.32716719429E+02 -0.12700280036E+02  0.35534908811E+02  0.47000000000E+01 0.  1.
         11    1    4    4    0    0 -0.36220507911E+02  0.58914591232E+02 -0.33740571312E+02  0.76949856438E+02  0.00000000000E+00 0. -1.
        -12    1    4    4    0    0 -0.11301861634E+03  0.52385552270E+02 -0.16366959422E+03  0.20568225445E+03  0.00000000000E+00 0.  1.
</event>
<event>
12    1  0.8358445E-002  0.2393968E+03  0.7818608E-02  0.1122525E+00
         21   -1    0    0  503  502  0.00000000000E+00  0.00000000000E+00  0.82067407233E+03  0.82067407233E+03  0.00000000000E+00 0.  1.
         21   -1    0    0  501  503 -0.00000000000E+00 -0.00000000000E+00 -0.70503909571E+02  0.70503909571E+02  0.00000000000E+00 0.  1.
          6    2    1    2  501    0  0.13264261164E+03 -0.10084333516E+03  0.27203578286E+03  0.36237314895E+03  0.17189354627E+03 0.  0.
         24    2    3    3    0    0  0.92398800246E+02 -0.12069765906E+03  0.13510599069E+03  0.21820097230E+03  0.79073209145E+02 0.  0.
         -6    2    1    2    0  502 -0.13264261164E+03  0.10084333516E+03  0.47813437990E+03  0.52880483296E+03  0.15250778816E+03 0.  0.
        -24    2    5    5    0    0 -0.87860108840E+02  0.77662437453E+01  0.19379822216E+03  0.22625242741E+03  0.76502919753E+02 0.  0.
          5    1    3    3  501    0  0.40243811397E+02  0.19854323898E+02  0.13692979217E+03  0.14417217664E+03  0.47000000000E+01 0. -1.
        -11    1    4    4    0    0  0.26780973781E+02 -0.80229908403E+02  0.34245272159E+02  0.91251287247E+02  0.00000000000E+00 0.  1.
         12    1    4    4    0    0  0.65617826465E+02 -0.40467750655E+02  0.10086071853E+03  0.12694968505E+03  0.00000000000E+00 0. -1.
         -5    1    5    5    0  502 -0.44782502803E+02  0.93077091415E+02  0.28433615774E+03  0.30255240555E+03  0.47000000000E+01 0.  1.
         13    1    6    6    0    0 -0.32327549601E+02 -0.26726115805E+02  0.12268445498E+03  0.12965658959E+03  0.00000000000E+00 0. -1.
        -14    1    6    6    0    0 -0.55532559239E+02  0.34492359550E+02  0.71113767176E+02  0.96595837824E+02  0.00000000000E+00 0.  1.
</event>
<event>
12    1  0.8358445E-002  0.3933989E+03  0.7818608E-02  0.1046139E+00
         21   -1    0    0  503  502  0.00000000000E+00  0.00000000000E+00  0.89161736426E+03  0.89161736426E+03  0.00000000000E+00 0. -1.
         21   -1    0    0  501  503 -0.00000000000E+00 -0.00000000000E+00 -0.19520281282E+03  0.19520281282E+03  0.00000000000E+00 0. -1.
          6    2    1    2  501    0 -0.89201106018E+02 -0.34177390577E+03  0.16651588690E+03  0.42718877352E+03  0.17319488346E+03 0.  0.
         24    2    3    3    0    0 -0.10121089868E+03 -0.35313175923E+03  0.16166547498E+03  0.40933233348E+03  0.80445932401E+02 0.  0.
         -6    2    1    2    0  502  0.89201106018E+02  0.34177390577E+03  0.52989866453E+03  0.65963140356E+03  0.17191496127E+03 0.  0.
        -24    2    5    5    0    0  0.93156523843E+02  0.15843956946E+03  0.33319005857E+03  0.39066395226E+03  0.88439094066E+02 0.  0.
          5    1    3    3  501    0  0.12009792664E+02  0.11357853467E+02  0.48504119207E+01  0.17856440043E+02  0.47000000000E+01 0. -1.
        -11    1    4    4    0    0  0.12968544437E+02 -0.31004634977E+02  0.76484733540E+01  0.34466936033E+02  0.00000000000E+00 0.  1.
         12    1    4    4    0    0 -0.11417944312E+03 -0.32212712426E+03  0.15401700163E+03  0.37486539745E+03  0.00000000000E+00 0. -1.
         -5    1    5    5    0  502 -0.39554178253E+01  0.18333433630E+03  0.19670860596E+03  0.26896745130E+03  0.47000000000E+01 0.  1.
         13    1    6    6    0    0 -0.28055143447E+01  0.52693674305E+02  0.46302161359E+02  0.70202452728E+02  0.00000000000E+00 0. -1.
        -14    1    6    6    0    0  0.95962038188E+02  0.10574589516E+03  0.28688789721E+03  0.32046149953E+03  0.00000000000E+00 0.  1.
</event>
<event>
12    1  0.8358445E-002  0.1749378E+03  0.7818608E-02  0.1173293E+00
         21   -1    0    0  501  502  0.00000000000E+00  0.00000000000E+00  0.34992432615E+03  0.34992432615E+03  0.00000000000E+00 0. -1.
         21   -1    0    0  502  503 -0.00000000000E+00 -0.00000000000E+00 -0.89098456125E+02  0.89098456125E+02  0.00000000000E+00 0. -1.
         -6    2    1    2    0  503 -0.21545525587E+02  0.72043215726E+01  0.16738074783E+03  0.24069170589E+03  0.17146448792E+03 0.  0.
        -24    2    3    3    0    0 -0.16887024509E+02 -0.39981114955E+02  0.33359707526E+02  0.98452835336E+02  0.81831714816E+02 0.  0.
          6    2    1    2  501    0  0.21545525587E+02 -0.72043215726E+01  0.93445122196E+02  0.19833107639E+03  0.17345637225E+03 0.  0.
         24    2    5    5    0    0  0.60781877999E+02 -0.51738913966E+02  0.78653161109E+02  0.13698196569E+03  0.78780627442E+02 0.  0.
          5    1    5    5  501    0 -0.39236352412E+02  0.44534592394E+02  0.14791961086E+02  0.61349110695E+02  0.47000000000E+01 0. -1.
        -13    1    6    6    0    0 -0.31386636744E+01 -0.32384648116E+02  0.58978521646E+02  0.67357870059E+02  0.00000000000E+00 0.  1.
         14    1    6    6    0    0  0.63920541674E+02 -0.19354265850E+02  0.19674639463E+02  0.69624095631E+02  0.00000000000E+00 0. -1.
         -5    1    3    3    0  503 -0.46585010783E+01  0.47185436528E+02  0.13402104030E+03  0.14223887055E+03  0.47000000000E+01 0.  1.
         13    1    4    4    0    0 -0.31718299761E+02 -0.58942738069E+02  0.32390771431E+02  0.74360332065E+02  0.00000000000E+00 0. -1.
        -14    1    4    4    0    0  0.14831275252E+02  0.18961623114E+02  0.96893609505E+00  0.24092503271E+02  0.00000000000E+00 0.  1.
</event>
<event>
12    1  0.8358445E-002  0.4056240E+03  0.7818608E-02  0.1041885E+00
         21   -1    0    0  503  502  0.00000000000E+00  0.00000000000E+00  0.70487733747E+03  0.70487733747E+03  0.00000000000E+00 0. -1.
         21   -1    0    0  501  503 -0.00000000000E+00 -0.00000000000E+00 -0.30252460650E+03  0.30252460650E+03  0.00000000000E+00 0.  1.
          6    2    1    2  501    0 -0.13114998388E+03 -0.34196486557E+03 -0.39906745091E+02  0.40758235139E+03  0.17432881949E+03 0.  0.
         24    2    3    3    0    0 -0.12057124897E+03 -0.34680364247E+03 -0.11293525960E+02  0.37633927690E+03  0.81813905300E+02 0.  0.
         -6    2    1    2    0  502  0.13114998388E+03  0.34196486557E+03  0.44225947606E+03  0.59981959258E+03  0.17334881575E+03 0.  0.
        -24    2    5    5    0    0  0.14107713012E+03  0.23479868592E+03  0.25037178659E+03  0.37976025135E+03  0.80614126760E+02 0.  0.
          5    1    3    3  501    0 -0.10578734914E+02  0.48387769059E+01 -0.28613219131E+02  0.31243074486E+02  0.47000000000E+01 0. -1.
        -13    1    4    4    0    0 -0.46493483089E+02 -0.43249951960E+02  0.27831056873E+01  0.63560585205E+02  0.00000000000E+00 0.  1.
         14    1    4    4    0    0 -0.74077765877E+02 -0.30355369051E+03 -0.14076631647E+02  0.31277869170E+03  0.00000000000E+00 0. -1.
         -5    1    5    5    0  502 -0.99271462352E+01  0.10716617965E+03  0.19188768947E+03  0.22005934123E+03  0.47000000000E+01 0.  1.
         13    1    6    6    0    0 -0.47576588505E+01  0.22933532448E+02  0.43212116709E+01  0.23817117764E+02  0.00000000000E+00 0. -1.
        -14    1    6    6    0    0  0.14583478897E+03  0.21186515347E+03  0.24605057492E+03  0.35594313358E+03  0.00000000000E+00 0.  1.
</event>
<event>
12    1  0.8358445E-002  0.1786859E+03  0.7818608E-02  0.1169421E+00
         21   -1    0    0  501  502  0.00000000000E+00  0.00000000000E+00  0.11273809768E+04  0.11273809768E+04  0.00000000000E+00 0.  1.
         21   -1    0    0  502  503 -0.00000000000E+00 -0.00000000000E+00 -0.24647335878E+03  0.24647335878E+03  0.00000000000E+00 0.  1.
         -6    2    1    2    0  503  0.78546765888E+01  0.43381839334E+02 -0.20593237172E+03  0.27264772693E+03  0.17316166247E+03 0.  0.
        -24    2    3    3    0    0  0.28935775806E+02  0.98501241820E+01 -0.26027073752E+02  0.88374031295E+02  0.78729008449E+02 0.  0.
          6    2    1    2  501    0 -0.78546765888E+01 -0.43381839334E+02  0.10868399898E+04  0.11012066087E+04  0.17172988005E+03 0.  0.
         24    2    5    5    0    0  0.40632488490E+02 -0.68725691480E+02  0.88151344068E+03  0.88866391230E+03  0.79267793881E+02 0.  0.
          5    1    5    5  501    0 -0.48487165078E+02  0.25343852146E+02  0.20532654910E+03  0.21254269638E+03  0.47000000000E+01 0. -1.
        -11    1    6    6    0    0 -0.52976597015E+01 -0.72133147424E+01  0.46795912607E+03  0.46804469955E+03  0.00000000000E+00 0.  1.
         12    1    6    6    0    0  0.45930148191E+02 -0.61512376738E+02  0.41355431461E+03  0.42061921275E+03  0.00000000000E+00 0. -1.
         -5    1    3    3    0  503 -0.21081099217E+02  0.33531715152E+02 -0.17990529797E+03  0.18427369563E+03  0.47000000000E+01 0.  1.
         11    1    4    4    0    0  0.89750424630E+00 -0.20029065070E+01  0.27075970518E+02  0.27164781020E+02  0.00000000000E+00 0. -1.
        -12    1    4    4    0    0  0.28038271559E+02  0.11853030689E+02 -0.53103044270E+02  0.61209250276E+02  0.00000000000E+00 0.  1.
</event>
<event>
12    1  0.8358445E-002  0.1873602E+03  0.7818608E-02  0.1161080E+00
         21   -1    0    0  503  502  0.00000000000E+00  0.00000000000E+00  0.73280158652E+02  0.73280158652E+02  0.00000000000E+00 0. -1.
         21   -1    0    0  501  503 -0.00000000000E+00 -0.00000000000E+00 -0.10202359256E+04  0.10202359256E+04  0.00000000000E+00 0. -1.
          6    2    1    2  501    0 -0.65796545251E+02 -0.34864914034E+02 -0.87313378319E+03  0.89300976951E+03  0.17192759375E+03 0.  0.
         24    2    3    3    0    0  0.28728092712E+02 -0.34838917390E+01 -0.47069199117E+03  0.47840011971E+03  0.80487782762E+02 0.  0.
         -6    2    1    2    0  502  0.65796545251E+02  0.34864914034E+02 -0.73821983739E+02  0.20050631473E+03  0.17090450364E+03 0.  0.
        -24    2    5    5    0    0  0.42159617194E+02  0.86321789668E+02 -0.61900106543E+02  0.14244827847E+03  0.85035311228E+02 0.  0.
          5    1    3    3  501    0 -0.94524637963E+02 -0.31381022295E+02 -0.40244179202E+03  0.41460964980E+03  0.47000000000E+01 0. -1.
        -13    1    4    4    0    0 -0.58535685829E+01  0.17999800645E+02 -0.27746172953E+02  0.33587307155E+02  0.00000000000E+00 0.  1.
         14    1    4    4    0    0  0.34581661295E+02 -0.21483692384E+02 -0.44294581822E+03  0.44481281255E+03  0.00000000000E+00 0. -1.
         -5    1    5    5    0  502  0.23636928056E+02 -0.51456875634E+02 -0.11921877196E+02  0.58058036255E+02  0.47000000000E+01 0.  1.
         11    1    6    6    0    0  0.35936414453E+02 -0.37275790766E+01 -0.70044800326E+01  0.36801949269E+02  0.00000000000E+00 0. -1.
        -12    1    6    6    0    0  0.62232027413E+01  0.90049368744E+02 -0.54895626510E+02  0.10564632920E+03  0.00000000000E+00 0.  1.
</event>
<event>
12    1  0.8358445E-002  0.2286036E+03  0.7818608E-02  0.1127634E+00
         21   -1    0    0  503  502  0.00000000000E+00  0.00000000000E+00  0.39240342231E+03  0.39240342231E+03  0.00000000000E+00 0. -1.
         21   -1    0    0  501  503 -0.00000000000E+00 -0.00000000000E+00 -0.15356221401E+03  0.15356221401E+03  0.00000000000E+00 0. -1.
          6    2    1    2  501    0 -0.57530113607E+02  0.13912463535E+03  0.19890586675E+02  0.22942344134E+03  0.17197122394E+03 0.  0.
         24    2    3    3    0    0 -0.27353084719E+01  0.39203926441E+02  0.62238304212E+02  0.10775981523E+03  0.78702868472E+02 0.  0.
         -6    2    1    2    0  502  0.57530113607E+02 -0.13912463535E+03  0.21895062162E+03  0.31654219498E+03  0.17202967291E+03 0.  0.
        -24    2    5    5    0    0  0.10065151551E+03 -0.69665608766E+02  0.14562050025E+03  0.20661763733E+03  0.80631838260E+02 0.  0.
          5    1    3    3  501    0 -0.54794805135E+02  0.99920708904E+02 -0.42347717536E+02  0.12166362611E+03  0.47000000000E+01 0. -1.
        -11    1    4    4    0    0  0.35444614750E+02  0.42134569551E+01  0.19893723095E+02  0.40863604257E+02  0.00000000000E+00 0.  1.
         12    1    4    4    0    0 -0.38179923222E+02  0.34990469486E+02  0.42344581117E+02  0.66896210970E+02  0.00000000000E+00 0. -1.
         -5    1    5    5    0  502 -0.43121401902E+02 -0.69459026580E+02  0.73330121370E+02  0.10992455765E+03  0.47000000000E+01 0.  1.
         13    1    6    6    0    0  0.57927767623E+02 -0.57455589192E+02  0.37641555932E+02  0.89853534846E+02  0.00000000000E+00 0. -1.
        -14    1    6    6    0    0  0.42723747886E+02 -0.12210019573E+02  0.10797894432E+03  0.11676410248E+03  0.00000000000E+00 0.  1.
</event>
<event>
12    1  0.8358445E-002  0.2360211E+03  0.7818608E-02  0.1123377E+00
         21   -1    0    0  503  502  0.00000000000E+00  0.00000000000E+00  0.15125330104E+03  0.15125330104E+03  0.00000000000E+00 0. -1.
         21   -1    0    0  501  503 -0.00000000000E+00 -0.00000000000E+00 -0.63627507060E+03  0.63627507060E+03  0.00000000000E+00 0.  1.
          6    2    1    2  501    0  0.95935944433E+02 -0.12049092365E+03 -0.50344515078E+03  0.55602424495E+03  0.17884119493E+03 0.  0.
         24    2    3    3    0    0  0.95851799525E+02 -0.14794565358E+03 -0.48654340835E+03  0.52344314347E+03  0.78694042699E+02 0.  0.
         -6    2    1    2    0  502 -0.95935944433E+02  0.12049092365E+03  0.18423381222E+02  0.23150412670E+03  0.17185159757E+03 0.  0.
        -24    2    5    5    0    0 -0.43132356066E+02  0.58822453832E-01  0.43840924105E+01  0.99173852109E+02  0.89195454347E+02 0.  0.
          5    1    3    3  501    0  0.84144908094E-01  0.27454729929E+02 -0.16901742438E+02  0.32581101475E+02  0.47000000000E+01 0. -1.
        -13    1    4    4    0    0  0.24057380548E+02 -0.10780438429E+03 -0.29409663279E+03  0.31415501309E+03  0.00000000000E+00 0.  1.
         14    1    4    4    0    0  0.71794418977E+02 -0.40141269288E+02 -0.19244677556E+03  0.20928813038E+03  0.00000000000E+00 0. -1.
         -5    1    5    5    0  502 -0.52803588368E+02  0.12043210120E+03  0.14039288812E+02  0.13233027459E+03  0.47000000000E+01 0.  1.
         11    1    6    6    0    0 -0.67015608381E+02 -0.14590253764E+02  0.13112764375E+02  0.69827729887E+02  0.00000000000E+00 0. -1.
        -12    1    6    6    0    0  0.23883252316E+02  0.14649076218E+02 -0.87286719649E+01  0.29346122222E+02  0.00000000000E+00 0.  1.
</event>
<event>
12    1  0.8358445E-002  0.2123482E+03  0.7818608E-02  0.1140253E+00
         21   -1    0    0  503  502  0.00000000000E+00  0.00000000000E+00  0.98747388912E+03  0.98747388912E+03  0.00000000000E+00 0.  1.
         21   -1    0    0  501  503 -0.00000000000E+00 -0.00000000000E+00 -0.49206985933E+02  0.49206985933E+02  0.00000000000E+00 0.  1.
          6    2    1    2  501    0  0.82450582163E+02  0.85669213548E+02  0.32183094795E+03  0.38557349847E+03  0.17593877064E+03 0.  0.
         24    2    3    3    0    0  0.27807977777E+01  0.10510731957E+03  0.20311588343E+03  0.24121120750E+03  0.76625733653E+02 0.  0.
         -6    2    1    2    0  502 -0.82450582163E+02 -0.85669213548E+02  0.61643595525E+03  0.65110737659E+03  0.17265635315E+03 0.  0.
        -24    2    5    5    0    0  0.59500457301E+01  0.19453478797E+01  0.17890584350E+03  0.19619455960E+03  0.80285845282E+02 0.  0.
          5    1    3    3  501    0  0.79669784385E+02 -0.19438106026E+02  0.11871506452E+03  0.14436229097E+03  0.47000000000E+01 0. -1.
        -13    1    4    4    0    0  0.19079847181E+02  0.10608922921E+03  0.19538201977E+03  0.22314367294E+03  0.00000000000E+00 0.  1.
         14    1    4    4    0    0 -0.16299049403E+02 -0.98190963976E+00  0.77338636593E+01  0.18067534560E+02  0.00000000000E+00 0. -1.
         -5    1    5    5    0  502 -0.88400627893E+02 -0.87614561428E+02  0.43753011174E+03  0.45491281699E+03  0.47000000000E+01 0.  1.
         11    1    6    6    0    0  0.19978107330E+02 -0.31334134018E+02  0.13119320798E+03  0.13635472323E+03  0.00000000000E+00 0. -1.
        -12    1    6    6    0    0 -0.14028061600E+02  0.33279481898E+02  0.47712635523E+02  0.59839836365E+02  0.00000000000E+00 0.  1.
</event>
<event>
12    1  0.8358445E-002  0.1794581E+03  0.7818608E-02  0.1168596E+00
         21   -1    0    0  503  502  0.00000000000E+00  0.00000000000E+00  0.43687329753E+03  0.43687329753E+03  0.00000000000E+00 0. -1.
         21   -1    0    0  501  503 -0.00000000000E+00 -0.00000000000E+00 -0.48416387012E+03  0.48416387012E+03  0.00000000000E+00 0. -1.
          6    2    1    2  501    0 -0.33076543229E+01 -0.48413443051E+02 -0.44787937301E+03  0.48208775802E+03  0.17163295610E+03 0.  0.
         24    2    3    3    0    0 -0.65535381108E+02 -0.50413712928E+02 -0.27077338691E+03  0.29429821791E+03  0.80354124849E+02 0.  0.
         -6    2    1    2    0  502  0.33076543229E+01  0.48413443051E+02  0.40058880043E+03  0.43894940963E+03  0.17277266897E+03 0.  0.
        -24    2    5    5    0    0 -0.16818804992E+02 -0.11502006094E+02  0.34497669414E+03  0.35463018420E+03  0.79614569662E+02 0.  0.
          5    1    3    3  501    0  0.62227726785E+02  0.20002698772E+01 -0.17710598611E+03  0.18778954011E+03  0.47000000000E+01 0. -1.
        -13    1    4    4    0    0 -0.35355823906E+02 -0.69753667633E+02 -0.16449474077E+03  0.18213766270E+03  0.00000000000E+00 0.  1.
         14    1    4    4    0    0 -0.30179557202E+02  0.19339954705E+02 -0.10627864613E+03  0.11216055521E+03  0.00000000000E+00 0. -1.
         -5    1    5    5    0  502  0.20126459315E+02  0.59915449145E+02  0.55612106283E+02  0.84319225423E+02  0.47000000000E+01 0.  1.
         11    1    6    6    0    0 -0.21889182964E+02  0.28984171440E+02  0.10251157784E+03  0.10875588314E+03  0.00000000000E+00 0. -1.
        -12    1    6    6    0    0  0.50703779725E+01 -0.40486177534E+02  0.24246511630E+03  0.24587430107E+03  0.00000000000E+00 0.  1.
</event>
<event>
12    1  0.8358445E-002  0.1772785E+03  0.7818608E-02  0.1171739E+00
         21   -1    0    0  503  502  0.00000000000E+00  0.00000000000E+00  0.57240205273E+02  0.57240205273E+02  0.00000000000E+00 0.  1.
         21   -1    0    0  501  503 -0.00000000000E+00 -0.00000000000E+00 -0.56216528694E+03  0.56216528694E+03  0.00000000000E+00 0.  1.
          6    2    1    2  501    0 -0.41649766803E+02 -0.15379776231E+02 -0.32600210729E+03  0.37108631709E+03  0.17162878599E+03 0.  0.
         24    2    3    3    0    0  0.32315211931E+02  0.13104393786E+02 -0.23044475924E+03  0.24684677915E+03  0.81317570413E+02 0.  0.
         -6    2    1    2    0  502  0.41649766803E+02  0.15379776231E+02 -0.17892297438E+03  0.24831917512E+03  0.16636628680E+03 0.  0.
        -24    2    5    5    0    0  0.57059840744E+02  0.34572903999E+02 -0.48683175330E+02  0.11569058926E+03  0.81013269078E+02 0.  0.
          5    1    3    3  501    0 -0.73964978733E+02 -0.28484170018E+02 -0.95557348054E+02  0.12423953794E+03  0.47000000000E+01 0. -1.
        -13    1    4    4    0    0 -0.59231591822E+01  0.25579138149E+02 -0.21129618779E+02  0.33702179646E+02  0.00000000000E+00 0.  1.
         14    1    4    4    0    0  0.38238371113E+02 -0.12474744363E+02 -0.20931514046E+03  0.21314459950E+03  0.00000000000E+00 0. -1.
         -5    1    5    5    0  502 -0.15410073942E+02 -0.19193127767E+02 -0.13023979905E+03  0.13262858586E+03  0.47000000000E+01 0.  1.
         11    1    6    6    0    0  0.56878411557E+01 -0.20224344133E+02  0.70494774363E+01  0.22160116532E+02  0.00000000000E+00 0. -1.
        -12    1    6    6    0    0  0.51371999589E+02  0.54797248132E+02 -0.55732652766E+02  0.93530472729E+02  0.00000000000E+00 0.  1.
</event>
<event>
12    1  0.8358445E-002  0.2491717E+03  0.7818608E-02  0.1113842E+00
         21   -1    0    0  501  502  0.00000000000E+00  0.00000000000E+00  0.27283238572E+03  0.27283238572E+03  0.00000000000E+00 0.  1.
         21   -1    0    0  502  503 -0.00000000000E+00 -0.00000000000E+00 -0.30692160840E+03  0.30692160840E+03  0.00000000000E+00 0.  1.
         -6    2    1    2    0  503 -0.18005546426E+03 -0.61708223006E+01 -0.16451149647E+03  0.29851298748E+03  0.17201140069E+03 0.  0.
        -24    2    3    3    0    0 -0.24252928119E+02 -0.12479775526E+02 -0.26325620323E+02  0.90110349482E+02  0.81748929527E+02 0.  0.
          6    2    1    2  501    0  0.18005546426E+03  0.61708223006E+01  0.13042227379E+03  0.28124100664E+03  0.17212926845E+03 0.  0.
         24    2    5    5    0    0  0.82386113885E+02 -0.61583207475E+02  0.77187689925E+02  0.15091095840E+03  0.78969707398E+02 0.  0.
          5    1    5    5  501    0  0.97669350372E+02  0.67754029776E+02  0.53234583870E+02  0.13033004823E+03  0.47000000000E+01 0. -1.
        -11    1    6    6    0    0  0.86331352032E+01 -0.13804522278E+02  0.58956050066E+02  0.61162992881E+02  0.00000000000E+00 0.  1.
         12    1    6    6    0    0  0.73752978682E+02 -0.47778685197E+02  0.18231639859E+02  0.89747965523E+02  0.00000000000E+00 0. -1.
         -5    1    3    3    0  503 -0.15580253614E+03  0.63089532258E+01 -0.13818587615E+03  0.20840263800E+03  0.47000000000E+01 0.  1.
         11    1    4    4    0    0 -0.37257704093E+02  0.25611229054E+02 -0.19707945672E+02  0.49320124600E+02  0.00000000000E+00 0. -1.
        -12    1    4    4    0    0  0.13004775975E+02 -0.38091004580E+02 -0.66176746510E+01  0.40790224881E+02  0.00000000000E+00 0.  1.
</event>
<event>
12    1  0.8358445E-002  0.2047678E+03  0.7818608E-02  0.1145836E+00
         21   -1    0    0  503  502  0.00000000000E+00  0.00000000000E+00  0.22460655323E+03  0.22460655323E+03  0.00000000000E+00 0. -1.
         21   -1    0    0  501  503 -0.00000000000E+00 -0.00000000000E+00 -0.18771363489E+03  0.18771363489E+03  0.00000000000E+00 0. -1.
          6    2    1    2  501    0  0.10807139890E+03 -0.21690591989E+02  0.13591981112E+01  0.20477235347E+03  0.17256871177E+03 0.  0.
         24    2    3    3    0    0  0.88714237653E+02 -0.36423721097E+02 -0.60516201374E+02  0.13812087302E+03  0.78855954201E+02 0.  0.
         -6    2    1    2    0  502 -0.10807139890E+03  0.21690591989E+02  0.35533720223E+02  0.20754783465E+03  0.17223109288E+03 0.  0.
        -24    2    5    5    0    0 -0.60226541452E+02  0.60336107827E+02  0.68399098951E+02  0.13765628010E+03  0.83684720886E+02 0.  0.
          5    1    3    3  501    0  0.19357161250E+02  0.14733129108E+02  0.61875399485E+02  0.66651480452E+02  0.47000000000E+01 0. -1.
        -13    1    4    4    0    0  0.63744798291E+02  0.14704570062E+02 -0.44118795790E+02  0.78905588090E+02  0.00000000000E+00 0.  1.
         14    1    4    4    0    0  0.24969439362E+02 -0.51128291159E+02 -0.16397405584E+02  0.59215284925E+02  0.00000000000E+00 0. -1.
         -5    1    5    5    0  502 -0.47844857452E+02 -0.38645515838E+02 -0.32865378728E+02  0.69891554553E+02  0.47000000000E+01 0.  1.
         11    1    6    6    0    0 -0.24273202226E+01  0.10545123877E+02 -0.18864445608E+02  0.21747616631E+02  0.00000000000E+00 0. -1.
        -12    1    6    6    0    0 -0.57799221229E+02  0.49790983950E+02  0.87263544559E+02  0.11590866347E+03  0.00000000000E+00 0.  1.
</event>
<event>
12    1  0.8358445E-002  0.1832867E+03  0.7818608E-02  0.1164919E+00
         21   -1    0    0  501  502  0.00000000000E+00  0.00000000000E+00  0.12636266915E+04  0.12636266915E+04  0.00000000000E+00 0. -1.
         21   -1    0    0  502  503 -0.00000000000E+00 -0.00000000000E+00 -0.26435118352E+02  0.26435118352E+02  0.00000000000E+00 0.  1.
         -6    2    1    2    0  503 -0.33384059238E+02 -0.49969763110E+02  0.63173663666E+03  0.65778810998E+03  0.17315469067E+03 0.  0.
        -24    2    3    3    0    0 -0.30309253810E+02 -0.99630088385E+02  0.41730081556E+03  0.43760542740E+03  0.80707707512E+02 0.  0.
          6    2    1    2  501    0  0.33384059238E+02  0.49969763110E+02  0.60545493649E+03  0.63227369987E+03  0.17199674064E+03 0.  0.
         24    2    5    5    0    0  0.26027461274E+02  0.57059234434E+02  0.61123304093E+03  0.61963025776E+03  0.80016504727E+02 0.  0.
          5    1    5    5  501    0  0.73565979640E+01 -0.70894713245E+01 -0.57781044487E+01  0.12643442106E+02  0.47000000000E+01 0. -1.
        -13    1    6    6    0    0 -0.17282818482E+02  0.55553156459E+02  0.33356335153E+03  0.33859911177E+03  0.00000000000E+00 0.  1.
         14    1    6    6    0    0  0.43310279757E+02  0.15060779755E+01  0.27766968940E+03  0.28103114599E+03  0.00000000000E+00 0. -1.
         -5    1    3    3    0  503 -0.30748054284E+01  0.49660325275E+02  0.21443582110E+03  0.22018268258E+03  0.47000000000E+01 0.  1.
         11    1    4    4    0    0  0.46879007618E+01 -0.73639466134E+02  0.34797859540E+03  0.35571596849E+03  0.00000000000E+00 0. -1.
        -12    1    4    4    0    0 -0.34997154572E+02 -0.25990622251E+02  0.69322220160E+02  0.81889458913E+02  0.00000000000E+00 0.  1.
</event>
<event>
12    1  0.8358445E-002  0.2738517E+03  0.7818608E-02  0.1099378E+00
         21   -1    0    0  503  502  0.00000000000E+00  0.00000000000E+00  0.13301030656E+03  0.13301030656E+03  0.00000000000E+00 0. -1.
         21   -1    0    0  501  503 -0.00000000000E+00 -0.00000000000E+00 -0.56513367882E+03  0.56513367882E+03  0.00000000000E+00 0.  1.
          6    2    1    2  501    0  0.21090544406E+03  0.12513028873E+02 -0.18105773069E+03  0.32662179770E+03  0.17106201993E+03 0.  0.
         24    2    3    3    0    0  0.35318039440E+02  0.18934493738E+02 -0.99863370131E+02  0.13300675164E+03  0.78180715816E+02 0.  0.
         -6    2    1    2    0  502 -0.21090544406E+03 -0.12513028873E+02 -0.25106564157E+03  0.37152218769E+03  0.17423288249E+03 0.  0.
        -24    2    5    5    0    0 -0.90750269390E+02 -0.40707155367E+02 -0.61200771107E+02  0.14502067819E+03  0.85981270207E+02 0.  0.
          5    1    3    3  501    0  0.17558740462E+03 -0.64214648650E+01 -0.81194360560E+02  0.19361504606E+03  0.47000000000E+01 0. -1.
        -13    1    4    4    0    0  0.36070953961E+02  0.13192154601E+02 -0.11262424618E+03  0.11899314052E+03  0.00000000000E+00 0.  1.
         14    1    4    4    0    0 -0.75291452162E+00  0.57423391375E+01  0.12760876052E+02  0.14013611121E+02  0.00000000000E+00 0. -1.
         -5    1    5    5    0  502 -0.12015517467E+03  0.28194126494E+02 -0.18986487046E+03  0.22650150950E+03  0.47000000000E+01 0.  1.
         13    1    6    6    0    0 -0.75913386771E+02 -0.39171220555E+02 -0.82671421351E+02  0.11887720858E+03  0.00000000000E+00 0. -1.
        -14    1    6    6    0    0 -0.14836882619E+02 -0.15359348120E+01  0.21470650244E+02  0.26143469615E+02  0.00000000000E+00 0.  1.
</event>
<event>
12    1  0.8358445E-002  0.2531427E+03  0.7818608E-02  0.1111387E+00
         21   -1    0    0  501  502  0.00000000000E+00  0.00000000000E+00  0.13191076580E+03  0.13191076580E+03  0.00000000000E+00 0.  1.
         21   -1    0    0  502  503 -0.00000000000E+00 -0.00000000000E+00 -0.48563415890E+03  0.48563415890E+03  0.00000000000E+00 0. -1.
         -6    2    1    2    0  503  0.86117763015E+02  0.16429426223E+03 -0.16692905704E+03  0.30294458406E+03  0.17175924202E+03 0.  0.
        -24    2    3    3    0    0 -0.63229572766E+01  0.12986860195E+03 -0.11699693226E+03  0.19228420299E+03  0.79869261916E+02 0.  0.
          6    2    1    2  501    0 -0.86117763015E+02 -0.16429426223E+03 -0.18679433606E+03  0.31460034063E+03  0.17225671724E+03 0.  0.
         24    2    5    5    0    0  0.87527554522E+01 -0.10178668518E+03 -0.14363014744E+03  0.19297448137E+03  0.78564567065E+02 0.  0.
          5    1    5    5  501    0 -0.94870518467E+02 -0.62507577050E+02 -0.43164188622E+02  0.12162585927E+03  0.47000000000E+01 0. -1.
        -11    1    6    6    0    0  0.79608782306E+01 -0.37037084257E+02 -0.28190980216E+01  0.37987741524E+02  0.00000000000E+00 0.  1.
         12    1    6    6    0    0  0.79187722154E+00 -0.64749600918E+02 -0.14081104942E+03  0.15498673984E+03  0.00000000000E+00 0. -1.
         -5    1    3    3    0  503  0.92440720292E+02  0.34425660271E+02 -0.49932124771E+02  0.11066038106E+03  0.47000000000E+01 0.  1.
         13    1    4    4    0    0 -0.12978158160E+02  0.16012897719E+01 -0.41023006876E+02  0.43056751054E+02  0.00000000000E+00 0. -1.
        -14    1    4    4    0    0  0.66552008831E+01  0.12826731218E+03 -0.75973925388E+02  0.14922745194E+03  0.00000000000E+00 0.  1.
</event>
<event>
12    1  0.8358445E-002  0.2501809E+03  0.7818608E-02  0.1114808E+00
         21   -1    0    0  503  502  0.00000000000E+00  0.00000000000E+00  0.95906965159E+03  0.95906965159E+03  0.00000000000E+00 0.  1.
         21   -1    0    0  501  503 -0.00000000000E+00 -0.00000000000E+00 -0.94660943511E+02  0.94660943511E+02  0.00000000000E+00 0.  1.
          6    2    1    2  501    0 -0.59350003168E+02 -0.15709208109E+03  0.13182517462E+03  0.28278678831E+03  0.18544580383E+03 0.  0.
         24    2    3    3    0    0 -0.52513266600E+02 -0.18298478441E+03  0.14515453308E+03  0.25250585621E+03  0.80301273055E+02 0.  0.
         -6    2    1    2    0  502  0.59350003168E+02  0.15709208109E+03  0.73258353346E+03  0.77094380680E+03  0.17168393903E+03 0.  0.
        -24    2    5    5    0    0  0.61028876588E+02  0.14436764787E+03  0.38734404925E+03  0.42543386298E+03  0.79950095390E+02 0.  0.
          5    1    3    3  501    0 -0.68367365684E+01  0.25892703313E+02 -0.13329358457E+02  0.30280932097E+02  0.47000000000E+01 0. -1.
        -11    1    4    4    0    0 -0.64644595714E+01 -0.12777655923E+03  0.12249854615E+03  0.17712857516E+03  0.00000000000E+00 0.  1.
         12    1    4    4    0    0 -0.46048807028E+02 -0.55208225174E+02  0.22655986921E+02  0.75377281053E+02  0.00000000000E+00 0. -1.
         -5    1    5    5    0  502 -0.16788734199E+01  0.12724433224E+02  0.34523948421E+03  0.34550994381E+03  0.47000000000E+01 0.  1.
         11    1    6    6    0    0  0.60954026348E+02  0.52936094664E+02  0.13833343936E+03  0.16016792404E+03  0.00000000000E+00 0. -1.
        -12    1    6    6    0    0  0.74850239900E-01  0.91431553205E+02  0.24901060989E+03  0.26526593894E+03  0.00000000000E+00 0.  1.
</event>
<event>
12    1  0.8358445E-002  0.1814776E+03  0.7818608E-02  0.1166433E+00
         21   -1    0    0  503  502  0.00000000000E+00  0.00000000000E+00  0.59193179551E+03  0.59193179551E+03  0.00000000000E+00 0. -1.
         21   -1    0    0  501  503 -0.00000000000E+00 -0.00000000000E+00 -0.71431661258E+02  0.71431661258E+02  0.00000000000E+00 0. -1.
          6    2    1    2  501    0 -0.59458367705E+02 -0.17294223111E+02  0.10383823582E+03  0.20889534819E+03  0.17035404202E+03 0.  0.
         24    2    3    3    0    0  0.11817381564E+01 -0.50069052934E+02  0.66504160049E+02  0.13036296555E+03  0.10031646384E+03 0.  0.
         -6    2    1    2    0  502  0.59458367705E+02  0.17294223111E+02  0.41666189843E+03  0.45446810858E+03  0.17058644866E+03 0.  0.
        -24    2    5    5    0    0  0.42174114086E+02 -0.54726712687E+02  0.28094064950E+03  0.29978097910E+03  0.78532273012E+02 0.  0.
          5    1    3    3  501    0 -0.60640105861E+02  0.32774829823E+02  0.37334075769E+02  0.78532382635E+02  0.47000000000E+01 0. -1.
        -13    1    4    4    0    0 -0.33194391635E+02 -0.14109952772E+02  0.71784278613E+02  0.80336424237E+02  0.00000000000E+00 0.  1.
         14    1    4    4    0    0  0.34376129791E+02 -0.35959100161E+02 -0.52801185640E+01  0.50026541315E+02  0.00000000000E+00 0. -1.
         -5    1    5    5    0  502  0.17284253619E+02  0.72020935798E+02  0.13572124893E+03  0.15468712948E+03  0.47000000000E+01 0.  1.
         11    1    6    6    0    0  0.49704947897E+02 -0.62060964599E+01  0.18929512832E+03  0.19581047747E+03  0.00000000000E+00 0. -1.
        -12    1    6    6    0    0 -0.75308338112E+01 -0.48520616227E+02  0.91645521181E+02  0.10397050163E+03  0.00000000000E+00 0.  1.
</event>
<event>
12    1  0.8358445E-002  0.2530532E+03  0.7818608E-02  0.1111710E+00
         21   -1    0    0  501  502  0.00000000000E+00  0.00000000000E+00  0.54198400596E+03  0.54198400596E+03  0.00000000000E+00 0. -1.
         21   -1    0    0  502  503 -0.00000000000E+00 -0.00000000000E+00 -0.11787140043E+03  0.11787140043E+03  0.00000000000E+00 0. -1.
         -6    2    1    2    0  503 -0.18126009329E+03  0.27083643487E+02  0.23614563877E+03  0.34462931119E+03  0.17151050770E+03 0.  0.
        -24    2    3    3    0    0 -0.18628443275E+03  0.31843754651E+02  0.14002728761E+03  0.24814755086E+03  0.79080029884E+02 0.  0.
          6    2    1    2  501    0  0.18126009329E+03 -0.27083643487E+02  0.18796696676E+03  0.31522609521E+03  0.17449116122E+03 0.  0.
         24    2    5    5    0    0  0.14709408978E+02 -0.95510075576E+01  0.82991472296E+02  0.11751805742E+03  0.81334622941E+02 0.  0.
          5    1    5    5  501    0  0.16655068432E+03 -0.17532635929E+02  0.10497549446E+03  0.19770803779E+03  0.47000000000E+01 0. -1.
        -11    1    6    6    0    0  0.33598923655E+02  0.25383354055E+02  0.53324656501E+02  0.67946459251E+02  0.00000000000E+00 0.  1.
         12    1    6    6    0    0 -0.18889514676E+02 -0.34934361613E+02  0.29666815795E+02  0.49571598173E+02  0.00000000000E+00 0. -1.
         -5    1    3    3    0  503  0.50243394553E+01 -0.47601111636E+01  0.96118351164E+02  0.96481760326E+02  0.47000000000E+01 0.  1.
         11    1    4    4    0    0 -0.84149716249E+02  0.15527821162E+02  0.16690820795E+02  0.87182976971E+02  0.00000000000E+00 0. -1.
        -12    1    4    4    0    0 -0.10213471650E+03  0.16315933488E+02  0.12333646681E+03  0.16096457389E+03  0.00000000000E+00 0.  1.
</event>
<event>
12    1  0.8358445E-002  0.1742445E+03  0.7818608E-02  0.1173793E+00
         21   -1    0    0  503  502  0.00000000000E+00  0.00000000000E+00  0.16235559798E+03  0.16235559798E+03  0.00000000000E+00 0.  1.
         21   -1    0    0  501  503 -0.00000000000E+00 -0.00000000000E+00 -0.24132411671E+03  0.24132411671E+03  0.00000000000E+00 0.  1.
          6    2    1    2  501    0  0.11765756368E+02 -0.32703916874E+02 -0.13625596308E+03  0.22025945404E+03  0.16953041148E+03 0.  0.
         24    2    3    3    0    0  0.16503697192E+02 -0.70156505763E+02 -0.14610345529E+03  0.18096304707E+03  0.78785134619E+02 0.  0.
         -6    2    1    2    0  502 -0.11765756368E+02  0.32703916874E+02  0.57287444346E+02  0.18342026065E+03  0.17074296921E+03 0.  0.
        -24    2    5    5    0    0  0.48011540241E+02 -0.16446932801E+02  0.40901293697E+02  0.10417553119E+03  0.81265096306E+02 0.  0.
          5    1    3    3  501    0 -0.47379408237E+01  0.37452588889E+02  0.98474922085E+01  0.39296406967E+02  0.47000000000E+01 0. -1.
        -11    1    4    4    0    0  0.34173552755E+01  0.11034898220E+02 -0.62985859842E+02  0.64036441468E+02  0.00000000000E+00 0.  1.
         12    1    4    4    0    0  0.13086341916E+02 -0.81191403984E+02 -0.83117595446E+02  0.11692660561E+03  0.00000000000E+00 0. -1.
         -5    1    5    5    0  502 -0.59777296609E+02  0.49150849675E+02  0.16386150649E+02  0.79244729458E+02  0.47000000000E+01 0.  1.
         13    1    6    6    0    0 -0.17495881575E+02 -0.76911232276E+01  0.32296638273E+02  0.37527750963E+02  0.00000000000E+00 0. -1.
        -14    1    6    6    0    0  0.65507421816E+02 -0.87558095735E+01  0.86046554236E+01  0.66647780227E+02  0.00000000000E+00 0.  1.
</event>
<event>
12    1  0.8358445E-002  0.1851473E+03  0.7818608E-02  0.1163163E+00
         21   -1    0    0  501  502  0.00000000000E+00  0.00000000000E+00  0.51505686160E+03  0.51505686160E+03  0.00000000000E+00 0.  1.
         21   -1    0    0  502  503 -0.00000000000E+00 -0.00000000000E+00 -0.96432308514E+02  0.96432308514E+02  0.00000000000E+00 0.  1.
         -6    2    1    2    0  503 -0.62228510559E+02  0.19116745613E+02  0.38453265539E+02  0.18909828141E+03  0.17332532681E+03 0.  0.
        -24    2    3    3    0    0  0.30212813164E+02  0.17820059779E+01  0.42272189775E+02  0.94850916928E+02  0.79333276681E+02 0.  0.
          6    2    1    2  501    0  0.62228510559E+02 -0.19116745613E+02  0.38017128755E+03  0.42239088870E+03  0.17218018903E+03 0.  0.
         24    2    5    5    0    0  0.10237208091E+03  0.12173173100E+02  0.24136518883E+03  0.27447270762E+03  0.80311168327E+02 0.  0.
          5    1    5    5  501    0 -0.40143570346E+02 -0.31289918713E+02  0.13880609872E+03  0.14791818108E+03  0.47000000000E+01 0. -1.
        -11    1    6    6    0    0  0.11078546547E+02 -0.17843995214E+02  0.86861672279E+01  0.22728657239E+02  0.00000000000E+00 0.  1.
         12    1    6    6    0    0  0.91293534358E+02  0.30017168314E+02  0.23267902160E+03  0.25174405038E+03  0.00000000000E+00 0. -1.
         -5    1    3    3    0  503 -0.92441323723E+02  0.17334739635E+02 -0.38189242363E+01  0.94247364484E+02  0.47000000000E+01 0.  1.
         13    1    4    4    0    0 -0.24580531199E+02 -0.92809378321E+01  0.25193136138E+02  0.36400994897E+02  0.00000000000E+00 0. -1.
        -14    1    4    4    0    0  0.54793344363E+02  0.11062943810E+02  0.17079053638E+02  0.58449922031E+02  0.00000000000E+00 0.  1.
</event>
<event>
12    1  0.8358445E-002  0.1917262E+03  0.7818608E-02  0.1156970E+00
         21   -1    0    0  503  502  0.00000000000E+00  0.00000000000E+00  0.24125091491E+03  0.24125091491E+03  0.00000000000E+00 0. -1.
         21   -1    0    0  501  503 -0.00000000000E+00 -0.00000000000E+00 -0.27748387535E+03  0.27748387535E+03  0.00000000000E+00 0. -1.
          6    2    1    2  501    0  0.40257959316E+02  0.71877132986E+02 -0.19241141805E+03  0.27144823885E+03  0.17284376484E+03 0.  0.
         24    2    3    3    0    0  0.79763755096E+02  0.79054822334E+02 -0.18505517121E+03  0.23035771084E+03  0.78786654909E+02 0.  0.
         -6    2    1    2    0  502 -0.40257959316E+02 -0.71877132986E+02  0.15617845761E+03  0.24728655141E+03  0.17312395084E+03 0.  0.
        -24    2    5    5    0    0  0.47159427496E+01 -0.46196943349E+02  0.17070381262E+03  0.19329395984E+03  0.77886876784E+02 0.  0.
          5    1    3    3  501    0 -0.39505795781E+02 -0.71776893477E+01 -0.73562468415E+01  0.41090528011E+02  0.47000000000E+01 0. -1.
        -11    1    4    4    0    0  0.56674772115E+02  0.74272991152E+02 -0.80957126193E+02  0.12362266495E+03  0.00000000000E+00 0.  1.
         12    1    4    4    0    0  0.23088982982E+02  0.47818311817E+01 -0.10409804501E+03  0.10673504588E+03  0.00000000000E+00 0. -1.
         -5    1    5    5    0  502 -0.44973902065E+02 -0.25680189637E+02 -0.14525355015E+02  0.53992591576E+02  0.47000000000E+01 0.  1.
         13    1    6    6    0    0 -0.22546660151E+02 -0.24082953502E+02  0.14766452327E+03  0.15130483127E+03  0.00000000000E+00 0. -1.
        -14    1    6    6    0    0  0.27262602901E+02 -0.22113989846E+02  0.23039289350E+02  0.41989128564E+02  0.00000000000E+00 0.  1.
</event>
<event>
12    1  0.8358445E-002  0.2516592E+03  0.7818608E-02  0.1112604E+00
         21   -1    0    0  503  502  0.00000000000E+00  0.00000000000E+00  0.39794506856E+03  0.39794506856E+03  0.00000000000E+00 0.  1.
         21   -1    0    0  501  503 -0.00000000000E+00 -0.00000000000E+00 -0.15824425682E+03  0.15824425682E+03  0.00000000000E+00 0.  1.
          6    2    1    2  501    0  0.12706227657E+02  0.18131188648E+03  0.13452473846E+03  0.28343603415E+03  0.17089070132E+03 0.  0.
         24    2    3    3    0    0  0.22669102421E+02  0.16022644077E+03  0.16535600086E+03  0.24449361980E+03  0.79045066752E+02 0.  0.
         -6    2    1    2    0  502 -0.12706227657E+02 -0.18131188648E+03  0.10517607328E+03  0.27275329124E+03  0.17406005599E+03 0.  0.
        -24    2    5    5    0    0  0.54022613003E+02 -0.15143883349E+03  0.56382553643E+02  0.18473036792E+03  0.71373338665E+02 0.  0.
          5    1    3    3  501    0 -0.99628747641E+01  0.21085445708E+02 -0.30831262398E+02  0.38942414349E+02  0.47000000000E+01 0. -1.
        -13    1    4    4    0    0  0.49718906473E+02  0.91849979478E+02  0.11512628244E+03  0.15544275248E+03  0.00000000000E+00 0.  1.
         14    1    4    4    0    0 -0.27049804052E+02  0.68376461293E+02  0.50229718422E+02  0.89050867323E+02  0.00000000000E+00 0. -1.
         -5    1    5    5    0  502 -0.66728840661E+02 -0.29873052991E+02  0.48793519635E+02  0.88022923317E+02  0.47000000000E+01 0.  1.
         13    1    6    6    0    0  0.31291192013E+02 -0.16155665848E+02  0.27160338190E+02  0.44472780520E+02  0.00000000000E+00 0. -1.
        -14    1    6    6    0    0  0.22731420990E+02 -0.13528316764E+03  0.29222215453E+02  0.14025758740E+03  0.00000000000E+00 0.  1.
</event>
<event>
12    1  0.8358445E-002  0.3036943E+03  0.7818608E-02  0.1083488E+00
         21   -1    0    0  503  502  0.00000000000E+00  0.00000000000E+00  0.12696138302E+04  0.12696138302E+04  0.00000000000E+00 0.  1.
         21   -1    0    0  501  503 -0.00000000000E+00 -0.00000000000E+00 -0.18211693766E+03  0.18211693766E+03  0.00000000000E+00 0. -1.
          6    2    1    2  501    0 -0.15417853354E+03  0.19740951739E+03 -0.19191229211E+02  0.30430005974E+03  0.17172269889E+03 0.  0.
         24    2    3    3    0    0 -0.11552085268E+03  0.20057449275E+03 -0.55085444312E+02  0.25124425858E+03  0.80709830550E+02 0.  0.
         -6    2    1    2    0  502  0.15417853354E+03 -0.19740951739E+03  0.11066881218E+04  0.11474307081E+04  0.17057870141E+03 0.  0.
        -24    2    5    5    0    0  0.66967897176E+02 -0.14905232492E+03  0.49375585850E+03  0.52642172068E+03  0.81386026968E+02 0.  0.
          5    1    3    3  501    0 -0.38657680862E+02 -0.31649753571E+01  0.35894215102E+02  0.53055801157E+02  0.47000000000E+01 0. -1.
        -11    1    4    4    0    0 -0.59062449360E+02  0.38624082300E+02  0.16635126050E+01  0.70590083809E+02  0.00000000000E+00 0.  1.
         12    1    4    4    0    0 -0.56458403321E+02  0.16195041045E+03 -0.56748956917E+02  0.18065417477E+03  0.00000000000E+00 0. -1.
         -5    1    5    5    0  502  0.87210636368E+02 -0.48357192477E+02  0.61293226326E+03  0.62100898746E+03  0.47000000000E+01 0.  1.
         11    1    6    6    0    0  0.13218661039E+02 -0.73400781674E+02  0.11976367479E+03  0.14108772289E+03  0.00000000000E+00 0. -1.
        -12    1    6    6    0    0  0.53749236137E+02 -0.75651543243E+02  0.37399218370E+03  0.38533399779E+03  0.00000000000E+00 0.  1.
</event>
<event>
12    1  0.8358445E-002  0.1782876E+03  0.7818608E-02  0.1169843E+00
         21   -1    0    0  503  502  0.00000000000E+00  0.00000000000E+00  0.59459787948E+02  0.59459787948E+02  0.00000000000E+00 0. -1.
         21   -1    0    0  501  503 -0.00000000000E+00 -0.00000000000E+00 -0.53211302854E+03  0.53211302854E+03  0.00000000000E+00 0. -1.
          6    2    1    2  501    0  0.34967031876E+02  0.20252289308E+02 -0.25571300698E+03  0.31173003810E+03  0.17364799503E+03 0.  0.
         24    2    3    3    0    0  0.88416954221E+02  0.28118891680E+02 -0.17208500152E+03  0.21205802133E+03  0.82140896016E+02 0.  0.
         -6    2    1    2    0  502 -0.34967031876E+02 -0.20252289308E+02 -0.21694023361E+03  0.27984277838E+03  0.17209319310E+03 0.  0.
        -24    2    5    5    0    0 -0.70627154087E+02 -0.22342096048E+02 -0.71311707433E+02  0.12982354880E+03  0.79255473341E+02 0.  0.
          5    1    3    3  501    0 -0.53449922345E+02 -0.78666023717E+01 -0.83628005456E+02  0.99672016775E+02  0.47000000000E+01 0. -1.
        -13    1    4    4    0    0  0.21452369694E+01  0.37112953953E+02 -0.52251492362E+02  0.64126374034E+02  0.00000000000E+00 0.  1.
         14    1    4    4    0    0  0.86271717252E+02 -0.89940622732E+01 -0.11983350916E+03  0.14793164730E+03  0.00000000000E+00 0. -1.
         -5    1    5    5    0  502  0.35660122211E+02  0.20898067405E+01 -0.14562852618E+03  0.15001922959E+03  0.47000000000E+01 0.  1.
         13    1    6    6    0    0  0.14065084196E+01  0.21370260003E+02 -0.35745214791E+01  0.21712749304E+02  0.00000000000E+00 0. -1.
        -14    1    6    6    0    0 -0.72033662506E+02 -0.43712356052E+02 -0.67737185954E+02  0.10811079949E+03  0.00000000000E+00 0.  1.
</event>
<event>
12    1  0.8358445E-002  0.2941602E+03  0.7818608E-02  0.1088371E+00
         21   -1    0    0  501  502  0.00000000000E+00  0.00000000000E+00  0.14034467354E+03  0.14034467354E+03  0.00000000000E+00 0.  1.
         21   -1    0    0  502  503 -0.00000000000E+00 -0.00000000000E+00 -0.61854266940E+03  0.61854266940E+03  0.00000000000E+00 0. -1.
         -6    2    1    2    0  503  0.17225907663E+03 -0.16300863003E+03 -0.27208195883E+03  0.39970208475E+03  0.17172117309E+03 0.  0.
        -24    2    3    3    0    0  0.33960266061E+02 -0.72545465720E+02 -0.50721369756E+02  0.12341827144E+03  0.79014353809E+02 0.  0.
          6    2    1    2  501    0 -0.17225907663E+03  0.16300863003E+03 -0.20611603704E+03  0.35918525820E+03  0.17402650958E+03 0.  0.
         24    2    5    5    0    0 -0.16534048946E+03  0.84363001398E+02 -0.19242289048E+03  0.27891948707E+03  0.79466458503E+02 0.  0.
          5    1    5    5  501    0 -0.69185871708E+01  0.78645628634E+02 -0.13693146556E+02  0.80265771125E+02  0.47000000000E+01 0. -1.
        -13    1    6    6    0    0 -0.16468634970E+02  0.93014734866E+01  0.59132322054E+01  0.19816651127E+02  0.00000000000E+00 0.  1.
         14    1    6    6    0    0 -0.14887185449E+03  0.75061527912E+02 -0.19833612269E+03  0.25910283594E+03  0.00000000000E+00 0. -1.
         -5    1    3    3    0  503  0.13829881057E+03 -0.90463164313E+02 -0.22136058907E+03  0.27628381331E+03  0.47000000000E+01 0.  1.
         13    1    4    4    0    0  0.16198400088E+01 -0.19361933718E+01 -0.45510494638E+02  0.45580454678E+02  0.00000000000E+00 0. -1.
        -14    1    4    4    0    0  0.32340426052E+02 -0.70609272348E+02 -0.52108751176E+01  0.77837816762E+02  0.00000000000E+00 0.  1.
</event>
<event>
12    1  0.8358445E-002  0.2399903E+03  0.7818608E-02  0.1121901E+00
         21   -1    0    0  503  502  0.00000000000E+00  0.00000000000E+00  0.11273867513E+04  0.11273867513E+04  0.00000000000E+00 0. -1.
         21   -1    0    0  501  503 -0.00000000000E+00 -0.00000000000E+00 -0.57469535603E+02  0.57469535603E+02  0.00000000000E+00 0.  1.
          6    2    1    2  501    0  0.68676942548E+02 -0.15335030770E+03  0.28925138655E+03  0.36813451133E+03  0.15370040502E+03 0.  0.
         24    2    3    3    0    0  0.18522720105E+02 -0.14445867990E+03  0.16443019434E+03  0.23323852511E+03  0.78431622613E+02 0.  0.
         -6    2    1    2    0  502 -0.68676942548E+02  0.15335030770E+03  0.78066582917E+03  0.81672177559E+03  0.17135484408E+03 0.  0.
        -24    2    5    5    0    0 -0.27286685769E+01  0.46583099765E+01  0.25638989048E+03  0.26777201932E+03  0.77051495161E+02 0.  0.
          5    1    3    3  501    0  0.50154222443E+02 -0.88916277971E+01  0.12482119221E+03  0.13489598622E+03  0.47000000000E+01 0. -1.
        -13    1    4    4    0    0  0.47523903283E+02 -0.62782492006E+02  0.77451861828E+02  0.11044887318E+03  0.00000000000E+00 0.  1.
         14    1    4    4    0    0 -0.29001183178E+02 -0.81676187896E+02  0.86978332515E+02  0.12278965193E+03  0.00000000000E+00 0. -1.
         -5    1    5    5    0  502 -0.65948273971E+02  0.14869199772E+03  0.52427593869E+03  0.54894975627E+03  0.47000000000E+01 0.  1.
         13    1    6    6    0    0 -0.29965960271E+02  0.26643300808E+02  0.16764328238E+03  0.17237196518E+03  0.00000000000E+00 0. -1.
        -14    1    6    6    0    0  0.27237291694E+02 -0.21984990831E+02  0.88746608095E+02  0.95400054136E+02  0.00000000000E+00 0.  1.
</event>
<event>
12    1  0.8358445E-002  0.1918910E+03  0.7818608E-02  0.1157354E+00
         21   -1    0    0  503  502  0.00000000000E+00  0.00000000000E+00  0.49689735845E+03  0.49689735845E+03  0.00000000000E+00 0. -1.
         21   -1    0    0  501  503 -0.00000000000E+00 -0.00000000000E+00 -0.76562942855E+02  0.76562942855E+02  0.00000000000E+00 0. -1.
          6    2    1    2  501    0 -0.33597804324E+02 -0.76505937450E+02  0.27254912049E+03  0.33332442884E+03  0.17274310654E+03 0.  0.
         24    2    3    3    0    0 -0.57116210958E+02 -0.11005086611E+03  0.24035421358E+03  0.28100827721E+03  0.76302353769E+02 0.  0.
         -6    2    1    2    0  502  0.33597804324E+02  0.76505937450E+02  0.14778529511E+03  0.24013587247E+03  0.16983160153E+03 0.  0.
        -24    2    5    5    0    0  0.14264752357E+02  0.77413593748E+02  0.26359734473E+02  0.11708772127E+03  0.82573308122E+02 0.  0.
          5    1    3    3  501    0  0.23518406634E+02  0.33544928663E+02  0.32194906913E+02  0.52316151624E+02  0.47000000000E+01 0. -1.
        -13    1    4    4    0    0 -0.17195656965E+02 -0.90237974612E+02  0.11037529894E+03  0.14360114658E+03  0.00000000000E+00 0.  1.
         14    1    4    4    0    0 -0.39920553993E+02 -0.19812891501E+02  0.12997891463E+03  0.13740713064E+03  0.00000000000E+00 0. -1.
         -5    1    5    5    0  502  0.19333051967E+02 -0.90765629779E+00  0.12142556064E+03  0.12304815120E+03  0.47000000000E+01 0.  1.
         13    1    6    6    0    0  0.46664700452E+02  0.38105237393E+02  0.11649738343E+01  0.60257452229E+02  0.00000000000E+00 0. -1.
        -14    1    6    6    0    0 -0.32399948094E+02  0.39308356355E+02  0.25194760639E+02  0.56830269043E+02  0.00000000000E+00 0.  1.
</event>
<event>
12    1  0.8358445E-002  0.1765485E+03  0.7818608E-02  0.1173287E+00
         21   -1    0    0  503  502  0.00000000000E+00  0.00000000000E+00  0.76407314792E+02  0.76407314792E+02  0.00000000000E+00 0.  1.
         21   -1    0    0  501  503 -0.00000000000E+00 -0.00000000000E+00 -0.86816663295E+03  0.86816663295E+03  0.00000000000E+00 0.  1.
          6    2    1    2  501    0  0.35798372854E+01 -0.46614395119E+02 -0.74242692918E+03  0.76126262430E+03  0.16167040831E+03 0.  0.
         24    2    3    3    0    0 -0.12265869820E+02 -0.89295195804E+02 -0.48235981632E+03  0.49719874875E+03  0.80071966399E+02 0.  0.
         -6    2    1    2    0  502 -0.35798372854E+01  0.46614395119E+02 -0.49332388979E+02  0.18331132344E+03  0.17024582119E+03 0.  0.
        -24    2    5    5    0    0  0.57557379875E+02  0.23800878523E+02 -0.58820293765E+02  0.11720288072E+03  0.79983463879E+02 0.  0.
          5    1    3    3  501    0  0.15845707105E+02  0.42680800685E+02 -0.26006711286E+03  0.26406387555E+03  0.47000000000E+01 0. -1.
        -13    1    4    4    0    0  0.18985209896E+02 -0.30587124206E+02 -0.31589495753E+03  0.31793967126E+03  0.00000000000E+00 0.  1.
         14    1    4    4    0    0 -0.31251079716E+02 -0.58708071598E+02 -0.16646485878E+03  0.17925907749E+03  0.00000000000E+00 0. -1.
         -5    1    5    5    0  502 -0.61137217160E+02  0.22813516596E+02  0.94879047858E+01  0.66108442719E+02  0.47000000000E+01 0.  1.
         13    1    6    6    0    0 -0.20012653418E+02  0.55833751714E+01 -0.18874735796E+02  0.28070198191E+02  0.00000000000E+00 0. -1.
        -14    1    6    6    0    0  0.77570033292E+02  0.18217503352E+02 -0.39945557969E+02  0.89132682529E+02  0.00000000000E+00 0.  1.
</event>
<event>
12    1  0.8358445E-002  0.2077586E+03  0.7818608E-02  0.1145029E+00
         21   -1    0    0  503  502  0.00000000000E+00  0.00000000000E+00  0.10248588984E+04  0.10248588984E+04  0.00000000000E+00 0. -1.
         21   -1    0    0  501  503 -0.00000000000E+00 -0.00000000000E+00 -0.12548918196E+03  0.12548918196E+03  0.00000000000E+00 0. -1.
          6    2    1    2  501    0 -0.49217473457E+02 -0.87387472675E+02 -0.26605232751E+02  0.20135216348E+03  0.17255702030E+03 0.  0.
         24    2    3    3    0    0  0.19956896021E+02  0.58227280746E+01 -0.22016598679E+02  0.85092194104E+02  0.79522129116E+02 0.  0.
         -6    2    1    2    0  502  0.49217473457E+02  0.87387472675E+02  0.92597494917E+03  0.94899591685E+03  0.18194700780E+03 0.  0.
        -24    2    5    5    0    0  0.72763049392E+02  0.11723358484E+03  0.83978369665E+03  0.85467621283E+03  0.78718465676E+02 0.  0.
          5    1    3    3  501    0 -0.69174369477E+02 -0.93210200750E+02 -0.45886340719E+01  0.11625996938E+03  0.47000000000E+01 0. -1.
        -11    1    4    4    0    0 -0.76669611810E+01 -0.99690152026E+01 -0.44427344189E+02  0.46173070826E+02  0.00000000000E+00 0.  1.
         12    1    4    4    0    0  0.27623857202E+02  0.15791743277E+02  0.22410745510E+02  0.38919123278E+02  0.00000000000E+00 0. -1.
         -5    1    5    5    0  502 -0.23545575935E+02 -0.29846112167E+02  0.86191252515E+02  0.94319704027E+02  0.47000000000E+01 0.  1.
         11    1    6    6    0    0  0.38008434810E+02  0.74126884145E+01  0.31675899636E+03  0.31911729950E+03  0.00000000000E+00 0. -1.
        -12    1    6    6    0    0  0.34754614582E+02  0.10982089643E+03  0.52302470029E+03  0.53555891332E+03  0.00000000000E+00 0.  1.
</event>
<event>
12    1  0.8358445E-002  0.2092868E+03  0.7818608E-02  0.1142256E+00
         21   -1    0    0  503  502  0.00000000000E+00  0.00000000000E+00  0.52229022010E+02  0.52229022010E+02  0.00000000000E+00 0.  1.
         21   -1    0    0  501  503 -0.00000000000E+00 -0.00000000000E+00 -0.11183964782E+04  0.11183964782E+04  0.00000000000E+00 0.  1.
          6    2    1    2  501    0  0.71244410844E+02 -0.95223731028E+02 -0.82772384076E+03  0.85377264230E+03  0.17221394584E+03 0.  0.
         24    2    3    3    0    0  0.53918729941E+02 -0.38345970358E+02 -0.22622891835E+03  0.24932786354E+03  0.81284790455E+02 0.  0.
         -6    2    1    2    0  502 -0.71244410844E+02  0.95223731028E+02 -0.23844361543E+03  0.31685285791E+03  0.17145568174E+03 0.  0.
        -24    2    5    5    0    0  0.62496194208E+01  0.30576413046E+01 -0.63693119517E+02  0.10458006492E+03  0.82654519492E+02 0.  0.
          5    1    3    3  501    0  0.17325680903E+02 -0.56877760669E+02 -0.60149492242E+03  0.60444477876E+03  0.47000000000E+01 0. -1.
        -13    1    4    4    0    0  0.50788163751E+02 -0.59683257330E+02 -0.20314753590E+03  0.21773940876E+03  0.00000000000E+00 0.  1.
         14    1    4    4    0    0  0.31305661901E+01  0.21337286972E+02 -0.23081382446E+02  0.31588454784E+02  0.00000000000E+00 0. -1.
         -5    1    5    5    0  502 -0.77494030265E+02  0.92166089723E+02 -0.17475049591E+03  0.21227279299E+03  0.47000000000E+01 0.  1.
         11    1    6    6    0    0  0.15727196444E+02 -0.17455071153E+02 -0.75509645187E+02  0.79080533213E+02  0.00000000000E+00 0. -1.
        -12    1    6    6    0    0 -0.94775770229E+01  0.20512712458E+02  0.11816525670E+02  0.25499531712E+02  0.00000000000E+00 0.  1.
</event>
<event>
12    1  0.8358445E-002  0.1929789E+03  0.7818608E-02  0.1155924E+00
         21   -1    0    0  501  502  0.00000000000E+00  0.00000000000E+00  0.23981146996E+03  0.23981146996E+03  0.00000000000E+00 0.  1.
         21   -1    0    0  502  503 -0.00000000000E+00 -0.00000000000E+00 -0.40377324183E+03  0.40377324183E+03  0.00000000000E+00 0.  1.
         -6    2    1    2    0  503  0.25073680942E+01  0.83537451886E+02 -0.33459926992E+03  0.38598424953E+03  0.17332736856E+03 0.  0.
        -24    2    3    3    0    0 -0.12437518799E+02  0.10809009520E+03 -0.33000821344E+03  0.35649951216E+03  0.79676349564E+02 0.  0.
          6    2    1    2  501    0 -0.25073680942E+01 -0.83537451886E+02  0.17063749804E+03  0.25760046227E+03  0.17394266199E+03 0.  0.
         24    2    5    5    0    0 -0.48368479374E+02 -0.53751786405E+01  0.50919467573E+02  0.10737703099E+03  0.81047099041E+02 0.  0.
          5    1    5    5  501    0  0.45861111280E+02 -0.78162273246E+02  0.11971803047E+03  0.15022343128E+03  0.47000000000E+01 0. -1.
        -11    1    6    6    0    0 -0.25445338186E+02 -0.42233904856E+02  0.37492148289E+02  0.61942143473E+02  0.00000000000E+00 0.  1.
         12    1    6    6    0    0 -0.22923141189E+02  0.36858726215E+02  0.13427319284E+02  0.45434887513E+02  0.00000000000E+00 0. -1.
         -5    1    3    3    0  503  0.14944886894E+02 -0.24552643313E+02 -0.45910564750E+01  0.29484737365E+02  0.47000000000E+01 0.  1.
         13    1    4    4    0    0  0.32951890223E+02  0.30287964418E+02 -0.10626872851E+03  0.11530928200E+03  0.00000000000E+00 0. -1.
        -14    1    4    4    0    0 -0.45389409022E+02  0.77802130781E+02 -0.22373948493E+03  0.24119023016E+03  0.00000000000E+00 0.  1.
</event>
<event>
12    1  0.8358445E-002  0.2443786E+03  0.7818608E-02  0.1116925E+00
         21   -1    0    0  503  502  0.00000000000E+00  0.00000000000E+00  0.15203615061E+03  0.15203615061E+03  0.00000000000E+00 0.  1.
         21   -1    0    0  501  503 -0.00000000000E+00 -0.00000000000E+00 -0.42782837905E+03  0.42782837905E+03  0.00000000000E+00 0. -1.
          6    2    1    2  501    0  0.11238315840E+03  0.13202468564E+03 -0.54791830937E+02  0.25044567560E+03  0.17222194918E+03 0.  0.
         24    2    3    3    0    0  0.13676785025E+03  0.14275092447E+03 -0.62401586416E+02  0.22234471877E+03  0.80373781036E+02 0.  0.
         -6    2    1    2    0  502 -0.11238315840E+03 -0.13202468564E+03 -0.22100039751E+03  0.32941885406E+03  0.17209042334E+03 0.  0.
        -24    2    5    5    0    0 -0.70520392894E+02 -0.16324681993E+03 -0.18125164374E+03  0.26362093441E+03  0.70860346213E+02 0.  0.
          5    1    3    3  501    0 -0.24384691851E+02 -0.10726238836E+02  0.76097554790E+01  0.28100956829E+02  0.47000000000E+01 0. -1.
        -13    1    4    4    0    0  0.93870418566E+02  0.81224025896E+02  0.99410728452E+00  0.12413696514E+03  0.00000000000E+00 0.  1.
         14    1    4    4    0    0  0.42897431681E+02  0.61526898579E+02 -0.63395693700E+02  0.98207753631E+02  0.00000000000E+00 0. -1.
         -5    1    5    5    0  502 -0.41862765502E+02  0.31222134293E+02 -0.39748753766E+02  0.65797919657E+02  0.47000000000E+01 0.  1.
         13    1    6    6    0    0 -0.30757106371E+02 -0.87375637004E+02 -0.45746888037E+02  0.10331156421E+03  0.00000000000E+00 0. -1.
        -14    1    6    6    0    0 -0.39763286523E+02 -0.75871182928E+02 -0.13550475571E+03  0.16030937020E+03  0.00000000000E+00 0.  1.
</event>
<event>
12    1  0.8358445E-002  0.1953169E+03  0.7818608E-02  0.1153871E+00
         21   -1    0    0  503  502  0.00000000000E+00  0.00000000000E+00  0.22840636249E+03  0.22840636249E+03  0.00000000000E+00 0.  1.
         21   -1    0    0  501  503 -0.00000000000E+00 -0.00000000000E+00 -0.25065958022E+03  0.25065958022E+03  0.00000000000E+00 0.  1.
          6    2    1    2  501    0  0.81574022505E+02 -0.45739188427E+02 -0.14986964970E+03  0.24575364607E+03  0.17084363656E+03 0.  0.
         24    2    3    3    0    0  0.81571239717E+02  0.30706984899E+02 -0.81893778732E+02  0.14334843889E+03  0.79027829705E+02 0.  0.
         -6    2    1    2    0  502 -0.81574022505E+02  0.45739188427E+02  0.12761643197E+03  0.23331229663E+03  0.17147092915E+03 0.  0.
        -24    2    5    5    0    0 -0.37326009826E+02 -0.37950166859E+02  0.87677699586E+02  0.13045809322E+03  0.80613205543E+02 0.  0.
          5    1    3    3  501    0  0.27827879845E-02 -0.76446173325E+02 -0.67975870968E+02  0.10240520718E+03  0.47000000000E+01 0. -1.
        -13    1    4    4    0    0  0.31203655094E+02  0.44545761844E+02 -0.71922357172E+02  0.90171051068E+02  0.00000000000E+00 0.  1.
         14    1    4    4    0    0  0.50367584623E+02 -0.13838776946E+02 -0.99714215596E+01  0.53177387826E+02  0.00000000000E+00 0. -1.
         -5    1    5    5    0  502 -0.44248012679E+02  0.83689355286E+02  0.39938732382E+02  0.10285420341E+03  0.47000000000E+01 0.  1.
         11    1    6    6    0    0 -0.94696291383E+01  0.19560809522E+02 -0.28462788196E+00  0.21734308321E+02  0.00000000000E+00 0. -1.
        -12    1    6    6    0    0 -0.27856380687E+02 -0.57510976381E+02  0.87962327468E+02  0.10872378490E+03  0.00000000000E+00 0.  1.
</event>
<event>
12    1  0.8358445E-002  0.2221813E+03  0.7818608E-02  0.1132305E+00
         21   -1    0    0  501  502  0.00000000000E+00  0.00000000000E+00  0.12453828761E+04  0.12453828761E+04  0.00000000000E+00 0.  1.
         21   -1    0    0  502  503 -0.00000000000E+00 -0.00000000000E+00 -0.69575506120E+02  0.69575506120E+02  0.00000000000E+00 0.  1.
         -6    2    1    2    0  503 -0.12081210978E+03 -0.71295757829E+02  0.15620050392E+03  0.27142462806E+03  0.17202930081E+03 0.  0.
        -24    2    3    3    0    0 -0.70701944890E+02 -0.10124253595E+03  0.15243010127E+03  0.21273779750E+03  0.82301996413E+02 0.  0.
          6    2    1    2  501    0  0.12081210978E+03  0.71295757829E+02  0.10196068661E+04  0.10435337542E+04  0.17229591930E+03 0.  0.
         24    2    5    5    0    0  0.13328325862E+03  0.34933207732E+02  0.95094063782E+03  0.96469908221E+03  0.85857244990E+02 0.  0.
          5    1    5    5  501    0 -0.12471148839E+02  0.36362550097E+02  0.68666228281E+02  0.78834671999E+02  0.47000000000E+01 0. -1.
        -11    1    6    6    0    0  0.11264965415E+03  0.58829760108E+02  0.66619057883E+03  0.67820407885E+03  0.00000000000E+00 0.  1.
         12    1    6    6    0    0  0.20633604469E+02 -0.23896552375E+02  0.28475005900E+03  0.28649500335E+03  0.00000000000E+00 0. -1.
         -5    1    3    3    0  503 -0.50110164894E+02  0.29946778119E+02  0.37704026514E+01  0.58686830563E+02  0.47000000000E+01 0.  1.
         13    1    4    4    0    0  0.15929385236E+02 -0.18481143418E+02  0.93728132694E+01  0.26137092505E+02  0.00000000000E+00 0. -1.
        -14    1    4    4    0    0 -0.86631330126E+02 -0.82761392531E+02  0.14305728800E+03  0.18660070499E+03  0.00000000000E+00 0.  1.
</event>
<event>
12    1  0.8358445E-002  0.2975116E+03  0.7818608E-02  0.1086663E+00
         21   -1    0    0  503  502  0.00000000000E+00  0.00000000000E+00  0.80412836286E+02  0.80412836286E+02  0.00000000000E+00 0.  1.
         21   -1    0    0  501  503 -0.00000000000E+00 -0.00000000000E+00 -0.15451195192E+04  0.15451195192E+04  0.00000000000E+00 0. -1.
          6    2    1    2  501    0  0.23811134257E+03 -0.37728485515E+02 -0.29520784242E+03  0.41911912857E+03  0.17433509006E+03 0.  0.
         24    2    3    3    0    0  0.18264396193E+03 -0.87057648165E+02 -0.18044391379E+03  0.28236077995E+03  0.78928784964E+02 0.  0.
         -6    2    1    2    0  502 -0.23811134257E+03  0.37728485515E+02 -0.11694988405E+04  0.12064132269E+04  0.17200257582E+03 0.  0.
        -24    2    5    5    0    0 -0.17246234817E+03 -0.36620733081E+02 -0.67786981928E+03  0.70485686790E+03  0.78939044263E+02 0.  0.
          5    1    3    3  501    0  0.55467380643E+02  0.49329162650E+02 -0.11476392864E+03  0.13675834863E+03  0.47000000000E+01 0. -1.
        -11    1    4    4    0    0  0.11724113531E+03 -0.85093228167E+02 -0.15499113009E+03  0.21215228421E+03  0.00000000000E+00 0.  1.
         12    1    4    4    0    0  0.65402826618E+02 -0.19644199980E+01 -0.25452783697E+02  0.70208495736E+02  0.00000000000E+00 0. -1.
         -5    1    5    5    0  502 -0.65648994399E+02  0.74349218596E+02 -0.49162902120E+03  0.50155635901E+03  0.47000000000E+01 0.  1.
         11    1    6    6    0    0 -0.44424598969E+02 -0.46540882308E+02 -0.24842988406E+03  0.25662619900E+03  0.00000000000E+00 0. -1.
        -12    1    6    6    0    0 -0.12803774920E+03  0.99201492271E+01 -0.42943993522E+03  0.44823066890E+03  0.00000000000E+00 0.  1.
</event>
<event>
12    1  0.8358445E-002  0.1781730E+03  0.7818608E-02  0.1170017E+00
         21   -1    0    0  501  502  0.00000000000E+00  0.00000000000E+00  0.11173080889E+03  0.11173080889E+03  0.00000000000E+00 0. -1.
         21   -1    0    0  502  503 -0.00000000000E+00 -0.00000000000E+00 -0.30959888525E+03  0.30959888525E+03  0.00000000000E+00 0. -1.
         -6    2    1    2    0  503 -0.37229301439E+02  0.20443650413E+02 -0.16304437520E+03  0.24151418562E+03  0.17303661417E+03 0.  0.
        -24    2    3    3    0    0 -0.27902502692E+02  0.11622236217E+02 -0.82023738269E+01  0.86069848596E+02  0.80169282582E+02 0.  0.
          6    2    1    2  501    0  0.37229301439E+02 -0.20443650413E+02 -0.34823701157E+02  0.17981550852E+03  0.17122197059E+03 0.  0.
         24    2    5    5    0    0 -0.28482016498E+02 -0.49043109168E+02 -0.43337352615E+02  0.10749346065E+03  0.80375780747E+02 0.  0.
          5    1    5    5  501    0  0.65711317937E+02  0.28599458755E+02  0.85136514581E+01  0.72322047864E+02  0.47000000000E+01 0. -1.
        -13    1    6    6    0    0  0.50764956482E+01  0.18085850304E+02 -0.23079089998E+02  0.29757573564E+02  0.00000000000E+00 0.  1.
         14    1    6    6    0    0 -0.33558512146E+02 -0.67128959472E+02 -0.20258262617E+02  0.77735887089E+02  0.00000000000E+00 0. -1.
         -5    1    3    3    0  503 -0.93267987467E+01  0.88214141960E+01 -0.15484200137E+03  0.15544433702E+03  0.47000000000E+01 0.  1.
         11    1    4    4    0    0  0.24030581445E+02  0.20243109113E+02 -0.11158580388E+02  0.33343158630E+02  0.00000000000E+00 0. -1.
        -12    1    4    4    0    0 -0.51933084137E+02 -0.86208728957E+01  0.29562065614E+01  0.52726689966E+02  0.00000000000E+00 0.  1.
</event>
<event>
12    1  0.8358445E-002  0.2043889E+03  0.7818608E-02  0.1146284E+00
         21   -1    0    0  503  502  0.00000000000E+00  0.00000000000E+00  0.14794550075E+03  0.14794550075E+03  0.00000000000E+00 0.  1.
         21   -1    0    0  501  503 -0.00000000000E+00 -0.00000000000E+00 -0.28200677281E+03  0.28200677281E+03  0.00000000000E+00 0.  1.
          6    2    1    2  501    0  0.46234020656E+02 -0.10254513218E+03 -0.79401581543E+02  0.21838078297E+03  0.16950653798E+03 0.  0.
         24    2    3    3    0    0  0.19437101449E+02 -0.82218650329E+02 -0.11873398458E+03  0.16641571131E+03  0.80366177610E+02 0.  0.
         -6    2    1    2    0  502 -0.46234020656E+02  0.10254513218E+03 -0.54659690515E+02  0.21157149059E+03  0.17065088651E+03 0.  0.
        -24    2    5    5    0    0 -0.59751565510E+02  0.45814375949E+01 -0.49719386929E+02  0.11244477333E+03  0.81120715369E+02 0.  0.
          5    1    3    3  501    0  0.26796919207E+02 -0.20326481849E+02  0.39332403035E+02  0.51965071653E+02  0.47000000000E+01 0. -1.
        -11    1    4    4    0    0 -0.13458742590E+02 -0.79134938772E+02 -0.64784549884E+02  0.10315286807E+03  0.00000000000E+00 0.  1.
         12    1    4    4    0    0  0.32895844038E+02 -0.30837115561E+01 -0.53949434694E+02  0.63262843247E+02  0.00000000000E+00 0. -1.
         -5    1    5    5    0  502  0.13517544854E+02  0.97963694583E+02 -0.49403035857E+01  0.99126717260E+02  0.47000000000E+01 0.  1.
         11    1    6    6    0    0 -0.65303082506E+02  0.10047474054E+02 -0.41364732440E+01  0.66200866540E+02  0.00000000000E+00 0. -1.
        -12    1    6    6    0    0  0.55515169963E+01 -0.54660364589E+01 -0.45582913685E+02  0.46243906794E+02  0.00000000000E+00 0.  1.
</event>
<event>
12    1  0.8358445E-002  0.2291017E+03  0.7818608E-02  0.1127360E+00
         21   -1    0    0  501  502  0.00000000000E+00  0.00000000000E+00  0.82197688366E+02  0.82197688366E+02  0.00000000000E+00 0. -1.
         21   -1    0    0  502  503 -0.00000000000E+00 -0.00000000000E+00 -0.93424004169E+03  0.93424004169E+03  0.00000000000E+00 0. -1.
         -6    2    1    2    0  503  0.12873059185E+03 -0.79793185614E+02 -0.13913496737E+03  0.26762230764E+03  0.17124439451E+03 0.  0.
        -24    2    3    3    0    0  0.80516246445E+02 -0.25613802018E+02 -0.15439729786E+03  0.19335887490E+03  0.80063700403E+02 0.  0.
          6    2    1    2  501    0 -0.12873059185E+03  0.79793185614E+02 -0.71290738595E+03  0.74881542242E+03  0.17189845306E+03 0.  0.
         24    2    5    5    0    0 -0.48529847023E+02  0.95051836840E+02 -0.55677080677E+03  0.57256075648E+03  0.80262636702E+02 0.  0.
          5    1    5    5  501    0 -0.80200744826E+02 -0.15258651226E+02 -0.15613657919E+03  0.17625466595E+03  0.47000000000E+01 0. -1.
        -13    1    6    6    0    0 -0.86796531421E+01  0.38939506989E+01 -0.24748317886E+03  0.24766595053E+03  0.00000000000E+00 0.  1.
         14    1    6    6    0    0 -0.39850193881E+02  0.91157886141E+02 -0.30928762791E+03  0.32489480595E+03  0.00000000000E+00 0. -1.
         -5    1    3    3    0  503  0.48214345404E+02 -0.54179383595E+02  0.15262330485E+02  0.74263432734E+02  0.47000000000E+01 0.  1.
         13    1    4    4    0    0  0.72302676859E+02 -0.28283272608E+02 -0.58848530862E+02  0.97420583939E+02  0.00000000000E+00 0. -1.
        -14    1    4    4    0    0  0.82135695864E+01  0.26694705893E+01 -0.95548766996E+02  0.95938290964E+02  0.00000000000E+00 0.  1.
</event>
<event>
12    1  0.8358445E-002  0.4476592E+03  0.7818608E-02  0.1028466E+00
         21   -1    0    0  501  502  0.00000000000E+00  0.00000000000E+00  0.38747597206E+03  0.38747597206E+03  0.00000000000E+00 0.  1.
         21   -1    0    0  502  503 -0.00000000000E+00 -0.00000000000E+00 -0.52733618927E+03  0.52733618927E+03  0.00000000000E+00 0. -1.
         -6    2    1    2    0  503 -0.71932330888E+02  0.40660165892E+03 -0.13546951726E+03  0.46770795558E+03  0.17291492806E+03 0.  0.
        -24    2    3    3    0    0 -0.67339591423E+02  0.18616890823E+03 -0.12301855897E+03  0.24682607041E+03  0.81216132758E+02 0.  0.
          6    2    1    2  501    0  0.71932330888E+02 -0.40660165892E+03 -0.43906999500E+01  0.44710420574E+03  0.17141681155E+03 0.  0.
         24    2    5    5    0    0  0.10646275395E+03 -0.24826904588E+03 -0.45529639283E+02  0.27984372386E+03  0.57164014986E+02 0.  0.
          5    1    5    5  501    0 -0.34530423064E+02 -0.15833261304E+03  0.41138939333E+02  0.16726048188E+03  0.47000000000E+01 0. -1.
        -13    1    6    6    0    0  0.46252105761E+02 -0.46739613738E+02 -0.12526172036E+02  0.66938432650E+02  0.00000000000E+00 0.  1.
         14    1    6    6    0    0  0.60210648191E+02 -0.20152943214E+03 -0.33003467247E+02  0.21290529121E+03  0.00000000000E+00 0. -1.
         -5    1    3    3    0  503 -0.45927394647E+01  0.22043275069E+03 -0.12450958287E+02  0.22088188517E+03  0.47000000000E+01 0.  1.
         13    1    4    4    0    0  0.13017015667E+02  0.78202035773E+02 -0.41651525923E+02  0.89553619177E+02  0.00000000000E+00 0. -1.
        -14    1    4    4    0    0 -0.80356607090E+02  0.10796687245E+03 -0.81367033050E+02  0.15727245124E+03  0.00000000000E+00 0.  1.
</event>
<event>
12    1  0.8358445E-002  0.2050572E+03  0.7818608E-02  0.1146002E+00
         21   -1    0    0  503  502  0.00000000000E+00  0.00000000000E+00  0.21239753954E+04  0.21239753954E+04  0.00000000000E+00 0.  1.
         21   -1    0    0  501  503 -0.00000000000E+00 -0.00000000000E+00 -0.85484221198E+02  0.85484221198E+02  0.00000000000E+00 0.  1.
          6    2    1    2  501    0  0.98001780754E+02 -0.42720105363E+02  0.47974218093E+02  0.20840833979E+03  0.17234603001E+03 0.  0.
         24    2    3    3    0    0  0.11628937582E+03 -0.32414021392E+02 -0.11466162601E+02  0.14519520542E+03  0.79851656719E+02 0.  0.
         -6    2    1    2    0  502 -0.98001780754E+02  0.42720105363E+02  0.19905169561E+04  0.20010512768E+04  0.17498315179E+03 0.  0.
        -24    2    5    5    0    0 -0.11337206966E+02  0.53897912245E+01  0.41884144912E+03  0.42653856171E+03  0.79683141373E+02 0.  0.
          5    1    3    3  501    0 -0.18287595068E+02 -0.10306083971E+02  0.59440380694E+02  0.63213134373E+02  0.47000000000E+01 0. -1.
        -13    1    4    4    0    0  0.84681290509E+02  0.63586537289E+01 -0.32503630355E+02  0.90927660400E+02  0.00000000000E+00 0.  1.
         14    1    4    4    0    0  0.31608085312E+02 -0.38772675121E+02  0.21037467754E+02  0.54267545021E+02  0.00000000000E+00 0. -1.
         -5    1    5    5    0  502 -0.86664573788E+02  0.37330314138E+02  0.15716755070E+04  0.15745127151E+04  0.47000000000E+01 0.  1.
         13    1    6    6    0    0 -0.17240974991E+01  0.42357651248E+02  0.21106848878E+03  0.21528365030E+03  0.00000000000E+00 0. -1.
        -14    1    6    6    0    0 -0.96131094666E+01 -0.36967860024E+02  0.20777296034E+03  0.21125491141E+03  0.00000000000E+00 0.  1.
</event>
<event>
12    1  0.8358445E-002  0.2634366E+03  0.7818608E-02  0.1105143E+00
         21   -1    0    0  501  502  0.00000000000E+00  0.00000000000E+00  0.19195981034E+04  0.19195981034E+04  0.00000000000E+00 0. -1.
         21   -1    0    0  502  503 -0.00000000000E+00 -0.00000000000E+00 -0.38350999096E+02  0.38350999096E+02  0.00000000000E+00 0.  1.
         -6    2    1    2    0  503 -0.17656172288E+03 -0.94785446966E+02  0.11778471457E+04  0.12069477040E+04  0.17099865071E+03 0.  0.
        -24    2    3    3    0    0 -0.62120320516E+02 -0.34664525842E+02  0.28303097671E+03  0.30282966631E+03  0.80862286938E+02 0.  0.
          6    2    1    2  501    0  0.17656172288E+03  0.94785446966E+02  0.70339995863E+03  0.75100139855E+03  0.17050887333E+03 0.  0.
         24    2    5    5    0    0  0.52158551762E+02  0.37902840970E+02  0.14601908910E+03  0.17706124177E+03  0.76628774491E+02 0.  0.
          5    1    5    5  501    0  0.12440317112E+03  0.56882605996E+02  0.55738086953E+03  0.57394015678E+03  0.47000000000E+01 0. -1.
        -13    1    6    6    0    0  0.63878197467E+02  0.14313707765E+02  0.66589175467E+02  0.93377859426E+02  0.00000000000E+00 0.  1.
         14    1    6    6    0    0 -0.11719645705E+02  0.23589133205E+02  0.79429913632E+02  0.83683382343E+02  0.00000000000E+00 0. -1.
         -5    1    3    3    0  503 -0.11444140236E+03 -0.60120921125E+02  0.89481616901E+03  0.90411803768E+03  0.47000000000E+01 0.  1.
         11    1    4    4    0    0 -0.11515980071E+02 -0.11638872757E+02  0.21198308997E+03  0.21261446703E+03  0.00000000000E+00 0. -1.
        -12    1    4    4    0    0 -0.50604340445E+02 -0.23025653085E+02  0.71047886737E+02  0.90215199283E+02  0.00000000000E+00 0.  1.
</event>
<event>
12    1  0.8358445E-002  0.1928912E+03  0.7818608E-02  0.1158431E+00
         21   -1    0    0  501  502  0.00000000000E+00  0.00000000000E+00  0.10671901862E+03  0.10671901862E+03  0.00000000000E+00 0.  1.
         21   -1    0    0  502  503 -0.00000000000E+00 -0.00000000000E+00 -0.10245781284E+04  0.10245781284E+04  0.00000000000E+00 0.  1.
         -6    2    1    2    0  503  0.30253133270E+02 -0.49702911720E+02 -0.92062437932E+03  0.93838616866E+03  0.17214448064E+03 0.  0.
        -24    2    3    3    0    0  0.58987276624E+02  0.12226997065E+02 -0.71016738537E+03  0.71708275499E+03  0.78999772159E+02 0.  0.
          6    2    1    2  501    0 -0.30253133270E+02  0.49702911720E+02  0.27652695146E+01  0.19291097839E+03  0.18390586549E+03 0.  0.
         24    2    5    5    0    0 -0.59251700060E+02  0.47256729152E+02  0.66203625554E+02  0.12295802490E+03  0.70652625145E+02 0.  0.
          5    1    5    5  501    0  0.28998566790E+02  0.24461825687E+01 -0.63438356040E+02  0.69952953491E+02  0.47000000000E+01 0. -1.
        -11    1    6    6    0    0 -0.31626812127E+02  0.57832547146E+02  0.66140497319E+02  0.93377856798E+02  0.00000000000E+00 0.  1.
         12    1    6    6    0    0 -0.27624887933E+02 -0.10575817994E+02  0.63128235878E-01  0.29580168098E+02  0.00000000000E+00 0. -1.
         -5    1    3    3    0  503 -0.28734143354E+02 -0.61929908785E+02 -0.21045699395E+03  0.22130341366E+03  0.47000000000E+01 0.  1.
         11    1    4    4    0    0  0.17637971026E+02  0.33044214394E+02 -0.13636146059E+03  0.14141239712E+03  0.00000000000E+00 0. -1.
        -12    1    4    4    0    0  0.41349305598E+02 -0.20817217330E+02 -0.57380592479E+03  0.57567035787E+03  0.00000000000E+00 0.  1.
</event>
<event>
12    1  0.8358445E-002  0.1799193E+03  0.7818608E-02  0.1168527E+00
         21   -1    0    0  501  502  0.00000000000E+00  0.00000000000E+00  0.34899178128E+03  0.34899178128E+03  0.00000000000E+00 0.  1.
         21   -1    0    0  502  503 -0.00000000000E+00 -0.00000000000E+00 -0.95650812508E+02  0.95650812508E+02  0.00000000000E+00 0.  1.
         -6    2    1    2    0  503 -0.33797698251E+02  0.40329706166E+02  0.80684260266E+02  0.19718238245E+03  0.17205281888E+03 0.  0.
        -24    2    3    3    0    0 -0.24263995867E+01 -0.24353998467E+02 -0.86771287991E+01  0.82396983198E+02  0.78198245630E+02 0.  0.
          6    2    1    2  501    0  0.33797698251E+02 -0.40329706166E+02  0.17265670851E+03  0.24746021134E+03  0.16928510743E+03 0.  0.
         24    2    5    5    0    0  0.30939379578E+02 -0.89799755121E+02  0.11431497013E+03  0.17077054994E+03  0.84103668783E+02 0.  0.
          5    1    5    5  501    0  0.28583186734E+01  0.49470048955E+02  0.58341738380E+02  0.76689661406E+02  0.47000000000E+01 0. -1.
        -11    1    6    6    0    0  0.20241970906E+02 -0.92692567216E+02  0.53433751070E+02  0.10888900384E+03  0.00000000000E+00 0.  1.
         12    1    6    6    0    0  0.10697408672E+02  0.28928120947E+01  0.60881219056E+02  0.61881546101E+02  0.00000000000E+00 0. -1.
         -5    1    3    3    0  503 -0.31371298665E+02  0.64683704633E+02  0.89361389065E+02  0.11478539925E+03  0.47000000000E+01 0.  1.
         13    1    4    4    0    0  0.23306442490E+02  0.12175181705E+02  0.16564446550E+02  0.31077422683E+02  0.00000000000E+00 0. -1.
        -14    1    4    4    0    0 -0.25732842077E+02 -0.36529180172E+02 -0.25241575349E+02  0.51319560515E+02  0.00000000000E+00 0.  1.
</event>
<event>
12    1  0.8358445E-002  0.2014560E+03  0.7818608E-02  0.1148594E+00
         21   -1    0    0  503  502  0.00000000000E+00  0.00000000000E+00  0.49082767714E+02  0.49082767714E+02  0.00000000000E+00 0.  1.
         21   -1    0    0  501  503 -0.00000000000E+00 -0.00000000000E+00 -0.82536690673E+03  0.82536690673E+03  0.00000000000E+00 0.  1.
          6    2    1    2  501    0 -0.14646876055E+02 -0.10127098595E+03 -0.38475849442E+03  0.43413520109E+03  0.17310092496E+03 0.  0.
         24    2    3    3    0    0  0.16031139587E+02 -0.12714798945E+03 -0.34879943198E+03  0.38004357396E+03  0.79677259617E+02 0.  0.
         -6    2    1    2    0  502  0.14646876055E+02  0.10127098595E+03 -0.39152564460E+03  0.44031447336E+03  0.17353432369E+03 0.  0.
        -24    2    5    5    0    0 -0.54996678901E+02  0.88924282729E+02 -0.28608681333E+03  0.31326289735E+03  0.73183436279E+02 0.  0.
          5    1    3    3  501    0 -0.30678015642E+02  0.25877003501E+02 -0.35959062438E+02  0.54091627128E+02  0.47000000000E+01 0. -1.
        -13    1    4    4    0    0  0.89712781339E+01 -0.72605399583E+02 -0.29182437085E+03  0.30085460160E+03  0.00000000000E+00 0.  1.
         14    1    4    4    0    0  0.70598614535E+01 -0.54542589863E+02 -0.56975061129E+02  0.79188972359E+02  0.00000000000E+00 0. -1.
         -5    1    5    5    0  502  0.69643554956E+02  0.12346703217E+02 -0.10543883127E+03  0.12705157601E+03  0.47000000000E+01 0.  1.
         13    1    6    6    0    0 -0.24399410524E+02 -0.72992617878E+01 -0.76375829390E+02  0.80510109748E+02  0.00000000000E+00 0. -1.
        -14    1    6    6    0    0 -0.30597268377E+02  0.96223544516E+02 -0.20971098394E+03  0.23275278760E+03  0.00000000000E+00 0.  1.
</event>
<event>
12    1  0.8358445E-002  0.1846376E+03  0.7818608E-02  0.1163748E+00
         21   -1    0    0  503  502  0.00000000000E+00  0.00000000000E+00  0.20290682646E+03  0.20290682646E+03  0.00000000000E+00 0.  1.
         21   -1    0    0  501  503 -0.00000000000E+00 -0.00000000000E+00 -0.29777736696E+03  0.29777736696E+03  0.00000000000E+00 0. -1.
          6    2    1    2  501    0 -0.62748958417E+02 -0.21068787477E+02 -0.21368404019E+03  0.28240380158E+03  0.17236505599E+03 0.  0.
         24    2    3    3    0    0 -0.62284519797E+02  0.38678233450E+02 -0.66164326869E+02  0.12317416228E+03  0.73612423912E+02 0.  0.
         -6    2    1    2    0  502  0.62748958417E+02  0.21068787477E+02  0.11881349969E+03  0.21828039184E+03  0.17072889670E+03 0.  0.
        -24    2    5    5    0    0 -0.13783336281E+02 -0.21028817683E+02  0.19066537262E+02  0.85611831117E+02  0.79584302798E+02 0.  0.
          5    1    3    3  501    0 -0.46443861928E+00 -0.59747020926E+02 -0.14751971332E+03  0.15922963930E+03  0.47000000000E+01 0. -1.
        -13    1    4    4    0    0  0.23290876979E+00 -0.13790123925E+02 -0.31715832266E+02  0.34584906833E+02  0.00000000000E+00 0.  1.
         14    1    4    4    0    0 -0.62517428567E+02  0.52468357374E+02 -0.34448494604E+02  0.88589255447E+02  0.00000000000E+00 0. -1.
         -5    1    5    5    0  502  0.76532294698E+02  0.42097605160E+02  0.99746962427E+02  0.13266856073E+03  0.47000000000E+01 0.  1.
         13    1    6    6    0    0 -0.23012494858E+02  0.68660180401E+01 -0.23689777937E+02  0.33733109877E+02  0.00000000000E+00 0. -1.
        -14    1    6    6    0    0  0.92291585764E+01 -0.27894835723E+02  0.42756315199E+02  0.51878721239E+02  0.00000000000E+00 0.  1.
</event>
<event>
12    1  0.8358445E-002  0.1878063E+03  0.7818608E-02  0.1160578E+00
         21   -1    0    0  503  502  0.00000000000E+00  0.00000000000E+00  0.28763017816E+03  0.28763017816E+03  0.00000000000E+00 0. -1.
         21   -1    0    0  501  503 -0.00000000000E+00 -0.00000000000E+00 -0.53188042239E+03  0.53188042239E+03  0.00000000000E+00 0. -1.
          6    2    1    2  501    0  0.49749900136E+02 -0.55484690441E+02 -0.48166795015E+03  0.51679230002E+03  0.17180414348E+03 0.  0.
         24    2    3    3    0    0  0.26898262821E+02 -0.77438318747E+02 -0.17982613009E+03  0.21325526198E+03  0.80125900589E+02 0.  0.
         -6    2    1    2    0  502 -0.49749900136E+02  0.55484690441E+02  0.23741770592E+03  0.30271830053E+03  0.17238793159E+03 0.  0.
        -24    2    5    5    0    0 -0.32705886356E+02  0.36641458433E+02  0.37499069087E+02  0.10113676083E+03  0.80063679216E+02 0.  0.
          5    1    3    3  501    0  0.22851637315E+02  0.21953628307E+02 -0.30184182006E+03  0.30353703804E+03  0.47000000000E+01 0. -1.
        -13    1    4    4    0    0 -0.10101071088E+02  0.92829950580E+00  0.32930322309E+01  0.10664775590E+02  0.00000000000E+00 0.  1.
         14    1    4    4    0    0  0.36999333909E+02 -0.78366618253E+02 -0.18311916232E+03  0.20259048639E+03  0.00000000000E+00 0. -1.
         -5    1    5    5    0  502 -0.17044013780E+02  0.18843232008E+02  0.19991863683E+03  0.20158153970E+03  0.47000000000E+01 0.  1.
         13    1    6    6    0    0 -0.44622241783E+01  0.18052519128E+02  0.58465620472E+02  0.61351720992E+02  0.00000000000E+00 0. -1.
        -14    1    6    6    0    0 -0.28243662177E+02  0.18588939305E+02 -0.20966551385E+02  0.39785039835E+02  0.00000000000E+00 0.  1.
</event>
<event>
12    1  0.8358445E-002  0.2411581E+03  0.7818608E-02  0.1119616E+00
         21   -1    0    0  503  502  0.00000000000E+00  0.00000000000E+00  0.19309741778E+03  0.19309741778E+03  0.00000000000E+00 0. -1.
         21   -1    0    0  501  503 -0.00000000000E+00 -0.00000000000E+00 -0.29676982664E+03  0.29676982664E+03  0.00000000000E+00 0. -1.
          6    2    1    2  501    0  0.15415908655E+03 -0.69657429517E+02 -0.52605676560E+02  0.24336162369E+03  0.16685425145E+03 0.  0.
         24    2    3    3    0    0  0.13695740341E+03 -0.14211410904E+02 -0.80770749865E+02  0.17866602695E+03  0.80239270965E+02 0.  0.
         -6    2    1    2    0  502 -0.15415908655E+03  0.69657429517E+02 -0.51066732292E+02  0.24650562073E+03  0.17187212820E+03 0.  0.
        -24    2    5    5    0    0 -0.87652978332E+01  0.80660189185E+01 -0.18562484338E+02  0.85224897173E+02  0.82321480587E+02 0.  0.
          5    1    3    3  501    0  0.17201683138E+02 -0.55446018612E+02  0.28165073304E+02  0.64695596736E+02  0.47000000000E+01 0. -1.
        -11    1    4    4    0    0  0.79477859436E+02 -0.47025247479E+02 -0.37986697488E+02  0.99855361534E+02  0.00000000000E+00 0.  1.
         12    1    4    4    0    0  0.57479543973E+02  0.32813836575E+02 -0.42784052377E+02  0.78810665419E+02  0.00000000000E+00 0. -1.
         -5    1    5    5    0  502 -0.14539378871E+03  0.61591410598E+02 -0.32504247954E+02  0.16128072356E+03  0.47000000000E+01 0.  1.
         11    1    6    6    0    0 -0.16179804712E+02 -0.33058925268E+02 -0.22683057816E+02  0.43234242589E+02  0.00000000000E+00 0. -1.
        -12    1    6    6    0    0  0.74145068787E+01  0.41124944187E+02  0.41205734778E+01  0.41990654584E+02  0.00000000000E+00 0.  1.
</event>
<event>
12    1  0.8358445E-002  0.2586295E+03  0.7818608E-02  0.1108185E+00
         21   -1    0    0  503  502  0.00000000000E+00  0.00000000000E+00  0.19445183596E+03  0.19445183596E+03  0.00000000000E+00 0. -1.
         21   -1    0    0  501  503 -0.00000000000E+00 -0.00000000000E+00 -0.36476721180E+03  0.36476721180E+03  0.00000000000E+00 0. -1.
          6    2    1    2  501    0 -0.19107477576E+03  0.13754512582E+02 -0.15507288130E+03  0.30155731102E+03  0.17375401223E+03 0.  0.
         24    2    3    3    0    0 -0.14399677892E+03 -0.54889559882E+02 -0.11867130556E+03  0.21058747433E+03  0.80723413325E+02 0.  0.
         -6    2    1    2    0  502  0.19107477576E+03 -0.13754512582E+02 -0.15242494538E+02  0.25766173673E+03  0.17163472955E+03 0.  0.
        -24    2    5    5    0    0  0.40488541570E+02 -0.48042888001E+02  0.39366068775E+01  0.10196384160E+03  0.80210267640E+02 0.  0.
          5    1    3    3  501    0 -0.47077996844E+02  0.68644072464E+02 -0.36401575742E+02  0.90969836692E+02  0.47000000000E+01 0. -1.
        -13    1    4    4    0    0  0.79576380315E+01 -0.14468374049E+02 -0.14473415427E+02  0.21957632039E+02  0.00000000000E+00 0.  1.
         14    1    4    4    0    0 -0.15195441695E+03 -0.40421185833E+02 -0.10419789013E+03  0.18862984229E+03  0.00000000000E+00 0. -1.
         -5    1    5    5    0  502  0.15058623419E+03  0.34288375419E+02 -0.19179101415E+02  0.15569789513E+03  0.47000000000E+01 0.  1.
         11    1    6    6    0    0  0.28113357223E+02  0.86106193522E+01  0.26652033369E+02  0.39684184541E+02  0.00000000000E+00 0. -1.
        -12    1    6    6    0    0  0.12375184347E+02 -0.56653507354E+02 -0.22715426492E+02  0.62279657062E+02  0.00000000000E+00 0.  1.
</event>
<event>
12    1  0.8358445E-002  0.2471947E+03  0.7818608E-02  0.1115140E+00
         21   -1    0    0  501  502  0.00000000000E+00  0.00000000000E+00  0.33420645794E+03  0.33420645794E+03  0.00000000000E+00 0. -1.
         21   -1    0    0  502  503 -0.00000000000E+00 -0.00000000000E+00 -0.23534641248E+03  0.23534641248E+03  0.00000000000E+00 0.  1.
         -6    2    1    2    0  503 -0.13034300270E+03 -0.11990823005E+03 -0.85349371409E+02  0.26151430839E+03  0.17244690866E+03 0.  0.
        -24    2    3    3    0    0  0.92079932583E+00 -0.72083802716E+02 -0.36093186287E+02  0.11330626764E+03  0.79615762910E+02 0.  0.
          6    2    1    2  501    0  0.13034300270E+03  0.11990823005E+03  0.18420941686E+03  0.30803856203E+03  0.17200978011E+03 0.  0.
         24    2    5    5    0    0  0.13513404817E+03  0.69036222894E+02  0.19275680991E+03  0.25601872777E+03  0.73233804728E+02 0.  0.
          5    1    5    5  501    0 -0.47910454769E+01  0.50872007154E+02 -0.85473930484E+01  0.52019834261E+02  0.47000000000E+01 0. -1.
        -13    1    6    6    0    0  0.19540405961E+02  0.88908185075E+01 -0.21400631845E+01  0.21574382709E+02  0.00000000000E+00 0.  1.
         14    1    6    6    0    0  0.11559364221E+03  0.60145404386E+02  0.19489687310E+03  0.23444434506E+03  0.00000000000E+00 0. -1.
         -5    1    3    3    0  503 -0.13126380202E+03 -0.47824427332E+02 -0.49256185123E+02  0.14820804075E+03  0.47000000000E+01 0.  1.
         11    1    4    4    0    0 -0.32769088262E+02 -0.64771552698E+02 -0.20216074446E+02  0.75351555063E+02  0.00000000000E+00 0. -1.
        -12    1    4    4    0    0  0.33689887588E+02 -0.73122500177E+01 -0.15877111841E+02  0.37954712572E+02  0.00000000000E+00 0.  1.
</event>
<event>
12    1  0.8358445E-002  0.2243475E+03  0.7818608E-02  0.1131075E+00
         21   -1    0    0  501  502  0.00000000000E+00  0.00000000000E+00  0.91521820405E+03  0.91521820405E+03  0.00000000000E+00 0.  1.
         21   -1    0    0  502  503 -0.00000000000E+00 -0.00000000000E+00 -0.64457131604E+02  0.64457131604E+02  0.00000000000E+00 0. -1.
         -6    2    1    2    0  503 -0.14337591924E+03  0.14185209924E+02  0.23429023472E+03  0.32438201891E+03  0.17197065363E+03 0.  0.
        -24    2    3    3    0    0 -0.11651335704E+03 -0.38870819645E+02  0.10215562125E+03  0.17940551875E+03  0.81634957080E+02 0.  0.
          6    2    1    2  501    0  0.14337591924E+03 -0.14185209924E+02  0.61647083772E+03  0.65529331674E+03  0.16916016908E+03 0.  0.
         24    2    5    5    0    0  0.30491765970E+02 -0.47407033917E+02  0.36013728277E+03  0.37320201407E+03  0.80023160442E+02 0.  0.
          5    1    5    5  501    0  0.11288415327E+03  0.33221823993E+02  0.25633355495E+03  0.28209130267E+03  0.47000000000E+01 0. -1.
        -11    1    6    6    0    0  0.16123671526E+02 -0.49141640554E+02  0.35352931394E+03  0.35729238647E+03  0.00000000000E+00 0.  1.
         12    1    6    6    0    0  0.14368094444E+02  0.17346066374E+01  0.66079688359E+01  0.15909627597E+02  0.00000000000E+00 0. -1.
         -5    1    3    3    0  503 -0.26862562197E+02  0.53056029568E+02  0.13213461347E+03  0.14497650016E+03  0.47000000000E+01 0.  1.
         11    1    4    4    0    0 -0.10496752962E+03 -0.29856016426E+01  0.93778936895E+02  0.14078915121E+03  0.00000000000E+00 0. -1.
        -12    1    4    4    0    0 -0.11545827419E+02 -0.35885218002E+02  0.83766843573E+01  0.38616367549E+02  0.00000000000E+00 0.  1.
</event>
<event>
12    1  0.8358445E-002  0.1759861E+03  0.7818608E-02  0.1171982E+00
         21   -1    0    0  503  502  0.00000000000E+00  0.00000000000E+00  0.49785807970E+03  0.49785807970E+03  0.00000000000E+00 0.  1.
         21   -1    0    0  501  503 -0.00000000000E+00 -0.00000000000E+00 -0.61955503021E+02  0.61955503021E+02  0.00000000000E+00 0.  1.
          6    2    1    2  501    0 -0.24607038540E+01 -0.35341293270E+02  0.20723215201E+03  0.27126328942E+03  0.17141629235E+03 0.  0.
         24    2    3    3    0    0  0.17308497931E+02 -0.87431214968E+02  0.14277853970E+03  0.18593721239E+03  0.79013505800E+02 0.  0.
         -6    2    1    2    0  502  0.24607038540E+01  0.35341293270E+02  0.22867042467E+03  0.28855029331E+03  0.17238342895E+03 0.  0.
        -24    2    5    5    0    0  0.59110103819E+02  0.12641746711E+02  0.80133022757E+02  0.12789577673E+03  0.79260395125E+02 0.  0.
          5    1    3    3  501    0 -0.19769201785E+02  0.52089921698E+02  0.64453612309E+02  0.85326077030E+02  0.47000000000E+01 0. -1.
        -11    1    4    4    0    0 -0.29368897656E+02 -0.27965379820E+02  0.70585834370E+02  0.81406109302E+02  0.00000000000E+00 0.  1.
         12    1    4    4    0    0  0.46677395587E+02 -0.59465835148E+02  0.72192705332E+02  0.10453110308E+03  0.00000000000E+00 0. -1.
         -5    1    5    5    0  502 -0.56649399965E+02  0.22699546559E+02  0.14853740191E+03  0.16065451658E+03  0.47000000000E+01 0.  1.
         13    1    6    6    0    0 -0.82920162570E+01 -0.21896889686E+02  0.13546297964E+02  0.27050573008E+02  0.00000000000E+00 0. -1.
        -14    1    6    6    0    0  0.67402120076E+02  0.34538636396E+02  0.66586724792E+02  0.10084520372E+03  0.00000000000E+00 0.  1.
</event>
<event>
12    1  0.8358445E-002  0.2289747E+03  0.7818608E-02  0.1127387E+00
         21   -1    0    0  501  502  0.00000000000E+00  0.00000000000E+00  0.32695850072E+03  0.32695850072E+03  0.00000000000E+00 0.  1.
         21   -1    0    0  502  503 -0.00000000000E+00 -0.00000000000E+00 -0.20654629347E+03  0.20654629347E+03  0.00000000000E+00 0.  1.
         -6    2    1    2    0  503  0.13053063923E+03 -0.75451429264E+02 -0.66056919564E+02  0.23831268431E+03  0.17233181055E+03 0.  0.
        -24    2    3    3    0    0  0.14998962657E+03 -0.72323859680E+02 -0.91196529075E+02  0.20602454645E+03  0.80010487226E+02 0.  0.
          6    2    1    2  501    0 -0.13053063923E+03  0.75451429264E+02  0.18646912681E+03  0.29519210988E+03  0.17215249207E+03 0.  0.
         24    2    5    5    0    0 -0.19786632224E+02  0.58761180913E+02  0.15247671328E+03  0.17805811116E+03  0.67905490660E+02 0.  0.
          5    1    5    5  501    0 -0.11074400700E+03  0.16690248351E+02  0.33992413531E+02  0.11713399871E+03  0.47000000000E+01 0. -1.
        -13    1    6    6    0    0  0.72901137325E+01  0.58773935984E+02  0.72458506945E+02  0.93582885925E+02  0.00000000000E+00 0.  1.
         14    1    6    6    0    0 -0.27076745956E+02 -0.12755071324E-01  0.80018206334E+02  0.84475225239E+02  0.00000000000E+00 0. -1.
         -5    1    3    3    0  503 -0.19458987349E+02 -0.31275695834E+01  0.25139609511E+02  0.32288137861E+02  0.47000000000E+01 0.  1.
         11    1    4    4    0    0  0.35161343073E+02 -0.63622407955E+01 -0.60222063590E+02  0.70024960534E+02  0.00000000000E+00 0. -1.
        -12    1    4    4    0    0  0.11482828350E+03 -0.65961618885E+02 -0.30974465485E+02  0.13599958592E+03  0.00000000000E+00 0.  1.
</event>
<event>
12    1  0.8358445E-002  0.2790895E+03  0.7818608E-02  0.1096284E+00
         21   -1    0    0  503  502  0.00000000000E+00  0.00000000000E+00  0.37310019842E+03  0.37310019842E+03  0.00000000000E+00 0.  1.
         21   -1    0    0  501  503 -0.00000000000E+00 -0.00000000000E+00 -0.31825411670E+03  0.31825411670E+03  0.00000000000E+00 0.  1.
          6    2    1    2  501    0  0.17449112171E+02 -0.21881582941E+03 -0.17583793978E+03  0.32926861362E+03  0.17121331763E+03 0.  0.
         24    2    3    3    0    0  0.76826206760E+02 -0.12404540506E+03 -0.11917457469E+03  0.20380985690E+03  0.77758279023E+02 0.  0.
         -6    2    1    2    0  502 -0.17449112171E+02  0.21881582941E+03  0.23068402150E+03  0.36208570150E+03  0.17235457273E+03 0.  0.
        -24    2    5    5    0    0  0.26298785545E+01  0.22750761323E+03  0.23703368254E+03  0.33882369020E+03  0.82764098750E+02 0.  0.
          5    1    3    3  501    0 -0.59377094589E+02 -0.94770424350E+02 -0.56663365092E+02  0.12545875672E+03  0.47000000000E+01 0. -1.
        -11    1    4    4    0    0  0.53581467669E+02 -0.81602074676E+02 -0.29617827120E+02  0.10201513590E+03  0.00000000000E+00 0.  1.
         12    1    4    4    0    0  0.23244739092E+02 -0.42443330385E+02 -0.89556747565E+02  0.10179472100E+03  0.00000000000E+00 0. -1.
         -5    1    5    5    0  502 -0.20078990725E+02 -0.86917838241E+01 -0.63496610393E+01  0.23262011304E+02  0.47000000000E+01 0.  1.
         11    1    6    6    0    0  0.31709477802E+02  0.35794327462E+02  0.39525613263E+02  0.62040301134E+02  0.00000000000E+00 0. -1.
        -12    1    6    6    0    0 -0.29079599247E+02  0.19171328577E+03  0.19750806927E+03  0.27678338906E+03  0.00000000000E+00 0.  1.
</event>
<event>
12    1  0.8358445E-002  0.1895781E+03  0.7818608E-02  0.1159893E+00
         21   -1    0    0  501  502  0.00000000000E+00  0.00000000000E+00  0.17117593861E+03  0.17117593861E+03  0.00000000000E+00 0.  1.
         21   -1    0    0  502  503 -0.00000000000E+00 -0.00000000000E+00 -0.49890038344E+03  0.49890038344E+03  0.00000000000E+00 0.  1.
         -6    2    1    2    0  503  0.69865515673E+02 -0.16849174046E+02 -0.42022007009E+03  0.45913725377E+03  0.17046121421E+03 0.  0.
        -24    2    3    3    0    0  0.75676260435E+02 -0.61832665119E+02 -0.37342642431E+03  0.39379955785E+03  0.77978346467E+02 0.  0.
          6    2    1    2  501    0 -0.69865515673E+02  0.16849174046E+02  0.92495625255E+02  0.21093906829E+03  0.17542737783E+03 0.  0.
         24    2    5    5    0    0 -0.60512700754E+02  0.33904878546E+01  0.13299290582E+03  0.16699898278E+03  0.80797678742E+02 0.  0.
          5    1    5    5  501    0 -0.93528149189E+01  0.13458686191E+02 -0.40497280568E+02  0.43940085506E+02  0.47000000000E+01 0. -1.
        -13    1    6    6    0    0 -0.11312070112E+01 -0.31194442043E+02  0.30816953242E+02  0.43864079276E+02  0.00000000000E+00 0.  1.
         14    1    6    6    0    0 -0.59381493742E+02  0.34584929897E+02  0.10217595258E+03  0.12313490350E+03  0.00000000000E+00 0. -1.
         -5    1    3    3    0  503 -0.58107447623E+01  0.44983491072E+02 -0.46793645775E+02  0.65337695924E+02  0.47000000000E+01 0.  1.
         11    1    4    4    0    0  0.46166114287E+02 -0.12106333861E+02 -0.68799079930E+02  0.83732830044E+02  0.00000000000E+00 0. -1.
        -12    1    4    4    0    0  0.29510146148E+02 -0.49726331258E+02 -0.30462734438E+03  0.31006672780E+03  0.00000000000E+00 0.  1.
</event>
<event>
12    1  0.8358445E-002  0.2146905E+03  0.7818608E-02  0.1139108E+00
         21   -1    0    0  501  502  0.00000000000E+00  0.00000000000E+00  0.25191561525E+03  0.25191561525E+03  0.00000000000E+00 0. -1.
         21   -1    0    0  502  503 -0.00000000000E+00 -0.00000000000E+00 -0.23149256928E+03  0.23149256928E+03  0.00000000000E+00 0.  1.
         -6    2    1    2    0  503  0.51924612188E+02 -0.11638509508E+03 -0.10611851212E+03  0.23948518895E+03  0.17277257134E+03 0.  0.
        -24    2    3    3    0    0  0.83680715544E+02 -0.40659564752E+02 -0.31077217770E+02  0.12814745096E+03  0.82464012537E+02 0.  0.
          6    2    1    2  501    0 -0.51924612188E+02  0.11638509508E+03  0.12654155808E+03  0.24392299558E+03  0.16505758433E+03 0.  0.
         24    2    5    5    0    0  0.18480466436E+02  0.96709373519E+02  0.11407214668E+03  0.16961562492E+03  0.77863823439E+02 0.  0.
          5    1    5    5  501    0 -0.70405078624E+02  0.19675721560E+02  0.12469411401E+02  0.74307370669E+02  0.47000000000E+01 0. -1.
        -13    1    6    6    0    0  0.14631593640E+02  0.10774510412E+03  0.84153425814E+02  0.13749505471E+03  0.00000000000E+00 0.  1.
         14    1    6    6    0    0  0.38488727958E+01 -0.11035730601E+02  0.29918720869E+02  0.32120570203E+02  0.00000000000E+00 0. -1.
         -5    1    3    3    0  503 -0.31756103355E+02 -0.75725530327E+02 -0.75041294346E+02  0.11133773799E+03  0.47000000000E+01 0.  1.
         11    1    4    4    0    0  0.31538510888E+02 -0.54907793264E+02  0.44280937005E+01  0.63475597232E+02  0.00000000000E+00 0. -1.
        -12    1    4    4    0    0  0.52142204656E+02  0.14248228512E+02 -0.35505311471E+02  0.64671853729E+02  0.00000000000E+00 0.  1.
</event>
<event>
12    1  0.8358445E-002  0.2173846E+03  0.7818608E-02  0.1135994E+00
         21   -1    0    0  501  502  0.00000000000E+00  0.00000000000E+00  0.70196428078E+02  0.70196428078E+02  0.00000000000E+00 0. -1.
         21   -1    0    0  502  503 -0.00000000000E+00 -0.00000000000E+00 -0.94206865150E+03  0.94206865150E+03  0.00000000000E+00 0. -1.
         -6    2    1    2    0  503  0.12967186590E+03  0.26560582638E+02 -0.70807117770E+03  0.74068944916E+03  0.17244074358E+03 0.  0.
        -24    2    3    3    0    0  0.44805149581E+02  0.66647126595E+02 -0.49735676391E+03  0.50996895868E+03  0.79090121400E+02 0.  0.
          6    2    1    2  501    0 -0.12967186590E+03 -0.26560582638E+02 -0.16380104572E+03  0.27157563042E+03  0.17147093953E+03 0.  0.
         24    2    5    5    0    0 -0.65296971394E+02 -0.65107611696E+02 -0.15866212723E+03  0.19621981462E+03  0.69468334205E+02 0.  0.
          5    1    5    5  501    0 -0.64374894505E+02  0.38547029057E+02 -0.51389184887E+01  0.75355815800E+02  0.47000000000E+01 0. -1.
        -11    1    6    6    0    0 -0.53843180328E+02 -0.67077493156E+02 -0.82525398699E+02  0.11920117276E+03  0.00000000000E+00 0.  1.
         12    1    6    6    0    0 -0.11453791066E+02  0.19698814603E+01 -0.76136728530E+02  0.77018641860E+02  0.00000000000E+00 0. -1.
         -5    1    3    3    0  503  0.84866716318E+02 -0.40086543956E+02 -0.21071441379E+03  0.23072049047E+03  0.47000000000E+01 0.  1.
         11    1    4    4    0    0  0.56290164602E+02  0.23337419998E+02 -0.19468639935E+03  0.20400002916E+03  0.00000000000E+00 0. -1.
        -12    1    4    4    0    0 -0.11485015020E+02  0.43309706596E+02 -0.30267036456E+03  0.30596892953E+03  0.00000000000E+00 0.  1.
</event>
<event>
12    1  0.8358445E-002  0.2229674E+03  0.7818608E-02  0.1131696E+00
         21   -1    0    0  503  502  0.00000000000E+00  0.00000000000E+00  0.40579570021E+03  0.40579570021E+03  0.00000000000E+00 0.  1.
         21   -1    0    0  501  503 -0.00000000000E+00 -0.00000000000E+00 -0.22586218750E+03  0.22586218750E+03  0.00000000000E+00 0. -1.
          6    2    1    2  501    0 -0.41817345362E+02 -0.13519828023E+03  0.30362553596E+03  0.37667908495E+03  0.17225388706E+03 0.  0.
         24    2    3    3    0    0 -0.48144988908E+02 -0.53699870812E+02  0.26624077405E+03  0.28666941751E+03  0.78061444300E+02 0.  0.
         -6    2    1    2    0  502  0.41817345362E+02  0.13519828023E+03 -0.12369202325E+03  0.25497880275E+03  0.17229976171E+03 0.  0.
        -24    2    5    5    0    0  0.45870230654E+02  0.15967560005E+03 -0.72410400600E+02  0.19781710328E+03  0.79296689228E+02 0.  0.
          5    1    3    3  501    0  0.63276435459E+01 -0.81498409420E+02  0.37384761907E+02  0.90009667446E+02  0.47000000000E+01 0. -1.
        -11    1    4    4    0    0 -0.58407061230E+01 -0.61018098755E+02  0.18326976413E+03  0.19324887753E+03  0.00000000000E+00 0.  1.
         12    1    4    4    0    0 -0.42304282785E+02  0.73182279435E+01  0.82971009920E+02  0.93420539976E+02  0.00000000000E+00 0. -1.
         -5    1    5    5    0  502 -0.40528852915E+01 -0.24477319822E+02 -0.51281622651E+02  0.57161699472E+02  0.47000000000E+01 0.  1.
         13    1    6    6    0    0  0.17038251100E+02  0.65253531607E+02 -0.72599576523E+02  0.99090987981E+02  0.00000000000E+00 0. -1.
        -14    1    6    6    0    0  0.28831979554E+02  0.94422068446E+02  0.18917592207E+00  0.98726115300E+02  0.00000000000E+00 0.  1.
</event>
<event>
12    1  0.8358445E-002  0.2238799E+03  0.7818608E-02  0.1131083E+00
         21   -1    0    0  501  502  0.00000000000E+00  0.00000000000E+00  0.18823707379E+03  0.18823707379E+03  0.00000000000E+00 0.  1.
         21   -1    0    0  502  503 -0.00000000000E+00 -0.00000000000E+00 -0.34143155939E+03  0.34143155939E+03  0.00000000000E+00 0. -1.
         -6    2    1    2    0  503  0.11274803053E+03  0.88549684227E+02  0.48026039151E+02  0.22865047563E+03  0.17152660028E+03 0.  0.
        -24    2    3    3    0    0  0.61748217422E+02  0.77181485279E+02 -0.37615064675E+02  0.12821788357E+03  0.72492127511E+02 0.  0.
          6    2    1    2  501    0 -0.11274803053E+03 -0.88549684227E+02 -0.20122052474E+03  0.30101815755E+03  0.17195658356E+03 0.  0.
         24    2    5    5    0    0 -0.60256795182E+02 -0.10261336167E+03 -0.72486731323E+02  0.16120543860E+03  0.81070857008E+02 0.  0.
          5    1    5    5  501    0 -0.52491235349E+02  0.14063677445E+02 -0.12873379342E+03  0.13981271895E+03  0.47000000000E+01 0. -1.
        -13    1    6    6    0    0 -0.61694677455E+02 -0.52032406693E+02 -0.10810221824E+02  0.81427670165E+02  0.00000000000E+00 0.  1.
         14    1    6    6    0    0  0.14378822734E+01 -0.50580954979E+02 -0.61676509499E+02  0.79777768432E+02  0.00000000000E+00 0. -1.
         -5    1    3    3    0  503  0.50999813109E+02  0.11368198949E+02  0.85641103826E+02  0.10043259207E+03  0.47000000000E+01 0.  1.
         11    1    4    4    0    0  0.54023811784E+02  0.10317055279E+02 -0.21130586813E+02  0.58919568636E+02  0.00000000000E+00 0. -1.
        -12    1    4    4    0    0  0.77244056387E+01  0.66864430000E+02 -0.16484477862E+02  0.69298314930E+02  0.00000000000E+00 0.  1.
</event>
<event>
12    1  0.8358445E-002  0.2019493E+03  0.7818608E-02  0.1148198E+00
         21   -1    0    0  501  502  0.00000000000E+00  0.00000000000E+00  0.11628572643E+04  0.11628572643E+04  0.00000000000E+00 0.  1.
         21   -1    0    0  502  503 -0.00000000000E+00 -0.00000000000E+00 -0.35523534345E+02  0.35523534345E+02  0.00000000000E+00 0.  1.
         -6    2    1    2    0  503  0.93092568946E+02  0.48939692254E+02  0.49115935465E+03  0.53105654141E+03  0.17240133014E+03 0.  0.
        -24    2    3    3    0    0 -0.51440082944E+00  0.67995446638E+02  0.23275841045E+03  0.25552337728E+03  0.80573403377E+02 0.  0.
          6    2    1    2  501    0 -0.93092568946E+02 -0.48939692254E+02  0.63617437532E+03  0.66732425726E+03  0.17187934326E+03 0.  0.
         24    2    5    5    0    0 -0.77914582242E+02 -0.95111925678E+02  0.40981415371E+03  0.43575723381E+03  0.82581872747E+02 0.  0.
          5    1    5    5  501    0 -0.15177986704E+02  0.46172233424E+02  0.22636022161E+03  0.23156702345E+03  0.47000000000E+01 0. -1.
        -11    1    6    6    0    0  0.73373779406E+01 -0.68972443602E+01  0.12804634475E+03  0.12844172024E+03  0.00000000000E+00 0.  1.
         12    1    6    6    0    0 -0.85251960183E+02 -0.88214681318E+02  0.28176780896E+03  0.30731551357E+03  0.00000000000E+00 0. -1.
         -5    1    3    3    0  503  0.93606969776E+02 -0.19055754384E+02  0.25840094421E+03  0.27553316412E+03  0.47000000000E+01 0.  1.
         11    1    4    4    0    0 -0.32813222593E+02  0.15947311370E+02  0.44464307189E+02  0.57516075411E+02  0.00000000000E+00 0. -1.
        -12    1    4    4    0    0  0.32298821764E+02  0.52048135268E+02  0.18829410326E+03  0.19800730187E+03  0.00000000000E+00 0.  1.
</event>
<event>
12    1  0.8358445E-002  0.1951270E+03  0.7818608E-02  0.1155135E+00
         21   -1    0    0  501  502  0.00000000000E+00  0.00000000000E+00  0.21159572159E+03  0.21159572159E+03  0.00000000000E+00 0.  1.
         21   -1    0    0  502  503 -0.00000000000E+00 -0.00000000000E+00 -0.17500744828E+03  0.17500744828E+03  0.00000000000E+00 0. -1.
         -6    2    1    2    0  503  0.69841332182E+02  0.57617438618E+02  0.23384353339E+02  0.19652324941E+03  0.17284958393E+03 0.  0.
        -24    2    3    3    0    0  0.87864662816E+02  0.46119900769E+02  0.69435129431E+02  0.14553503703E+03  0.80696750765E+02 0.  0.
          6    2    1    2  501    0 -0.69841332182E+02 -0.57617438618E+02  0.13203919976E+02  0.19007992046E+03  0.16660867848E+03 0.  0.
         24    2    5    5    0    0 -0.92594794718E+02  0.58882471966E+01  0.57439592445E+01  0.12204733120E+03  0.79082807994E+02 0.  0.
          5    1    5    5  501    0  0.22753462536E+02 -0.63505685815E+02  0.74599607314E+01  0.68032589266E+02  0.47000000000E+01 0. -1.
        -13    1    6    6    0    0 -0.77814814263E+02  0.31984844243E+02  0.23295742922E+02  0.87297578536E+02  0.00000000000E+00 0.  1.
         14    1    6    6    0    0 -0.14779980455E+02 -0.26096597046E+02 -0.17551783677E+02  0.34749752659E+02  0.00000000000E+00 0. -1.
         -5    1    3    3    0  503 -0.18023330634E+02  0.11497537849E+02 -0.46050776092E+02  0.50988212387E+02  0.47000000000E+01 0.  1.
         13    1    4    4    0    0  0.11799024025E+02 -0.22251355709E+02  0.90526406910E+01  0.26763596587E+02  0.00000000000E+00 0. -1.
        -14    1    4    4    0    0  0.76065638792E+02  0.68371256478E+02  0.60382488740E+02  0.11877144044E+03  0.00000000000E+00 0.  1.
</event>
<event>
12    1  0.8358445E-002  0.1904668E+03  0.7818608E-02  0.1158328E+00
         21   -1    0    0  501  502  0.00000000000E+00  0.00000000000E+00  0.45563446174E+03  0.45563446174E+03  0.00000000000E+00 0. -1.
         21   -1    0    0  502  503 -0.00000000000E+00 -0.00000000000E+00 -0.15505639864E+03  0.15505639864E+03  0.00000000000E+00 0.  1.
         -6    2    1    2    0  503  0.11429491572E+02 -0.80240536862E+02 -0.63693201697E+02  0.19962985237E+03  0.17095635987E+03 0.  0.
        -24    2    3    3    0    0  0.46309625719E+02 -0.50634872515E+02  0.15925361619E+02  0.10768245031E+03  0.81445817659E+02 0.  0.
          6    2    1    2  501    0 -0.11429491572E+02  0.80240536862E+02  0.36427126479E+03  0.41106100801E+03  0.17236130924E+03 0.  0.
         24    2    5    5    0    0  0.56672535000E+02  0.61440805290E+02  0.15441630657E+03  0.18958299687E+03  0.71488238115E+02 0.  0.
          5    1    5    5  501    0 -0.68102026572E+02  0.18799731572E+02  0.20985495822E+03  0.22147801115E+03  0.47000000000E+01 0. -1.
        -13    1    6    6    0    0  0.19052906310E+02  0.60730780890E+02  0.12995299992E+03  0.14470322448E+03  0.00000000000E+00 0.  1.
         14    1    6    6    0    0  0.37619628690E+02  0.71002439993E+00  0.24463306647E+02  0.44879772387E+02  0.00000000000E+00 0. -1.
         -5    1    3    3    0  503 -0.34880134147E+02 -0.29605664347E+02 -0.79618563316E+02  0.91947402051E+02  0.47000000000E+01 0.  1.
         13    1    4    4    0    0 -0.82064060232E+01 -0.27731058391E+02 -0.22946984983E+02  0.36917757503E+02  0.00000000000E+00 0. -1.
        -14    1    4    4    0    0  0.54516031742E+02 -0.22903814124E+02  0.38872346601E+02  0.70764692811E+02  0.00000000000E+00 0.  1.
</event>
<event>
12    1  0.8358445E-002  0.1737429E+03  0.7818608E-02  0.1174449E+00
         21   -1    0    0  501  502  0.00000000000E+00  0.00000000000E+00  0.67567862494E+03  0.67567862494E+03  0.00000000000E+00 0.  1.
         21   -1    0    0  502  503 -0.00000000000E+00 -0.00000000000E+00 -0.48286691281E+02  0.48286691281E+02  0.00000000000E+00 0.  1.
         -6    2    1    2    0  503  0.15397426892E+02  0.15993010789E+02  0.20723580532E+03  0.26930304150E+03  0.17054205347E+03 0.  0.
        -24    2    3    3    0    0  0.26022770532E+02  0.71904607845E+02  0.16088215966E+03  0.19575200426E+03  0.81168470840E+02 0.  0.
          6    2    1    2  501    0 -0.15397426892E+02 -0.15993010789E+02  0.42015612834E+03  0.45466227472E+03  0.17231875908E+03 0.  0.
         24    2    5    5    0    0  0.18554630295E+02 -0.50001487959E+02  0.37967600799E+03  0.39165395107E+03  0.79965762932E+02 0.  0.
          5    1    5    5  501    0 -0.33952057187E+02  0.34008477171E+02  0.40480120350E+02  0.63008323658E+02  0.47000000000E+01 0. -1.
        -11    1    6    6    0    0  0.30612152358E+02  0.10925925503E+02  0.16514293653E+03  0.16831122722E+03  0.00000000000E+00 0.  1.
         12    1    6    6    0    0 -0.12057522063E+02 -0.60927413462E+02  0.21453307145E+03  0.22334272385E+03  0.00000000000E+00 0. -1.
         -5    1    3    3    0  503 -0.10625343639E+02 -0.55911597056E+02  0.46353645667E+02  0.73551037242E+02  0.47000000000E+01 0.  1.
         13    1    4    4    0    0 -0.11865948336E+00 -0.14802212756E+02  0.52331431125E+02  0.54384724566E+02  0.00000000000E+00 0. -1.
        -14    1    4    4    0    0  0.26141430015E+02  0.86706820601E+02  0.10855072853E+03  0.14136727969E+03  0.00000000000E+00 0.  1.
</event>
<event>
12    1  0.8358445E-002  0.2876082E+03  0.7818608E-02  0.1091698E+00
         21   -1    0    0  501  502  0.00000000000E+00  0.00000000000E+00  0.11775153088E+04  0.11775153088E+04  0.00000000000E+00 0. -1.
         21   -1    0    0  502  503 -0.00000000000E+00 -0.00000000000E+00 -0.92512428897E+02  0.92512428897E+02  0.00000000000E+00 0.  1.
         -6    2    1    2    0  503 -0.66749224839E+02 -0.22089222254E+03  0.23028569360E+03  0.36844267199E+03  0.17166732034E+03 0.  0.
        -24    2    3    3    0    0 -0.24245024899E+02 -0.32745823113E+02  0.10844852604E+03  0.14024963961E+03  0.79049152087E+02 0.  0.
          6    2    1    2  501    0  0.66749224839E+02  0.22089222254E+03  0.85471718627E+03  0.90158506568E+03  0.17048556875E+03 0.  0.
         24    2    5    5    0    0  0.11091179631E+03  0.17682413465E+03  0.64575229807E+03  0.68345495866E+03  0.80910128472E+02 0.  0.
          5    1    5    5  501    0 -0.44162571474E+02  0.44068087884E+02  0.20896488820E+03  0.21813010702E+03  0.47000000000E+01 0. -1.
        -11    1    6    6    0    0  0.38505931133E+02  0.41439837657E+02  0.85289213024E+02  0.10234362088E+03  0.00000000000E+00 0.  1.
         12    1    6    6    0    0  0.72405865180E+02  0.13538429700E+03  0.56046308505E+03  0.58111133777E+03  0.00000000000E+00 0. -1.
         -5    1    3    3    0  503 -0.42504199940E+02 -0.18814639943E+03  0.12183716756E+03  0.22819303238E+03  0.47000000000E+01 0.  1.
         11    1    4    4    0    0 -0.28087907836E+02  0.20031840170E+02  0.30575815437E+02  0.46098651573E+02  0.00000000000E+00 0. -1.
        -12    1    4    4    0    0  0.38428829373E+01 -0.52777663283E+02  0.77872710604E+02  0.94150988034E+02  0.00000000000E+00 0.  1.
</event>
<event>
12    1  0.8358445E-002  0.2884577E+03  0.7818608E-02  0.1091274E+00
         21   -1    0    0  503  502  0.00000000000E+00  0.00000000000E+00  0.10600390040E+04  0.10600390040E+04  0.00000000000E+00 0.  1.
         21   -1    0    0  501  503 -0.00000000000E+00 -0.00000000000E+00 -0.18111403426E+03  0.18111403426E+03  0.00000000000E+00 0. -1.
          6    2    1    2  501    0  0.12576184530E+03 -0.19354715991E+03 -0.27919028843E+02  0.28980562429E+03  0.17300659773E+03 0.  0.
         24    2    3    3    0    0  0.89377708016E+02 -0.19728433984E+03  0.10775618351E+02  0.23635342433E+03  0.94007136971E+02 0.  0.
         -6    2    1    2    0  502 -0.12576184530E+03  0.19354715991E+03  0.90684399857E+03  0.95134741396E+03  0.17152060943E+03 0.  0.
        -24    2    5    5    0    0 -0.16721816597E+02  0.30361204977E+02  0.34585193235E+03  0.35699602622E+03  0.81432068052E+02 0.  0.
          5    1    3    3  501    0  0.36384137287E+02  0.37371799322E+01 -0.38694647194E+02  0.53452199968E+02  0.47000000000E+01 0. -1.
        -13    1    4    4    0    0 -0.45568352933E+01 -0.21294402425E+02  0.28737874729E+02  0.36056646634E+02  0.00000000000E+00 0.  1.
         14    1    4    4    0    0  0.93934543309E+02 -0.17598993742E+03 -0.17962256378E+02  0.20029677769E+03  0.00000000000E+00 0. -1.
         -5    1    5    5    0  502 -0.10904002871E+03  0.16318595493E+03  0.56099206622E+03  0.59435138774E+03  0.47000000000E+01 0.  1.
         11    1    6    6    0    0 -0.10801723774E+02  0.24934630734E+02  0.34769590706E+03  0.34875615669E+03  0.00000000000E+00 0. -1.
        -12    1    6    6    0    0 -0.59200928232E+01  0.54265742432E+01 -0.18439747088E+01  0.82398695244E+01  0.00000000000E+00 0.  1.
</event>
<event>
12    1  0.8358445E-002  0.2040130E+03  0.7818608E-02  0.1146665E+00
         21   -1    0    0  501  502  0.00000000000E+00  0.00000000000E+00  0.12331172921E+03  0.12331172921E+03  0.00000000000E+00 0. -1.
         21   -1    0    0  502  503 -0.00000000000E+00 -0.00000000000E+00 -0.39543746902E+03  0.39543746902E+03  0.00000000000E+00 0.  1.
         -6    2    1    2    0  503  0.96635265424E+02 -0.50819765857E+02 -0.35352643218E+02  0.20705338896E+03  0.17233767253E+03 0.  0.
        -24    2    3    3    0    0  0.23328515789E+02  0.18038636497E+02  0.26575401360E+02  0.88847924529E+02  0.79486411921E+02 0.  0.
          6    2    1    2  501    0 -0.96635265424E+02  0.50819765857E+02 -0.23677309659E+03  0.31169580927E+03  0.17079740960E+03 0.  0.
         24    2    5    5    0    0 -0.31900690877E+02  0.51668977026E+02 -0.44149400966E+02  0.10842932306E+03  0.78233057135E+02 0.  0.
          5    1    5    5  501    0 -0.64734574547E+02 -0.84921116925E+00 -0.19262369562E+03  0.20326648621E+03  0.47000000000E+01 0. -1.
        -11    1    6    6    0    0  0.21917095702E+02 -0.21946906175E+01 -0.16105987903E+02  0.27286967535E+02  0.00000000000E+00 0.  1.
         12    1    6    6    0    0 -0.53817786579E+02  0.53863667644E+02 -0.28043413062E+02  0.81142355527E+02  0.00000000000E+00 0. -1.
         -5    1    3    3    0  503  0.73306749635E+02 -0.68858402354E+02 -0.61928044578E+02  0.11820546443E+03  0.47000000000E+01 0.  1.
         13    1    4    4    0    0 -0.22028472872E+02  0.26099899706E+02 -0.27081986000E+01  0.34260658508E+02  0.00000000000E+00 0. -1.
        -14    1    4    4    0    0  0.45356988662E+02 -0.80612632096E+01  0.29283599960E+02  0.54587266021E+02  0.00000000000E+00 0.  1.
</event>
<event>
12    1  0.8358445E-002  0.2756838E+03  0.7818608E-02  0.1098322E+00
         21   -1    0    0  501  502  0.00000000000E+00  0.00000000000E+00  0.99648916950E+02  0.99648916950E+02  0.00000000000E+00 0. -1.
         21   -1    0    0  502  503 -0.00000000000E+00 -0.00000000000E+00 -0.77425510796E+03  0.77425510796E+03  0.00000000000E+00 0.  1.
         -6    2    1    2    0  503  0.18202722862E+03 -0.11414096143E+03 -0.27450683510E+03  0.38904438762E+03  0.17274102579E+03 0.  0.
        -24    2    3    3    0    0  0.96211843137E+02 -0.16394445088E+02 -0.63338516592E+02  0.14098630857E+03  0.79623331571E+02 0.  0.
          6    2    1    2  501    0 -0.18202722862E+03  0.11414096143E+03 -0.40009935591E+03  0.48485963729E+03  0.16984493584E+03 0.  0.
         24    2    5    5    0    0 -0.19888954862E+03  0.12826022151E+03 -0.38090712257E+03  0.45529406336E+03  0.78706487231E+02 0.  0.
          5    1    5    5  501    0  0.16862319999E+02 -0.14119260080E+02 -0.19192233339E+02  0.29565573925E+02  0.47000000000E+01 0. -1.
        -13    1    6    6    0    0 -0.60975937070E+02  0.84860731996E+02 -0.17138822865E+03  0.20073199460E+03  0.00000000000E+00 0.  1.
         14    1    6    6    0    0 -0.13791361155E+03  0.43399489517E+02 -0.20951889393E+03  0.25456206877E+03  0.00000000000E+00 0. -1.
         -5    1    3    3    0  503  0.85815385485E+02 -0.97746516344E+02 -0.21116831850E+03  0.24805807905E+03  0.47000000000E+01 0.  1.
         13    1    4    4    0    0  0.96488060235E+02 -0.37129390575E+02 -0.61195221825E+02  0.12013905521E+03  0.00000000000E+00 0. -1.
        -14    1    4    4    0    0 -0.27621709783E+00  0.20734945487E+02 -0.21432947675E+01  0.20847253361E+02  0.00000000000E+00 0.  1.
</event>
<event>
12    1  0.8358445E-002  0.2662598E+03  0.7818608E-02  0.1103540E+00
         21   -1    0    0  503  502  0.00000000000E+00  0.00000000000E+00  0.70305449378E+02  0.70305449378E+02  0.00000000000E+00 0.  1.
         21   -1    0    0  501  503 -0.00000000000E+00 -0.00000000000E+00 -0.13132792399E+04  0.13132792399E+04  0.00000000000E+00 0.  1.
          6    2    1    2  501    0  0.11235250422E+03  0.16797782811E+03 -0.95684976414E+03  0.99320479035E+03  0.17336276562E+03 0.  0.
         24    2    3    3    0    0  0.10304410831E+03  0.80638297288E+02 -0.38244691799E+03  0.41210621047E+03  0.80282379010E+02 0.  0.
         -6    2    1    2    0  502 -0.11235250422E+03 -0.16797782811E+03 -0.28612402643E+03  0.39037989897E+03  0.17230748991E+03 0.  0.
        -24    2    5    5    0    0 -0.11378081836E+03 -0.74445339082E+02 -0.11186215387E+03  0.19254244849E+03  0.77918353829E+02 0.  0.
          5    1    3    3  501    0  0.93083959052E+01  0.87339530825E+02 -0.57440284615E+03  0.58109857988E+03  0.47000000000E+01 0. -1.
        -11    1    4    4    0    0  0.86358041858E+02  0.28231190232E+02 -0.29614673763E+03  0.30977024018E+03  0.00000000000E+00 0.  1.
         12    1    4    4    0    0  0.16686066453E+02  0.52407107056E+02 -0.86300180360E+02  0.10233597028E+03  0.00000000000E+00 0. -1.
         -5    1    5    5    0  502  0.14283141481E+01 -0.93532489031E+02 -0.17426187256E+03  0.19783745048E+03  0.47000000000E+01 0.  1.
         11    1    6    6    0    0 -0.28620352404E+01 -0.10632636840E+02  0.10698690150E+02  0.15352725583E+02  0.00000000000E+00 0. -1.
        -12    1    6    6    0    0 -0.11091878312E+03 -0.63812702242E+02 -0.12256084402E+03  0.17718972291E+03  0.00000000000E+00 0.  1.
</event>
<event>
12    1  0.8358445E-002  0.2221986E+03  0.7818608E-02  0.1132360E+00
         21   -1    0    0  503  502  0.00000000000E+00  0.00000000000E+00  0.37678013950E+03  0.37678013950E+03  0.00000000000E+00 0. -1.
         21   -1    0    0  501  503 -0.00000000000E+00 -0.00000000000E+00 -0.17665787943E+03  0.17665787943E+03  0.00000000000E+00 0. -1.
          6    2    1    2  501    0 -0.13981311892E+03 -0.19437736283E+02 -0.41176744992E+02  0.22541755028E+03  0.17085670555E+03 0.  0.
         24    2    3    3    0    0 -0.14697166797E+03 -0.28320548877E+02  0.13073162748E+02  0.16978220473E+03  0.79071896298E+02 0.  0.
         -6    2    1    2    0  502  0.13981311892E+03  0.19437736283E+02  0.24129900505E+03  0.32802046865E+03  0.17160036189E+03 0.  0.
        -24    2    5    5    0    0  0.13190225366E+03 -0.40002156416E+02  0.19693500783E+03  0.25328134314E+03  0.79810177499E+02 0.  0.
          5    1    3    3  501    0  0.71585490502E+01  0.88828125935E+01 -0.54249907741E+02  0.55635345545E+02  0.47000000000E+01 0. -1.
        -11    1    4    4    0    0 -0.32628921780E+01 -0.23915671792E+02 -0.56563690381E+01  0.24791134168E+02  0.00000000000E+00 0.  1.
         12    1    4    4    0    0 -0.14370877579E+03 -0.44048770849E+01  0.18729531787E+02  0.14499107056E+03  0.00000000000E+00 0. -1.
         -5    1    5    5    0  502  0.79108652593E+01  0.59439892700E+02  0.44363997222E+02  0.74739125515E+02  0.47000000000E+01 0.  1.
         13    1    6    6    0    0  0.68183563419E+02  0.20627863558E+02  0.84071939480E+02  0.11019345753E+03  0.00000000000E+00 0. -1.
        -14    1    6    6    0    0  0.63718690244E+02 -0.60630019974E+02  0.11286306835E+03  0.14308788560E+03  0.00000000000E+00 0.  1.
</event>
<event>
12    1  0.8358445E-002  0.2056876E+03  0.7818608E-02  0.1145170E+00
         21   -1    0    0  503  502  0.00000000000E+00  0.00000000000E+00  0.29492402785E+02  0.29492402785E+02  0.00000000000E+00 0.  1.
         21   -1    0    0  501  503 -0.00000000000E+00 -0.00000000000E+00 -0.14307730621E+04  0.14307730621E+04  0.00000000000E+00 0.  1.
          6    2    1    2  501    0  0.73330541364E+02  0.83867226010E+02 -0.68130737027E+03  0.71167909116E+03  0.17290551211E+03 0.  0.
         24    2    3    3    0    0  0.20860865556E+02  0.10457353263E+03 -0.57616159883E+03  0.59226577003E+03  0.86288788029E+02 0.  0.
         -6    2    1    2    0  502 -0.73330541364E+02 -0.83867226010E+02 -0.71997328906E+03  0.74858637374E+03  0.17207249080E+03 0.  0.
        -24    2    5    5    0    0 -0.29950897070E+02 -0.97208200740E+02 -0.31017838703E+03  0.33625916523E+03  0.80703803470E+02 0.  0.
          5    1    3    3  501    0  0.52469675808E+02 -0.20706306618E+02 -0.10514577144E+03  0.11941332114E+03  0.47000000000E+01 0. -1.
        -13    1    4    4    0    0 -0.68854100650E+00  0.31982206656E+02 -0.38976260796E+03  0.39107317243E+03  0.00000000000E+00 0.  1.
         14    1    4    4    0    0  0.21549406563E+02  0.72591325972E+02 -0.18639899087E+03  0.20119259760E+03  0.00000000000E+00 0. -1.
         -5    1    5    5    0  502 -0.43379644294E+02  0.13340974731E+02 -0.40979490204E+03  0.41232720851E+03  0.47000000000E+01 0.  1.
         11    1    6    6    0    0 -0.52096072557E+02 -0.32577375480E+02 -0.14092797719E+03  0.15373997829E+03  0.00000000000E+00 0. -1.
        -12    1    6    6    0    0  0.22145175488E+02 -0.64630825260E+02 -0.16925040983E+03  0.18251918693E+03  0.00000000000E+00 0.  1.
</event>
<event>
12    1  0.8358445E-002  0.2556435E+03  0.7818608E-02  0.1111500E+00
         21   -1    0    0  501  502  0.00000000000E+00  0.00000000000E+00  0.31025760113E+03  0.31025760113E+03  0.00000000000E+00 0.  1.
         21   -1    0    0  502  503 -0.00000000000E+00 -0.00000000000E+00 -0.20191963806E+03  0.20191963806E+03  0.00000000000E+00 0. -1.
         -6    2    1    2    0  503  0.17279173122E+03 -0.22902571143E+02  0.48361120811E+02  0.26017758753E+03  0.18700820544E+03 0.  0.
        -24    2    3    3    0    0  0.12596252768E+03 -0.79433838437E+02  0.70636644715E+02  0.18332026874E+03  0.80252677742E+02 0.  0.
          6    2    1    2  501    0 -0.17279173122E+03  0.22902571143E+02  0.59976842261E+02  0.25199965166E+03  0.17182867247E+03 0.  0.
         24    2    5    5    0    0 -0.13484616241E+03  0.53343722469E+02  0.96011617350E+02  0.19127795123E+03  0.79624014707E+02 0.  0.
          5    1    5    5  501    0 -0.37945568815E+02 -0.30441151326E+02 -0.36034775089E+02  0.60721700425E+02  0.47000000000E+01 0. -1.
        -11    1    6    6    0    0 -0.46160721216E+02  0.39199923174E+02  0.79545529820E+02  0.99974684167E+02  0.00000000000E+00 0.  1.
         12    1    6    6    0    0 -0.88685441193E+02  0.14143799295E+02  0.16466087530E+02  0.91303267064E+02  0.00000000000E+00 0. -1.
         -5    1    3    3    0  503  0.46829203544E+02  0.56531267294E+02 -0.22275523904E+02  0.76857318790E+02  0.47000000000E+01 0.  1.
         13    1    4    4    0    0 -0.11216089649E+02 -0.11482142882E+02  0.76820930258E+01  0.17794797707E+02  0.00000000000E+00 0. -1.
        -14    1    4    4    0    0  0.13717861733E+03 -0.67951695554E+02  0.62954551689E+02  0.16552547103E+03  0.00000000000E+00 0.  1.
</event>
<event>
12    1  0.8358445E-002  0.1856025E+03  0.7818608E-02  0.1162773E+00
         21   -1    0    0  501  502  0.00000000000E+00  0.00000000000E+00  0.32005681492E+03  0.32005681492E+03  0.00000000000E+00 0. -1.
         21   -1    0    0  502  503 -0.00000000000E+00 -0.00000000000E+00 -0.18821534570E+03  0.18821534570E+03  0.00000000000E+00 0. -1.
         -6    2    1    2    0  503 -0.23459458150E+01  0.66689448403E+02 -0.10096973697E+03  0.21128927682E+03  0.17319146839E+03 0.  0.
        -24    2    3    3    0    0  0.23601039074E+02  0.10614099326E+03 -0.92231570656E+02  0.16303872276E+03  0.79069861489E+02 0.  0.
          6    2    1    2  501    0  0.23459458150E+01 -0.66689448403E+02  0.23281120618E+03  0.29698288380E+03  0.17188597836E+03 0.  0.
         24    2    5    5    0    0 -0.32438194597E+00  0.10638774804E+02  0.19604759492E+03  0.21118988952E+03  0.77802449896E+02 0.  0.
          5    1    5    5  501    0  0.26703277610E+01 -0.77328223207E+02  0.36763611263E+02  0.85792994281E+02  0.47000000000E+01 0. -1.
        -13    1    6    6    0    0  0.34396630199E+02  0.21887221887E+02  0.84461247879E+02  0.93786358520E+02  0.00000000000E+00 0.  1.
         14    1    6    6    0    0 -0.34721012145E+02 -0.11248447083E+02  0.11158634704E+03  0.11740353100E+03  0.00000000000E+00 0. -1.
         -5    1    3    3    0  503 -0.25946984889E+02 -0.39451544861E+02 -0.87381663120E+01  0.48250554061E+02  0.47000000000E+01 0.  1.
         11    1    4    4    0    0  0.37607569090E+02  0.40084494286E+02 -0.87342306309E+01  0.55654134795E+02  0.00000000000E+00 0. -1.
        -12    1    4    4    0    0 -0.14006530016E+02  0.66056498977E+02 -0.83497340026E+02  0.10738458796E+03  0.00000000000E+00 0.  1.
</event>
<event>
12    1  0.8358445E-002  0.2277085E+03  0.7818608E-02  0.1128324E+00
         21   -1    0    0  501  502  0.00000000000E+00  0.00000000000E+00  0.45960567863E+03  0.45960567863E+03  0.00000000000E+00 0. -1.
         21   -1    0    0  502  503 -0.00000000000E+00 -0.00000000000E+00 -0.76389293990E+03  0.76389293990E+03  0.00000000000E+00 0. -1.
         -6    2    1    2    0  503 -0.14378298874E+03 -0.33005438590E+02 -0.71700542274E+03  0.75229510508E+03  0.17345962661E+03 0.  0.
        -24    2    3    3    0    0 -0.26333435038E+02 -0.57616785596E+02 -0.41614638288E+03  0.42835318447E+03  0.79344154647E+02 0.  0.
          6    2    1    2  501    0  0.14378298874E+03  0.33005438590E+02  0.41271816147E+03  0.47120351345E+03  0.17301318867E+03 0.  0.
         24    2    5    5    0    0  0.72758727930E+02 -0.58846790793E+02  0.16400673200E+03  0.19668440152E+03  0.55043331863E+02 0.  0.
          5    1    5    5  501    0  0.71024260806E+02  0.91852229383E+02  0.24871142947E+03  0.27451911193E+03  0.47000000000E+01 0. -1.
        -11    1    6    6    0    0  0.41282667600E+02 -0.51928449856E+02  0.66257924881E+02  0.93759986978E+02  0.00000000000E+00 0.  1.
         12    1    6    6    0    0  0.31476060330E+02 -0.69183409371E+01  0.97748807117E+02  0.10292441454E+03  0.00000000000E+00 0. -1.
         -5    1    3    3    0  503 -0.11744955370E+03  0.24611347007E+02 -0.30085903986E+03  0.32394192062E+03  0.47000000000E+01 0.  1.
         11    1    4    4    0    0  0.22017080455E+01  0.18728836601E+02 -0.10667788926E+03  0.10833184618E+03  0.00000000000E+00 0. -1.
        -12    1    4    4    0    0 -0.28535143083E+02 -0.76345622197E+02 -0.30946849361E+03  0.32002133829E+03  0.00000000000E+00 0.  1.
</event>
<event>
12    1  0.8358445E-002  0.1790423E+03  0.7818608E-02  0.1168982E+00
         21   -1    0    0  503  502  0.00000000000E+00  0.00000000000E+00  0.57510028470E+03  0.57510028470E+03  0.00000000000E+00 0. -1.
         21   -1    0    0  501  503 -0.00000000000E+00 -0.00000000000E+00 -0.93956314799E+02  0.93956314799E+02  0.00000000000E+00 0. -1.
          6    2    1    2  501    0  0.33989756203E+02 -0.34638292298E+02  0.25934904394E+02  0.17990281029E+03  0.17128130974E+03 0.  0.
         24    2    3    3    0    0  0.11518293918E+02 -0.24155272679E+02  0.82930014518E+02  0.11756989045E+03  0.78924923443E+02 0.  0.
         -6    2    1    2    0  502 -0.33989756203E+02  0.34638292298E+02  0.45520906551E+03  0.48915378920E+03  0.17233984262E+03 0.  0.
        -24    2    5    5    0    0 -0.34590989842E+01 -0.41216625218E+02  0.30452570466E+03  0.31764969369E+03  0.80340821158E+02 0.  0.
          5    1    3    3  501    0  0.22471462285E+02 -0.10483019619E+02 -0.56995110124E+02  0.62332919839E+02  0.47000000000E+01 0. -1.
        -13    1    4    4    0    0  0.40913954916E+02 -0.31949410522E+02  0.43188530201E+02  0.67527517950E+02  0.00000000000E+00 0.  1.
         14    1    4    4    0    0 -0.29395660997E+02  0.77941378432E+01  0.39741484317E+02  0.50042372505E+02  0.00000000000E+00 0. -1.
         -5    1    5    5    0  502 -0.30530657219E+02  0.75854917516E+02  0.15068336085E+03  0.17150409552E+03  0.47000000000E+01 0.  1.
         11    1    6    6    0    0 -0.37648037880E+02 -0.81565172240E+01  0.89684726319E+02  0.97607651669E+02  0.00000000000E+00 0. -1.
        -12    1    6    6    0    0  0.34188938896E+02 -0.33060107994E+02  0.21484097834E+03  0.22004204202E+03  0.00000000000E+00 0.  1.
</event>
<event>
12    1  0.8358445E-002  0.2215223E+03  0.7818608E-02  0.1134520E+00
         21   -1    0    0  503  502  0.00000000000E+00  0.00000000000E+00  0.73583754089E+03  0.73583754089E+03  0.00000000000E+00 0.  1.
         21   -1    0    0  501  503 -0.00000000000E+00 -0.00000000000E+00 -0.18369284826E+03  0.18369284826E+03  0.00000000000E+00 0.  1.
          6    2    1    2  501    0  0.49818827019E+02 -0.13043361628E+03 -0.97244455813E+02  0.23339747409E+03  0.15975935948E+03 0.  0.
         24    2    3    3    0    0  0.54433717414E+01 -0.55741281495E+02  0.10586923617E+02  0.94841267813E+02  0.75802786032E+02 0.  0.
         -6    2    1    2    0  502 -0.49818827019E+02  0.13043361628E+03  0.64938914844E+03  0.68613291506E+03  0.17198042688E+03 0.  0.
        -24    2    5    5    0    0 -0.94928277432E+02  0.10834814587E+03  0.55690716223E+03  0.58078758629E+03  0.80112012048E+02 0.  0.
          5    1    3    3  501    0  0.44375455278E+02 -0.74692334789E+02 -0.10783137943E+03  0.13855620627E+03  0.47000000000E+01 0. -1.
        -13    1    4    4    0    0 -0.17233939597E+02 -0.43494746398E+02 -0.23301200056E+02  0.52266122511E+02  0.00000000000E+00 0.  1.
         14    1    4    4    0    0  0.22677311339E+02 -0.12246535096E+02  0.33888123673E+02  0.42575145302E+02  0.00000000000E+00 0. -1.
         -5    1    5    5    0  502  0.45109450413E+02  0.22085470418E+02  0.92481986207E+02  0.10534532877E+03  0.47000000000E+01 0.  1.
         11    1    6    6    0    0  0.11653298995E+02  0.85216535489E+01  0.10198999886E+03  0.10300668825E+03  0.00000000000E+00 0. -1.
        -12    1    6    6    0    0 -0.10658157643E+03  0.99826492316E+02  0.45491716337E+03  0.47778089804E+03  0.00000000000E+00 0.  1.
</event>
<event>
12    1  0.8358445E-002  0.2722111E+03  0.7818608E-02  0.1100282E+00
         21   -1    0    0  503  502  0.00000000000E+00  0.00000000000E+00  0.16396266528E+03  0.16396266528E+03  0.00000000000E+00 0. -1.
         21   -1    0    0  501  503 -0.00000000000E+00 -0.00000000000E+00 -0.12821070841E+04  0.12821070841E+04  0.00000000000E+00 0. -1.
          6    2    1    2  501    0 -0.20853173785E+03  0.61779105099E+00 -0.11426172314E+04  0.11745948323E+04  0.17496575450E+03 0.  0.
         24    2    3    3    0    0 -0.78346960149E+02  0.28827118955E+02 -0.31006547828E+03  0.33144101826E+03  0.82117591380E+02 0.  0.
         -6    2    1    2    0  502  0.20853173785E+03 -0.61779105099E+00  0.24472812525E+02  0.27147491712E+03  0.17208673603E+03 0.  0.
        -24    2    5    5    0    0  0.23106298633E+03 -0.93753349071E+01  0.11851836683E+02  0.24380307650E+03  0.76298581377E+02 0.  0.
          5    1    3    3  501    0 -0.13018477770E+03 -0.28209327904E+02 -0.83255175310E+03  0.84315381403E+03  0.47000000000E+01 0. -1.
        -11    1    4    4    0    0 -0.13228338485E+01 -0.51118035931E+01  0.37871301548E+01  0.64979058299E+01  0.00000000000E+00 0.  1.
         12    1    4    4    0    0 -0.77024126301E+02  0.33938922548E+02 -0.31385260843E+03  0.32494311243E+03  0.00000000000E+00 0. -1.
         -5    1    5    5    0  502 -0.22531248479E+02  0.87575438561E+01  0.12620975843E+02  0.27671840626E+02  0.47000000000E+01 0.  1.
         13    1    6    6    0    0  0.14370298314E+03 -0.40586668111E+02 -0.55015188629E+01  0.14942587360E+03  0.00000000000E+00 0. -1.
        -14    1    6    6    0    0  0.87360003190E+02  0.31211333204E+02  0.17353355546E+02  0.94377202895E+02  0.00000000000E+00 0.  1.
</event>
<event>
12    1  0.8358445E-002  0.1860803E+03  0.7818608E-02  0.1162074E+00
         21   -1    0    0  501  502  0.00000000000E+00  0.00000000000E+00  0.25755779657E+04  0.25755779657E+04  0.00000000000E+00 0. -1.
         21   -1    0    0  502  503 -0.00000000000E+00 -0.00000000000E+00 -0.29683128434E+02  0.29683128434E+02  0.00000000000E+00 0. -1.
         -6    2    1    2    0  503 -0.29552433450E+02  0.65183004347E+02  0.30899102784E+03  0.36063093762E+03  0.17163055528E+03 0.  0.
        -24    2    3    3    0    0 -0.60788073373E+02  0.48323151073E+02  0.89316294039E+02  0.13805735760E+03  0.71078244292E+02 0.  0.
          6    2    1    2  501    0  0.29552433450E+02 -0.65183004347E+02  0.22369038094E+04  0.22446301565E+04  0.17176645927E+03 0.  0.
         24    2    5    5    0    0  0.76224332817E+02 -0.66362189682E+01  0.12911415760E+04  0.12958971675E+04  0.80303867547E+02 0.  0.
          5    1    5    5  501    0 -0.46671899367E+02 -0.58546785379E+02  0.94576223338E+03  0.94873298896E+03  0.47000000000E+01 0. -1.
        -11    1    6    6    0    0  0.19425730177E+02 -0.33761159306E+02  0.26735046084E+03  0.27017298862E+03  0.00000000000E+00 0.  1.
         12    1    6    6    0    0  0.56798602640E+02  0.27124940338E+02  0.10237911152E+04  0.10257241789E+04  0.00000000000E+00 0. -1.
         -5    1    3    3    0  503  0.31235639923E+02  0.16859853274E+02  0.21967473380E+03  0.22257358002E+03  0.47000000000E+01 0.  1.
         13    1    4    4    0    0 -0.14243757945E+02  0.27368609080E-01 -0.10572328016E+02  0.17738644512E+02  0.00000000000E+00 0. -1.
        -14    1    4    4    0    0 -0.46544315428E+02  0.48295782464E+02  0.99888622054E+02  0.12031871308E+03  0.00000000000E+00 0.  1.
</event>
<event>
12    1  0.8358445E-002  0.1909763E+03  0.7818608E-02  0.1158009E+00
         21   -1    0    0  501  502  0.00000000000E+00  0.00000000000E+00  0.48334435891E+03  0.48334435891E+03  0.00000000000E+00 0. -1.
         21   -1    0    0  502  503 -0.00000000000E+00 -0.00000000000E+00 -0.81242811529E+02  0.81242811529E+02  0.00000000000E+00 0. -1.
         -6    2    1    2    0  503  0.67929204854E+02 -0.39371914960E+02  0.28200187544E+03  0.34058335750E+03  0.17409032454E+03 0.  0.
        -24    2    3    3    0    0  0.40641554901E+02 -0.29834494293E+02  0.29407585798E+03  0.30890608983E+03  0.80003306508E+02 0.  0.
          6    2    1    2  501    0 -0.67929204854E+02  0.39371914960E+02  0.12009967195E+03  0.22400381294E+03  0.17201526807E+03 0.  0.
         24    2    5    5    0    0  0.12435014947E+02  0.37893751740E+02  0.11189720089E+03  0.14307196925E+03  0.79737311215E+02 0.  0.
          5    1    5    5  501    0 -0.80364219801E+02  0.14781632199E+01  0.82024710515E+01  0.80931843684E+02  0.47000000000E+01 0. -1.
        -11    1    6    6    0    0 -0.48007738464E+01  0.33515397534E+02  0.11914966066E+03  0.12386674669E+03  0.00000000000E+00 0.  1.
         12    1    6    6    0    0  0.17235788794E+02  0.43783542066E+01 -0.72524597636E+01  0.19205222559E+02  0.00000000000E+00 0. -1.
         -5    1    3    3    0  503  0.27287649953E+02 -0.95374206677E+01 -0.12073982544E+02  0.31677267676E+02  0.47000000000E+01 0.  1.
         13    1    4    4    0    0  0.37873078240E+02 -0.48058199782E+02  0.27733866816E+03  0.28400827009E+03  0.00000000000E+00 0. -1.
        -14    1    4    4    0    0  0.27684766615E+01  0.18223705489E+02  0.16737189821E+02  0.24897819742E+02  0.00000000000E+00 0.  1.
</event>
<event>
12    1  0.8358445E-002  0.1883581E+03  0.7818608E-02  0.1160233E+00
         21   -1    0    0  503  502  0.00000000000E+00  0.00000000000E+00  0.58442966464E+03  0.58442966464E+03  0.00000000000E+00 0. -1.
         21   -1    0    0  501  503 -0.00000000000E+00 -0.00000000000E+00 -0.63267439934E+02  0.63267439934E+02  0.00000000000E+00 0. -1.
          6    2    1    2  501    0  0.22770554878E+02 -0.69129983652E+02  0.19138145283E+03  0.26852495549E+03  0.17372777103E+03 0.  0.
         24    2    3    3    0    0  0.23064232769E+02 -0.31005822673E+02  0.20831446848E+03  0.22654454439E+03  0.80213421205E+02 0.  0.
         -6    2    1    2    0  502 -0.22770554878E+02  0.69129983652E+02  0.32978077187E+03  0.37917214908E+03  0.17239114922E+03 0.  0.
        -24    2    5    5    0    0 -0.75286746208E+02  0.66073083767E+02  0.18598144448E+03  0.22598066255E+03  0.80277117533E+02 0.  0.
          5    1    3    3  501    0 -0.29367789125E+00 -0.38124160979E+02 -0.16933015653E+02  0.41980411100E+02  0.47000000000E+01 0. -1.
        -11    1    4    4    0    0  0.22888085565E+02 -0.31138775164E+02  0.31847534233E+02  0.50077472143E+02  0.00000000000E+00 0.  1.
         12    1    4    4    0    0  0.17614720411E+00  0.13295249124E+00  0.17646693425E+03  0.17646707225E+03  0.00000000000E+00 0. -1.
         -5    1    5    5    0  502  0.52516191330E+02  0.30568998848E+01  0.14379932739E+03  0.15319148653E+03  0.47000000000E+01 0.  1.
         11    1    6    6    0    0 -0.52222379507E+01 -0.18086316025E+02  0.25453352080E+02  0.31658485887E+02  0.00000000000E+00 0. -1.
        -12    1    6    6    0    0 -0.70064508257E+02  0.84159399792E+02  0.16052809240E+03  0.19432217666E+03  0.00000000000E+00 0.  1.
</event>
<event>
12    1  0.8358445E-002  0.2185597E+03  0.7818608E-02  0.1135572E+00
         21   -1    0    0  503  502  0.00000000000E+00  0.00000000000E+00  0.89502330939E+02  0.89502330939E+02  0.00000000000E+00 0. -1.
         21   -1    0    0  501  503 -0.00000000000E+00 -0.00000000000E+00 -0.58484090791E+03  0.58484090791E+03  0.00000000000E+00 0.  1.
          6    2    1    2  501    0 -0.33090786993E+01 -0.13494343936E+03 -0.35638869476E+03  0.41806847072E+03  0.17189433565E+03 0.  0.
         24    2    3    3    0    0 -0.15359079637E+02  0.95717338154E+00 -0.15187840219E+03  0.17218083615E+03  0.79639021699E+02 0.  0.
         -6    2    1    2    0  502  0.33090786993E+01  0.13494343936E+03 -0.13894988221E+03  0.25627476813E+03  0.16777665268E+03 0.  0.
        -24    2    5    5    0    0 -0.17438287847E+02  0.26075511112E+02 -0.10919503640E+02  0.86874216605E+02  0.80273705459E+02 0.  0.
          5    1    3    3  501    0  0.12050000937E+02 -0.13590061274E+03 -0.20451029257E+03  0.24588763457E+03  0.47000000000E+01 0. -1.
        -13    1    4    4    0    0 -0.32322205247E+02  0.74330945018E+01 -0.15034415827E+03  0.15395889637E+03  0.00000000000E+00 0.  1.
         14    1    4    4    0    0  0.16963125611E+02 -0.64759211202E+01 -0.15342439189E+01  0.18221939777E+02  0.00000000000E+00 0. -1.
         -5    1    5    5    0  502  0.20747366546E+02  0.10886792825E+03 -0.12803037857E+03  0.16940055152E+03  0.47000000000E+01 0.  1.
         11    1    6    6    0    0 -0.25557540796E+02 -0.23863923875E+02  0.65133348130E+00  0.34972832164E+02  0.00000000000E+00 0. -1.
        -12    1    6    6    0    0  0.81192529495E+01  0.49939434987E+02 -0.11570837121E+02  0.51901384441E+02  0.00000000000E+00 0.  1.
</event>
<event>
12    1  0.8358445E-002  0.1936427E+03  0.7818608E-02  0.1155267E+00
         21   -1    0    0  501  502  0.00000000000E+00  0.00000000000E+00  0.79378718922E+02  0.79378718922E+02  0.00000000000E+00 0.  1.
         21   -1    0    0  502  503 -0.00000000000E+00 -0.00000000000E+00 -0.48589262180E+03  0.48589262180E+03  0.00000000000E+00 0.  1.
         -6    2    1    2    0  503  0.87120515068E+02 -0.10242879438E+02 -0.25145646397E+03  0.31737648668E+03  0.17263423849E+03 0.  0.
        -24    2    3    3    0    0  0.37816205623E+02  0.51189445431E+02 -0.19702819900E+03  0.22151527713E+03  0.78730439288E+02 0.  0.
          6    2    1    2  501    0 -0.87120515068E+02  0.10242879438E+02 -0.15505743891E+03  0.24789485404E+03  0.17237792369E+03 0.  0.
         24    2    5    5    0    0 -0.57029182029E+02  0.68737914621E+02 -0.64261705120E+02  0.13567581493E+03  0.79379666807E+02 0.  0.
          5    1    5    5  501    0 -0.30091333039E+02 -0.58495035183E+02 -0.90795733786E+02  0.11221903911E+03  0.47000000000E+01 0. -1.
        -11    1    6    6    0    0 -0.68504457749E+02  0.62939209194E+02 -0.74546237850E+02  0.11921135165E+03  0.00000000000E+00 0.  1.
         12    1    6    6    0    0  0.11475275720E+02  0.57987054270E+01  0.10284532730E+02  0.16464463276E+02  0.00000000000E+00 0. -1.
         -5    1    3    3    0  503  0.49304309445E+02 -0.61432324869E+02 -0.54428264973E+02  0.95861209551E+02  0.47000000000E+01 0.  1.
         11    1    4    4    0    0 -0.12825233310E+02  0.86510026422E+01 -0.20253152608E+01  0.15602190810E+02  0.00000000000E+00 0. -1.
        -12    1    4    4    0    0  0.50641438933E+02  0.42538442788E+02 -0.19500288374E+03  0.20591308632E+03  0.00000000000E+00 0.  1.
</event>
<event>
12    1  0.8358445E-002  0.1874271E+03  0.7818608E-02  0.1161257E+00
         21   -1    0    0  501  502  0.00000000000E+00  0.00000000000E+00  0.65978036258E+02  0.65978036258E+02  0.00000000000E+00 0.  1.
         21   -1    0    0  502  503 -0.00000000000E+00 -0.00000000000E+00 -0.62871621757E+03  0.62871621757E+03  0.00000000000E+00 0. -1.
         -6    2    1    2    0  503 -0.66022239562E+02  0.26474968440E+02 -0.41993306224E+03  0.45906272686E+03  0.17127448835E+03 0.  0.
        -24    2    3    3    0    0 -0.73975199717E+02  0.42364222929E+01 -0.13818940969E+03  0.17629183327E+03  0.80574314018E+02 0.  0.
          6    2    1    2  501    0  0.66022239562E+02 -0.26474968440E+02 -0.14280511907E+03  0.23563152697E+03  0.17340430905E+03 0.  0.
         24    2    5    5    0    0  0.42337641934E+02 -0.12776974509E+02 -0.64558897371E+00  0.90786723128E+02  0.79284836564E+02 0.  0.
          5    1    5    5  501    0  0.23684597628E+02 -0.13697993932E+02 -0.14215953010E+03  0.14484480384E+03  0.47000000000E+01 0. -1.
        -13    1    6    6    0    0  0.27162850045E+02 -0.14700350780E+01 -0.39272330220E+02  0.47773395803E+02  0.00000000000E+00 0.  1.
         14    1    6    6    0    0  0.15174791889E+02 -0.11306939431E+02  0.38626741246E+02  0.43013327324E+02  0.00000000000E+00 0. -1.
         -5    1    3    3    0  503  0.79529601550E+01  0.22238546147E+02 -0.28174365255E+03  0.28277089359E+03  0.47000000000E+01 0.  1.
         13    1    4    4    0    0 -0.23902197966E+02 -0.18109348537E+02 -0.11120790566E+03  0.11518012786E+03  0.00000000000E+00 0. -1.
        -14    1    4    4    0    0 -0.50073001751E+02  0.22345770830E+02 -0.26981504029E+02  0.61111705409E+02  0.00000000000E+00 0.  1.
</event>
<event>
12    1  0.8358445E-002  0.1985253E+03  0.7818608E-02  0.1151744E+00
         21   -1    0    0  503  502  0.00000000000E+00  0.00000000000E+00  0.81819378554E+02  0.81819378554E+02  0.00000000000E+00 0. -1.
         21   -1    0    0  501  503 -0.00000000000E+00 -0.00000000000E+00 -0.56560833973E+03  0.56560833973E+03  0.00000000000E+00 0. -1.
          6    2    1    2  501    0  0.50282718557E+02  0.82853605520E+02 -0.11287098775E+03  0.22836843927E+03  0.17326053344E+03 0.  0.
         24    2    3    3    0    0 -0.25224648805E+02  0.43483210003E+02 -0.85328109867E+01  0.93609633626E+02  0.78504026551E+02 0.  0.
         -6    2    1    2    0  502 -0.50282718557E+02 -0.82853605520E+02 -0.37091797343E+03  0.41905927901E+03  0.16922607536E+03 0.  0.
        -24    2    5    5    0    0 -0.36590224744E+02  0.16234596638E+02 -0.11443817778E+03  0.14372324474E+03  0.77187226079E+02 0.  0.
          5    1    3    3  501    0  0.75507367362E+02  0.39370395516E+02 -0.10433817676E+03  0.13475880564E+03  0.47000000000E+01 0. -1.
        -13    1    4    4    0    0 -0.21972369030E+02  0.36190292557E+01 -0.37921735399E+02  0.43976589104E+02  0.00000000000E+00 0.  1.
         14    1    4    4    0    0 -0.32522797752E+01  0.39864180748E+02  0.29388924412E+02  0.49633044522E+02  0.00000000000E+00 0. -1.
         -5    1    5    5    0  502 -0.13692493813E+02 -0.99088202157E+02 -0.25647979565E+03  0.27533603427E+03  0.47000000000E+01 0.  1.
         11    1    6    6    0    0 -0.16155679785E+02 -0.12622991712E+02 -0.10519606736E+03  0.10717536329E+03  0.00000000000E+00 0. -1.
        -12    1    6    6    0    0 -0.20434544959E+02  0.28857588349E+02 -0.92421104168E+01  0.36547881443E+02  0.00000000000E+00 0.  1.
</event>
<event>
12    1  0.8358445E-002  0.2785366E+03  0.7818608E-02  0.1096499E+00
         21   -1    0    0  503  502  0.00000000000E+00  0.00000000000E+00  0.11791786108E+03  0.11791786108E+03  0.00000000000E+00 0.  1.
         21   -1    0    0  501  503 -0.00000000000E+00 -0.00000000000E+00 -0.66184804404E+03  0.66184804404E+03  0.00000000000E+00 0. -1.
          6    2    1    2  501    0  0.12528159016E+03  0.17770592332E+03 -0.30248083361E+03  0.41119012211E+03  0.17409132605E+03 0.  0.
         24    2    3    3    0    0  0.11013472448E+03  0.19897268359E+03 -0.22563993880E+03  0.32989857429E+03  0.78739449999E+02 0.  0.
         -6    2    1    2    0  502 -0.12528159016E+03 -0.17770592332E+03 -0.24144934935E+03  0.36857578300E+03  0.17399841234E+03 0.  0.
        -24    2    5    5    0    0 -0.29371730380E+02 -0.36422136298E+02 -0.14683073007E+03  0.17329500363E+03  0.79263007964E+02 0.  0.
          5    1    3    3  501    0  0.15146865679E+02 -0.21266760272E+02 -0.76840894807E+02  0.81291547821E+02  0.47000000000E+01 0. -1.
        -13    1    4    4    0    0  0.11650976007E+03  0.18777257185E+03 -0.18806474809E+03  0.29017479629E+03  0.00000000000E+00 0.  1.
         14    1    4    4    0    0 -0.63750355810E+01  0.11200111743E+02 -0.37575190713E+02  0.39723778003E+02  0.00000000000E+00 0. -1.
         -5    1    5    5    0  502 -0.95909859784E+02 -0.14128378702E+03 -0.94618619282E+02  0.19528077938E+03  0.47000000000E+01 0.  1.
         13    1    6    6    0    0  0.71782083279E+01 -0.51747916962E+02 -0.78295922068E+02  0.94125580993E+02  0.00000000000E+00 0. -1.
        -14    1    6    6    0    0 -0.36549938708E+02  0.15325780665E+02 -0.68534807999E+02  0.79169422633E+02  0.00000000000E+00 0.  1.
</event>
<event>
12    1  0.8358445E-002  0.1971266E+03  0.7818608E-02  0.1152268E+00
         21   -1    0    0  503  502  0.00000000000E+00  0.00000000000E+00  0.26673160731E+03  0.26673160731E+03  0.00000000000E+00 0.  1.
         21   -1    0    0  501  503 -0.00000000000E+00 -0.00000000000E+00 -0.17656119534E+03  0.17656119534E+03  0.00000000000E+00 0.  1.
          6    2    1    2  501    0 -0.91306632528E+02  0.26019299203E+02 -0.47988914372E+02  0.20288379921E+03  0.17275704040E+03 0.  0.
         24    2    3    3    0    0 -0.92941278936E+02  0.98263821121E+01  0.27341268156E+02  0.12567234260E+03  0.79444028312E+02 0.  0.
         -6    2    1    2    0  502  0.91306632528E+02 -0.26019299203E+02  0.13815932634E+03  0.24040900344E+03  0.17232116645E+03 0.  0.
        -24    2    5    5    0    0  0.62325272425E+02 -0.67229305372E+02  0.14106670176E+03  0.18972639623E+03  0.87704458246E+02 0.  0.
          5    1    3    3  501    0  0.16346464075E+01  0.16192917091E+02 -0.75330182528E+02  0.77211456614E+02  0.47000000000E+01 0. -1.
        -13    1    4    4    0    0 -0.40157100969E+02 -0.34867659603E+02  0.74290691642E+01  0.53698580178E+02  0.00000000000E+00 0.  1.
         14    1    4    4    0    0 -0.52784177967E+02  0.44694041716E+02  0.19912198992E+02  0.71973762422E+02  0.00000000000E+00 0. -1.
         -5    1    5    5    0  502  0.28981360104E+02  0.41210006168E+02 -0.29073754232E+01  0.50682607211E+02  0.47000000000E+01 0.  1.
         11    1    6    6    0    0  0.15398703651E+02  0.38799728918E+01  0.87850995548E+02  0.89274697885E+02  0.00000000000E+00 0. -1.
        -12    1    6    6    0    0  0.46926568774E+02 -0.71109278264E+02  0.53215706213E+02  0.10045169834E+03  0.00000000000E+00 0.  1.
</event>
<event>
12    1  0.8358445E-002  0.2809473E+03  0.7818608E-02  0.1095454E+00
         21   -1    0    0  501  502  0.00000000000E+00  0.00000000000E+00  0.24295569193E+03  0.24295569193E+03  0.00000000000E+00 0. -1.
         21   -1    0    0  502  503 -0.00000000000E+00 -0.00000000000E+00 -0.61348191904E+03  0.61348191904E+03  0.00000000000E+00 0. -1.
         -6    2    1    2    0  503  0.22142928768E+03  0.13819647686E+02 -0.48053504781E+03  0.55663752353E+03  0.17236440561E+03 0.  0.
        -24    2    3    3    0    0  0.21761542212E+03  0.25290783673E+02 -0.32190579310E+03  0.39747891402E+03  0.79812604107E+02 0.  0.
          6    2    1    2  501    0 -0.22142928768E+03 -0.13819647686E+02  0.11000882071E+03  0.29980008744E+03  0.16898591565E+03 0.  0.
         24    2    5    5    0    0 -0.44148126610E+02 -0.42102802607E+02  0.63213038710E+02  0.11421861709E+03  0.72995213241E+02 0.  0.
          5    1    5    5  501    0 -0.17728116107E+03  0.28283154921E+02  0.46795781996E+02  0.18558147035E+03  0.47000000000E+01 0. -1.
        -13    1    6    6    0    0 -0.11145810638E+02 -0.40643235345E+02 -0.83614171716E+00  0.42152115096E+02  0.00000000000E+00 0.  1.
         14    1    6    6    0    0 -0.33002315972E+02 -0.14595672620E+01  0.64049180427E+02  0.72066501993E+02  0.00000000000E+00 0. -1.
         -5    1    3    3    0  503  0.38138655580E+01 -0.11471135987E+02 -0.15862925471E+03  0.15915860951E+03  0.47000000000E+01 0.  1.
         11    1    4    4    0    0  0.12737823495E+03 -0.13739774963E+02 -0.22795216484E+03  0.26148840435E+03  0.00000000000E+00 0. -1.
        -12    1    4    4    0    0  0.90237187179E+02  0.39030558637E+02 -0.93953628262E+02  0.13599050967E+03  0.00000000000E+00 0.  1.
</event>
<event>
12    1  0.8358445E-002  0.1854227E+03  0.7818608E-02  0.1162749E+00
         21   -1    0    0  503  502  0.00000000000E+00  0.00000000000E+00  0.17522286589E+03  0.17522286589E+03  0.00000000000E+00 0. -1.
         21   -1    0    0  501  503 -0.00000000000E+00 -0.00000000000E+00 -0.46653564345E+03  0.46653564345E+03  0.00000000000E+00 0. -1.
          6    2    1    2  501    0  0.51341551730E+02  0.40786235157E+02 -0.39003346926E+03  0.43169338389E+03  0.17301329035E+03 0.  0.
         24    2    3    3    0    0  0.66609233216E+02  0.49803582723E+02 -0.14201954562E+03  0.18300198682E+03  0.80018679324E+02 0.  0.
         -6    2    1    2    0  502 -0.51341551730E+02 -0.40786235157E+02  0.98720691705E+02  0.21006512545E+03  0.17344195008E+03 0.  0.
        -24    2    5    5    0    0 -0.43863820798E+02 -0.58635196736E+02  0.27616808380E+00  0.10962650678E+03  0.81582924983E+02 0.  0.
          5    1    3    3  501    0 -0.15267681486E+02 -0.90173475665E+01 -0.24801392365E+03  0.24869139707E+03  0.47000000000E+01 0. -1.
        -11    1    4    4    0    0  0.42217422686E+01 -0.77976374041E+01  0.71281336296E+01  0.11377018323E+02  0.00000000000E+00 0.  1.
         12    1    4    4    0    0  0.62387490947E+02  0.57601220127E+02 -0.14914767924E+03  0.17162496849E+03  0.00000000000E+00 0. -1.
         -5    1    5    5    0  502 -0.74777309323E+01  0.17848961579E+02  0.98444523621E+02  0.10043861867E+03  0.47000000000E+01 0.  1.
         11    1    6    6    0    0 -0.35858379196E+02 -0.20129397241E+01 -0.28275425414E+02  0.45709681330E+02  0.00000000000E+00 0. -1.
        -12    1    6    6    0    0 -0.80054416012E+01 -0.56622257012E+02  0.28551593498E+02  0.63916825450E+02  0.00000000000E+00 0.  1.
</event>
<event>
12    1  0.8358445E-002  0.2001735E+03  0.7818608E-02  0.1149608E+00
         21   -1    0    0  503  502  0.00000000000E+00  0.00000000000E+00  0.50829081715E+02  0.50829081715E+02  0.00000000000E+00 0.  1.
         21   -1    0    0  501  503 -0.00000000000E+00 -0.00000000000E+00 -0.89556909293E+03  0.89556909293E+03  0.00000000000E+00 0.  1.
          6    2    1    2  501    0 -0.10111427391E+03 -0.20299776600E+02 -0.58627916817E+03  0.61948620504E+03  0.17147512324E+03 0.  0.
         24    2    3    3    0    0 -0.32517051517E+02  0.51109045862E+02 -0.24967681840E+03  0.26859016529E+03  0.78311365937E+02 0.  0.
         -6    2    1    2    0  502  0.10111427391E+03  0.20299776600E+02 -0.25846084305E+03  0.32691196961E+03  0.17156121696E+03 0.  0.
        -24    2    5    5    0    0  0.12218968936E+03 -0.15836405606E+02 -0.24129136158E+03  0.28144904081E+03  0.76229452758E+02 0.  0.
          5    1    3    3  501    0 -0.68597222392E+02 -0.71408822463E+02 -0.33660234977E+03  0.35089603975E+03  0.47000000000E+01 0. -1.
        -11    1    4    4    0    0  0.56103703987E+01  0.35632572428E+02 -0.20378087677E+03  0.20694879128E+03  0.00000000000E+00 0.  1.
         12    1    4    4    0    0 -0.38127421916E+02  0.15476473434E+02 -0.45895941630E+02  0.61641374011E+02  0.00000000000E+00 0. -1.
         -5    1    5    5    0  502 -0.21075415456E+02  0.36136182206E+02 -0.17169481469E+02  0.45462928799E+02  0.47000000000E+01 0.  1.
         11    1    6    6    0    0  0.93134695286E+02 -0.44831141923E+02 -0.16207572075E+03  0.19223017976E+03  0.00000000000E+00 0. -1.
        -12    1    6    6    0    0  0.29054994078E+02  0.28994736317E+02 -0.79215640829E+02  0.89218861049E+02  0.00000000000E+00 0.  1.
</event>
<event>
12    1  0.8358445E-002  0.2151720E+03  0.7818608E-02  0.1137766E+00
         21   -1    0    0  503  502  0.00000000000E+00  0.00000000000E+00  0.21302905466E+04  0.21302905466E+04  0.00000000000E+00 0. -1.
         21   -1    0    0  501  503 -0.00000000000E+00 -0.00000000000E+00 -0.61868275708E+02  0.61868275708E+02  0.00000000000E+00 0. -1.
          6    2    1    2  501    0 -0.17022892735E+02  0.12697963263E+03  0.14905132390E+03  0.26076455572E+03  0.17137167322E+03 0.  0.
         24    2    3    3    0    0 -0.41930478653E+02  0.14869194123E+02  0.30401681568E+02  0.95570833425E+02  0.78932021294E+02 0.  0.
         -6    2    1    2    0  502  0.17022892735E+02 -0.12697963263E+03  0.19193709470E+04  0.19313942666E+04  0.17287386992E+03 0.  0.
        -24    2    5    5    0    0 -0.28256857487E+02 -0.13199762892E+03  0.16986783789E+04  0.17059996445E+04  0.81882403407E+02 0.  0.
          5    1    3    3  501    0  0.24907585918E+02  0.11211043850E+03  0.11864964233E+03  0.16519372229E+03  0.47000000000E+01 0. -1.
        -13    1    4    4    0    0 -0.63986513620E+01 -0.70924356558E+01 -0.24667145668E+02  0.26452097425E+02  0.00000000000E+00 0.  1.
         14    1    4    4    0    0 -0.35531827291E+02  0.21961629778E+02  0.55068827236E+02  0.69118736000E+02  0.00000000000E+00 0. -1.
         -5    1    5    5    0  502  0.45279750222E+02  0.50179962967E+01  0.22069256807E+03  0.22539462209E+03  0.47000000000E+01 0.  1.
         13    1    6    6    0    0 -0.93745723016E+01  0.10314555021E+02  0.18766441464E+03  0.18818130931E+03  0.00000000000E+00 0. -1.
        -14    1    6    6    0    0 -0.18882285186E+02 -0.14231218394E+03  0.15110139643E+04  0.15178183352E+04  0.00000000000E+00 0.  1.
</event>
<event>
12    1  0.8358445E-002  0.2186599E+03  0.7818608E-02  0.1135796E+00
         21   -1    0    0  503  502  0.00000000000E+00  0.00000000000E+00  0.79091888441E+03  0.79091888441E+03  0.00000000000E+00 0.  1.
         21   -1    0    0  501  503 -0.00000000000E+00 -0.00000000000E+00 -0.78951216458E+02  0.78951216458E+02  0.00000000000E+00 0.  1.
          6    2    1    2  501    0  0.13185499107E+03  0.11408391508E+02  0.13514564882E+03  0.25299426063E+03  0.16800553399E+03 0.  0.
         24    2    3    3    0    0  0.95735281772E+02  0.15900366307E+00  0.13245348592E+02  0.12527208041E+03  0.79701853252E+02 0.  0.
         -6    2    1    2    0  502 -0.13185499107E+03 -0.11408391508E+02  0.57682201913E+03  0.61687584023E+03  0.17405823866E+03 0.  0.
        -24    2    5    5    0    0 -0.16512206714E+03 -0.50223498639E+01  0.49385982668E+03  0.52714125796E+03  0.81791542273E+02 0.  0.
          5    1    3    3  501    0  0.36119709294E+02  0.11249387845E+02  0.12190030023E+03  0.12772218023E+03  0.47000000000E+01 0. -1.
        -11    1    4    4    0    0 -0.76615022163E+01  0.13777522945E+02  0.13844342988E+02  0.20980576433E+02  0.00000000000E+00 0.  1.
         12    1    4    4    0    0  0.10339678399E+03 -0.13618519282E+02 -0.59899439567E+00  0.10429150397E+03  0.00000000000E+00 0. -1.
         -5    1    5    5    0  502  0.33267076074E+02 -0.63860416442E+01  0.82962192455E+02  0.89734582271E+02  0.47000000000E+01 0.  1.
         11    1    6    6    0    0 -0.10480091269E+03  0.24195766249E+02  0.21581806147E+03  0.24113502870E+03  0.00000000000E+00 0. -1.
        -12    1    6    6    0    0 -0.60321154447E+02 -0.29218116112E+02  0.27804176520E+03  0.28600622927E+03  0.00000000000E+00 0.  1.
</event>
<event>
12    1  0.8358445E-002  0.1768806E+03  0.7818608E-02  0.1170979E+00
         21   -1    0    0  503  502  0.00000000000E+00  0.00000000000E+00  0.87330974871E+02  0.87330974871E+02  0.00000000000E+00 0.  1.
         21   -1    0    0  501  503 -0.00000000000E+00 -0.00000000000E+00 -0.50168649113E+03  0.50168649113E+03  0.00000000000E+00 0.  1.
          6    2    1    2  501    0  0.36723221945E+02  0.17565538456E+02 -0.36540593436E+03  0.40596581499E+03  0.17213251552E+03 0.  0.
         24    2    3    3    0    0  0.57813694679E+02  0.36208713097E+02 -0.36151053055E+03  0.37716233999E+03  0.83114817057E+02 0.  0.
         -6    2    1    2    0  502 -0.36723221945E+02 -0.17565538456E+02 -0.48949581891E+02  0.18305165101E+03  0.17162372272E+03 0.  0.
        -24    2    5    5    0    0  0.43701505876E+01  0.13251501827E+02 -0.88774840263E+02  0.11788650356E+03  0.76299114942E+02 0.  0.
          5    1    3    3  501    0 -0.21090472734E+02 -0.18643174641E+02 -0.38954038121E+01  0.28803474993E+02  0.47000000000E+01 0. -1.
        -13    1    4    4    0    0  0.56756571069E+01  0.49316233181E+02 -0.12241726049E+03  0.13209954430E+03  0.00000000000E+00 0.  1.
         14    1    4    4    0    0  0.52138037572E+02 -0.13107520084E+02 -0.23909327006E+03  0.24506279569E+03  0.00000000000E+00 0. -1.
         -5    1    5    5    0  502 -0.41093372533E+02 -0.30817040283E+02  0.39825258371E+02  0.65165147451E+02  0.47000000000E+01 0.  1.
         13    1    6    6    0    0  0.32334745340E+02 -0.14713419422E+02 -0.56958408384E+02  0.67128836969E+02  0.00000000000E+00 0. -1.
        -14    1    6    6    0    0 -0.27964594752E+02  0.27964921249E+02 -0.31816431879E+02  0.50757666590E+02  0.00000000000E+00 0.  1.
</event>
<event>
12    1  0.8358445E-002  0.2376128E+03  0.7818608E-02  0.1122407E+00
         21   -1    0    0  503  502  0.00000000000E+00  0.00000000000E+00  0.17390539848E+03  0.17390539848E+03  0.00000000000E+00 0.  1.
         21   -1    0    0  501  503 -0.00000000000E+00 -0.00000000000E+00 -0.51166409746E+03  0.51166409746E+03  0.00000000000E+00 0. -1.
          6    2    1    2  501    0 -0.52567673400E+02  0.15516779793E+03 -0.38183118789E+03  0.44972756644E+03  0.17210294060E+03 0.  0.
         24    2    3    3    0    0 -0.81078958417E+02  0.17011710031E+03 -0.31899593232E+03  0.37896928524E+03  0.79659833076E+02 0.  0.
         -6    2    1    2    0  502  0.52567673400E+02 -0.15516779793E+03  0.44072488916E+02  0.23584192951E+03  0.16382498476E+03 0.  0.
        -24    2    5    5    0    0  0.33522733559E+02 -0.16891824584E+03  0.43257301570E+01  0.18943417818E+03  0.78800053812E+02 0.  0.
          5    1    3    3  501    0  0.28511285017E+02 -0.14949302375E+02 -0.62835255573E+02  0.70758281195E+02  0.47000000000E+01 0. -1.
        -13    1    4    4    0    0 -0.54635019737E+02  0.11486996543E+03 -0.13701696627E+03  0.18695920246E+03  0.00000000000E+00 0.  1.
         14    1    4    4    0    0 -0.26443938680E+02  0.55247134883E+02 -0.18197896605E+03  0.19201008279E+03  0.00000000000E+00 0. -1.
         -5    1    5    5    0  502  0.19044939842E+02  0.13750447904E+02  0.39746758759E+02  0.46407751324E+02  0.47000000000E+01 0.  1.
         11    1    6    6    0    0  0.24094583841E+02 -0.12528667393E+03 -0.32396810730E+02  0.13163150452E+03  0.00000000000E+00 0. -1.
        -12    1    6    6    0    0  0.94281497174E+01 -0.43631571905E+02  0.36722540887E+02  0.57802673668E+02  0.00000000000E+00 0.  1.
</event>
<event>
12    1  0.8358445E-002  0.2564661E+03  0.7818608E-02  0.1109547E+00
         21   -1    0    0  503  502  0.00000000000E+00  0.00000000000E+00  0.29001911554E+03  0.29001911554E+03  0.00000000000E+00 0. -1.
         21   -1    0    0  501  503 -0.00000000000E+00 -0.00000000000E+00 -0.30526894937E+03  0.30526894937E+03  0.00000000000E+00 0. -1.
          6    2    1    2  501    0  0.17917170294E+03  0.55531515479E+02 -0.15999262340E+03  0.30227883544E+03  0.17489598757E+03 0.  0.
         24    2    3    3    0    0  0.12351011650E+03  0.76851221807E+01 -0.17409493221E+03  0.22738921887E+03  0.77993598802E+02 0.  0.
         -6    2    1    2    0  502 -0.17917170294E+03 -0.55531515479E+02  0.14474278956E+03  0.29300922947E+03  0.17238818137E+03 0.  0.
        -24    2    5    5    0    0 -0.15351698490E+03 -0.89803181220E+02  0.15477467625E+03  0.24878886785E+03  0.79426849051E+02 0.  0.
          5    1    3    3  501    0  0.55661586447E+02  0.47846393298E+02  0.14102308814E+02  0.74889616579E+02  0.47000000000E+01 0. -1.
        -11    1    4    4    0    0  0.14594544098E+02 -0.19602516178E+02 -0.58685855293E+01  0.25133635910E+02  0.00000000000E+00 0.  1.
         12    1    4    4    0    0  0.10891557240E+03  0.27287638359E+02 -0.16822634668E+03  0.20225558296E+03  0.00000000000E+00 0. -1.
         -5    1    5    5    0  502 -0.25654718047E+02  0.34271665741E+02 -0.10031886687E+02  0.44220361614E+02  0.47000000000E+01 0.  1.
         11    1    6    6    0    0 -0.25869788511E+02 -0.48536998496E+02  0.73982207884E+02  0.92187055838E+02  0.00000000000E+00 0. -1.
        -12    1    6    6    0    0 -0.12764719639E+03 -0.41266182724E+02  0.80792468367E+02  0.15660181202E+03  0.00000000000E+00 0.  1.
</event>
<event>
12    1  0.8358445E-002  0.2221150E+03  0.7818608E-02  0.1132359E+00
         21   -1    0    0  503  502  0.00000000000E+00  0.00000000000E+00  0.75229089353E+02  0.75229089353E+02  0.00000000000E+00 0.  1.
         21   -1    0    0  501  503 -0.00000000000E+00 -0.00000000000E+00 -0.94798171086E+03  0.94798171086E+03  0.00000000000E+00 0.  1.
          6    2    1    2  501    0 -0.99294948906E+02 -0.98703855377E+02 -0.72058313732E+03  0.75396997350E+03  0.17212996602E+03 0.  0.
         24    2    3    3    0    0  0.12574329384E+02 -0.29648791178E+02 -0.22648780127E+03  0.24266221058E+03  0.80938617116E+02 0.  0.
         -6    2    1    2    0  502  0.99294948906E+02  0.98703855377E+02 -0.15216948419E+03  0.26924082672E+03  0.17243298092E+03 0.  0.
        -24    2    5    5    0    0  0.15643333201E+02  0.11258528391E+03 -0.91804359006E+02  0.16504713590E+03  0.76761687774E+02 0.  0.
          5    1    3    3  501    0 -0.11186927829E+03 -0.69055064199E+02 -0.49409533605E+03  0.51130776292E+03  0.47000000000E+01 0. -1.
        -13    1    4    4    0    0 -0.55392059613E+01 -0.21625732846E+02 -0.22097344602E+03  0.22209821920E+03  0.00000000000E+00 0.  1.
         14    1    4    4    0    0  0.18113535345E+02 -0.80230583316E+01 -0.55143552478E+01  0.20563991380E+02  0.00000000000E+00 0. -1.
         -5    1    5    5    0  502  0.83651615705E+02 -0.13881428530E+02 -0.60365125186E+02  0.10419369082E+03  0.47000000000E+01 0.  1.
         11    1    6    6    0    0 -0.20548265418E+02  0.31453915238E+02 -0.59794700293E+02  0.70618596549E+02  0.00000000000E+00 0. -1.
        -12    1    6    6    0    0  0.36191598620E+02  0.81131368669E+02 -0.32009658713E+02  0.94428539349E+02  0.00000000000E+00 0.  1.
</event>
<event>
12    1  0.8358445E-002  0.2548756E+03  0.7818608E-02  0.1111175E+00
         21   -1    0    0  501  502  0.00000000000E+00  0.00000000000E+00  0.60226868548E+02  0.60226868548E+02  0.00000000000E+00 0.  1.
         21   -1    0    0  502  503 -0.00000000000E+00 -0.00000000000E+00 -0.10734455163E+04  0.10734455163E+04  0.00000000000E+00 0. -1.
         -6    2    1    2    0  503  0.45148176373E+02  0.18298596150E+03 -0.43609761947E+03  0.50511652883E+03  0.17157900237E+03 0.  0.
        -24    2    3    3    0    0 -0.10463741453E+02  0.12152794848E+03 -0.16171991042E+03  0.21845472462E+03  0.81796119317E+02 0.  0.
          6    2    1    2  501    0 -0.45148176373E+02 -0.18298596150E+03 -0.57712102831E+03  0.62855585604E+03  0.16276228961E+03 0.  0.
         24    2    5    5    0    0 -0.84509876745E+02 -0.11733066547E+03 -0.32017667832E+03  0.36040953341E+03  0.80458200979E+02 0.  0.
          5    1    5    5  501    0  0.39361700372E+02 -0.65655296022E+02 -0.25694434999E+03  0.26814632264E+03  0.47000000000E+01 0. -1.
        -13    1    6    6    0    0 -0.84963478204E+02 -0.12692216438E+03 -0.27841108940E+03  0.31755434675E+03  0.00000000000E+00 0.  1.
         14    1    6    6    0    0  0.45360145903E+00  0.95914989106E+01 -0.41765588916E+02  0.42855186654E+02  0.00000000000E+00 0. -1.
         -5    1    3    3    0  503  0.55611917826E+02  0.61458013013E+02 -0.27437770905E+03  0.28666180421E+03  0.47000000000E+01 0.  1.
         11    1    4    4    0    0 -0.13244457228E+02  0.97743287191E+02 -0.16698032435E+03  0.19393708918E+03  0.00000000000E+00 0. -1.
        -12    1    4    4    0    0  0.27807157744E+01  0.23784661292E+02  0.52604139319E+01  0.24517635443E+02  0.00000000000E+00 0.  1.
</event>
<event>
12    1  0.8358445E-002  0.2661413E+03  0.7818608E-02  0.1103725E+00
         21   -1    0    0  501  502  0.00000000000E+00  0.00000000000E+00  0.62348156662E+03  0.62348156662E+03  0.00000000000E+00 0.  1.
         21   -1    0    0  502  503 -0.00000000000E+00 -0.00000000000E+00 -0.11374733115E+03  0.11374733115E+03  0.00000000000E+00 0. -1.
         -6    2    1    2    0  503 -0.18975851230E+03 -0.69219376638E+02  0.28592539055E+03  0.39062065977E+03  0.17329615053E+03 0.  0.
        -24    2    3    3    0    0 -0.11198897077E+03  0.21477437495E+02  0.90861305849E+02  0.16182795704E+03  0.70211828653E+02 0.  0.
          6    2    1    2  501    0  0.18975851230E+03  0.69219376638E+02  0.22380884492E+03  0.34660823800E+03  0.17101829287E+03 0.  0.
         24    2    5    5    0    0  0.14554132060E+03  0.67736421781E+02  0.23985320031E+03  0.29931267229E+03  0.79297031822E+02 0.  0.
          5    1    5    5  501    0  0.44217191694E+02  0.14829548572E+01 -0.16044355391E+02  0.47295565715E+02  0.47000000000E+01 0. -1.
        -13    1    6    6    0    0  0.32945688217E+02  0.10723155021E+02  0.12131863862E+03  0.12616899977E+03  0.00000000000E+00 0.  1.
         14    1    6    6    0    0  0.11259563239E+03  0.57013266760E+02  0.11853456168E+03  0.17314367251E+03  0.00000000000E+00 0. -1.
         -5    1    3    3    0  503 -0.77769541524E+02 -0.90696814133E+02  0.19506408470E+03  0.22879270273E+03  0.47000000000E+01 0.  1.
         11    1    4    4    0    0 -0.71641481186E+02 -0.19987060150E+02  0.38287268188E+02  0.83653447659E+02  0.00000000000E+00 0. -1.
        -12    1    4    4    0    0 -0.40347489586E+02  0.41464497645E+02  0.52574037661E+02  0.78174509380E+02  0.00000000000E+00 0.  1.
</event>
<event>
12    1  0.8358445E-002  0.2318524E+03  0.7818608E-02  0.1125367E+00
         21   -1    0    0  503  502  0.00000000000E+00  0.00000000000E+00  0.33847861521E+02  0.33847861521E+02  0.00000000000E+00 0.  1.
         21   -1    0    0  501  503 -0.00000000000E+00 -0.00000000000E+00 -0.15885164898E+04  0.15885164898E+04  0.00000000000E+00 0.  1.
          6    2    1    2  501    0  0.15261688583E+03 -0.30995540159E+02 -0.80078191563E+03  0.83367092075E+03  0.17176405435E+03 0.  0.
         24    2    3    3    0    0  0.16027524611E+03 -0.59063786103E+02 -0.76596488667E+03  0.78805521712E+03  0.71778355194E+02 0.  0.
         -6    2    1    2    0  502 -0.15261688583E+03  0.30995540159E+02 -0.75388671265E+03  0.78869343056E+03  0.17157947009E+03 0.  0.
        -24    2    5    5    0    0 -0.91500761008E+02 -0.49915358156E+02 -0.42999086226E+03  0.44926395912E+03  0.77987377823E+02 0.  0.
          5    1    3    3  501    0 -0.76583602794E+01  0.28068245944E+02 -0.34817028951E+02  0.45615703629E+02  0.47000000000E+01 0. -1.
        -13    1    4    4    0    0  0.75180932493E+02  0.91830090415E+01 -0.34152118877E+03  0.34981884261E+03  0.00000000000E+00 0.  1.
         14    1    4    4    0    0  0.85094313616E+02 -0.68246795145E+02 -0.42444369791E+03  0.43823637452E+03  0.00000000000E+00 0. -1.
         -5    1    5    5    0  502 -0.61116124822E+02  0.80910898315E+02 -0.32389585039E+03  0.33942947144E+03  0.47000000000E+01 0.  1.
         11    1    6    6    0    0 -0.27710737676E+02  0.16269562965E+02 -0.18136220329E+03  0.18418694971E+03  0.00000000000E+00 0. -1.
        -12    1    6    6    0    0 -0.63790023332E+02 -0.66184921121E+02 -0.24862865897E+03  0.26507700942E+03  0.00000000000E+00 0.  1.
</event>
<event>
12    1  0.8358445E-002  0.1744205E+03  0.7818608E-02  0.1174291E+00
         21   -1    0    0  503  502  0.00000000000E+00  0.00000000000E+00  0.92179150360E+02  0.92179150360E+02  0.00000000000E+00 0.  1.
         21   -1    0    0  501  503 -0.00000000000E+00 -0.00000000000E+00 -0.32521257230E+03  0.32521257230E+03  0.00000000000E+00 0.  1.
          6    2    1    2  501    0 -0.17283831806E+02  0.63335065228E+01 -0.13564136486E+03  0.22095496132E+03  0.17344644973E+03 0.  0.
         24    2    3    3    0    0  0.50248419416E+02  0.13301589122E+02 -0.39922844784E+02  0.10351014783E+03  0.80116672676E+02 0.  0.
         -6    2    1    2    0  502  0.17283831806E+02 -0.63335065228E+01 -0.97392057083E+02  0.19643676134E+03  0.16959759514E+03 0.  0.
        -24    2    5    5    0    0 -0.80914010994E+01 -0.52649030580E+02 -0.10490215126E+03  0.14288751552E+03  0.81086309320E+02 0.  0.
          5    1    3    3  501    0 -0.67532251222E+02 -0.69680825996E+01 -0.95718520077E+02  0.11744481349E+03  0.47000000000E+01 0. -1.
        -11    1    4    4    0    0  0.64248684274E+01 -0.29084359670E+02 -0.29000483550E+02  0.41571708623E+02  0.00000000000E+00 0.  1.
         12    1    4    4    0    0  0.43823550989E+02  0.42385948792E+02 -0.10922361234E+02  0.61938439205E+02  0.00000000000E+00 0. -1.
         -5    1    5    5    0  502  0.25375232905E+02  0.46315524058E+02  0.75100941812E+01  0.53549245824E+02  0.47000000000E+01 0.  1.
         13    1    6    6    0    0  0.27760273751E+02 -0.16658517168E+02 -0.78024970714E+01  0.33301921169E+02  0.00000000000E+00 0. -1.
        -14    1    6    6    0    0 -0.35851674850E+02 -0.35990513412E+02 -0.97099654193E+02  0.10958559435E+03  0.00000000000E+00 0.  1.
</event>
<event>
12    1  0.8358445E-002  0.1784031E+03  0.7818608E-02  0.1169821E+00
         21   -1    0    0  503  502  0.00000000000E+00  0.00000000000E+00  0.24418113447E+03  0.24418113447E+03  0.00000000000E+00 0.  1.
         21   -1    0    0  501  503 -0.00000000000E+00 -0.00000000000E+00 -0.24107935739E+03  0.24107935739E+03  0.00000000000E+00 0.  1.
          6    2    1    2  501    0  0.33417513546E+01  0.40121487113E+02 -0.16389918333E+03  0.24226143865E+03  0.17380092442E+03 0.  0.
         24    2    3    3    0    0 -0.26822663989E+02  0.23723776862E+02 -0.15209873772E+02  0.89587349063E+02  0.80698698626E+02 0.  0.
         -6    2    1    2    0  502 -0.33417513546E+01 -0.40121487113E+02  0.16700096041E+03  0.24299905322E+03  0.17186715235E+03 0.  0.
        -24    2    5    5    0    0  0.31640801706E+02 -0.57810618687E+02  0.18225819788E+02  0.89074341548E+02  0.57086336803E+02 0.  0.
          5    1    3    3  501    0  0.30164415343E+02  0.16397710250E+02 -0.14868930955E+03  0.15267408958E+03  0.47000000000E+01 0. -1.
        -11    1    4    4    0    0 -0.31533772377E+02  0.24760136241E+02 -0.44503073719E+02  0.59899638709E+02  0.00000000000E+00 0.  1.
         12    1    4    4    0    0  0.47111083885E+01 -0.10363593789E+01  0.29293199946E+02  0.29687710355E+02  0.00000000000E+00 0. -1.
         -5    1    5    5    0  502 -0.34982553061E+02  0.17689131574E+02  0.14877514062E+03  0.15392471167E+03  0.47000000000E+01 0.  1.
         13    1    6    6    0    0  0.34546876909E+02 -0.57349894525E+01  0.80894713390E+01  0.35941846847E+02  0.00000000000E+00 0. -1.
        -14    1    6    6    0    0 -0.29060752030E+01 -0.52075629234E+02  0.10136348449E+02  0.53132494701E+02  0.00000000000E+00 0.  1.
</event>
<event>
12    1  0.8358445E-002  0.4504881E+03  0.7818608E-02  0.1027597E+00
         21   -1    0    0  501  502  0.00000000000E+00  0.00000000000E+00  0.71870226302E+03  0.71870226302E+03  0.00000000000E+00 0. -1.
         21   -1    0    0  502  503 -0.00000000000E+00 -0.00000000000E+00 -0.28369748349E+03  0.28369748349E+03  0.00000000000E+00 0.  1.
         -6    2    1    2    0  503 -0.10632029252E+03  0.40270511234E+03  0.25383707084E+03  0.51684716961E+03  0.17094538922E+03 0.  0.
        -24    2    3    3    0    0 -0.73575595926E+01  0.85712303758E+02  0.52623306640E+02  0.12853398144E+03  0.79693408044E+02 0.  0.
          6    2    1    2  501    0  0.10632029252E+03 -0.40270511234E+03  0.18116770869E+03  0.48555257690E+03  0.17165125738E+03 0.  0.
         24    2    5    5    0    0  0.89255291554E+02 -0.15610185887E+03  0.12313597812E+03  0.23159559111E+03  0.78356565144E+02 0.  0.
          5    1    5    5  501    0  0.17065000968E+02 -0.24660325347E+03  0.58031730568E+02  0.25395698579E+03  0.47000000000E+01 0. -1.
        -13    1    6    6    0    0  0.11156126114E+01 -0.22082399665E+01 -0.97038681600E+01  0.10014288418E+02  0.00000000000E+00 0.  1.
         14    1    6    6    0    0  0.88139678942E+02 -0.15389361890E+03  0.13283984628E+03  0.22158130269E+03  0.00000000000E+00 0. -1.
         -5    1    3    3    0  503 -0.98962732929E+02  0.31699280858E+03  0.20121376420E+03  0.38831318817E+03  0.47000000000E+01 0.  1.
         11    1    4    4    0    0 -0.41278892723E+01  0.45232821798E+02  0.70741018680E+02  0.84067469104E+02  0.00000000000E+00 0. -1.
        -12    1    4    4    0    0 -0.32296703202E+01  0.40479481960E+02 -0.18117712041E+02  0.44466512341E+02  0.00000000000E+00 0.  1.
</event>
<event>
12    1  0.8358445E-002  0.2414238E+03  0.7818608E-02  0.1118974E+00
         21   -1    0    0  501  502  0.00000000000E+00  0.00000000000E+00  0.45200791826E+03  0.45200791826E+03  0.00000000000E+00 0. -1.
         21   -1    0    0  502  503 -0.00000000000E+00 -0.00000000000E+00 -0.30192597563E+03  0.30192597563E+03  0.00000000000E+00 0. -1.
         -6    2    1    2    0  503  0.88842358763E+02 -0.14248664913E+03 -0.21057495122E+03  0.32035493639E+03  0.17346488203E+03 0.  0.
        -24    2    3    3    0    0  0.12116811704E+03 -0.14899191088E+03 -0.18791831621E+03  0.28007235716E+03  0.79037520101E+02 0.  0.
          6    2    1    2  501    0 -0.88842358763E+02  0.14248664913E+03  0.36065689385E+03  0.43357895749E+03  0.17240042752E+03 0.  0.
         24    2    5    5    0    0 -0.38945270664E+02  0.23878524089E+01  0.17393690730E+03  0.19482419708E+03  0.78612874900E+02 0.  0.
          5    1    5    5  501    0 -0.49897088099E+02  0.14009879672E+03  0.18671998655E+03  0.23875476041E+03  0.47000000000E+01 0. -1.
        -13    1    6    6    0    0  0.15195377432E+02 -0.13778182666E+02  0.13068081965E+02  0.24321031621E+02  0.00000000000E+00 0.  1.
         14    1    6    6    0    0 -0.54140648096E+02  0.16166035075E+02  0.16086882533E+03  0.17050316546E+03  0.00000000000E+00 0. -1.
         -5    1    3    3    0  503 -0.32325758281E+02  0.65052617584E+01 -0.22656635014E+02  0.40282579226E+02  0.47000000000E+01 0.  1.
         13    1    4    4    0    0  0.10339889642E+03 -0.96462065374E+02 -0.17141538176E+03  0.22221497461E+03  0.00000000000E+00 0. -1.
        -14    1    4    4    0    0  0.17769220624E+02 -0.52529845509E+02 -0.16502934455E+02  0.57857382558E+02  0.00000000000E+00 0.  1.
</event>
<event>
12    1  0.8358445E-002  0.1722157E+03  0.7818608E-02  0.1175564E+00
         21   -1    0    0  501  502  0.00000000000E+00  0.00000000000E+00  0.89849657022E+02  0.89849657022E+02  0.00000000000E+00 0.  1.
         21   -1    0    0  502  503 -0.00000000000E+00 -0.00000000000E+00 -0.35185444584E+03  0.35185444584E+03  0.00000000000E+00 0.  1.
         -6    2    1    2    0  503  0.13000556581E+02  0.27922816770E+01 -0.76010118887E+02  0.18824399311E+03  0.17170163500E+03 0.  0.
        -24    2    3    3    0    0  0.33309529687E+01 -0.40598351060E+02  0.11203947168E+02  0.90240770912E+02  0.79740497529E+02 0.  0.
          6    2    1    2  501    0 -0.13000556581E+02 -0.27922816770E+01 -0.18599466993E+03  0.25346010975E+03  0.17167177603E+03 0.  0.
         24    2    5    5    0    0  0.19250068487E+02  0.68121493174E+01 -0.20719769790E+02  0.84728872192E+02  0.79578278492E+02 0.  0.
          5    1    5    5  501    0 -0.32250625067E+02 -0.96044309944E+01 -0.16527490014E+03  0.16873123756E+03  0.47000000000E+01 0. -1.
        -13    1    6    6    0    0 -0.11360893102E+02 -0.25574479966E+02 -0.27985583913E+02  0.39576720741E+02  0.00000000000E+00 0.  1.
         14    1    6    6    0    0  0.30610961589E+02  0.32386629284E+02  0.72658141235E+01  0.45152151451E+02  0.00000000000E+00 0. -1.
         -5    1    3    3    0  503  0.96696036119E+01  0.43390632737E+02 -0.87214066054E+02  0.98003222197E+02  0.47000000000E+01 0.  1.
         11    1    4    4    0    0  0.19315886141E+02 -0.29346696539E+02 -0.28987400744E+02  0.45547793109E+02  0.00000000000E+00 0. -1.
        -12    1    4    4    0    0 -0.15984933173E+02 -0.11251654521E+02  0.40191347912E+02  0.44692977804E+02  0.00000000000E+00 0.  1.
</event>
<event>
12    1  0.8358445E-002  0.1772124E+03  0.7818608E-02  0.1170642E+00
         21   -1    0    0  503  502  0.00000000000E+00  0.00000000000E+00  0.24832908092E+03  0.24832908092E+03  0.00000000000E+00 0. -1.
         21   -1    0    0  501  503 -0.00000000000E+00 -0.00000000000E+00 -0.45830691870E+03  0.45830691870E+03  0.00000000000E+00 0. -1.
          6    2    1    2  501    0  0.26761190639E+02 -0.33300778682E+02 -0.40574562345E+03  0.44257302681E+03  0.17151171949E+03 0.  0.
         24    2    3    3    0    0  0.80467060327E+02  0.48634135474E+00 -0.29945599999E+03  0.31869621714E+03  0.73608413643E+02 0.  0.
         -6    2    1    2    0  502 -0.26761190639E+02  0.33300778682E+02  0.19576778567E+03  0.26406297281E+03  0.17198582650E+03 0.  0.
        -24    2    5    5    0    0  0.40488897463E+02  0.16053725173E+02  0.16294755505E+03  0.18712603277E+03  0.81038099268E+02 0.  0.
          5    1    3    3  501    0 -0.53705869688E+02 -0.33787120036E+02 -0.10628962346E+03  0.12387680967E+03  0.47000000000E+01 0. -1.
        -11    1    4    4    0    0  0.34690175490E+02 -0.21008721224E+02 -0.51071407350E+02  0.65215514195E+02  0.00000000000E+00 0.  1.
         12    1    4    4    0    0  0.45776884837E+02  0.21495062579E+02 -0.24838459264E+03  0.25348070294E+03  0.00000000000E+00 0. -1.
         -5    1    5    5    0  502 -0.67250088102E+02  0.17247053508E+02  0.32820230621E+02  0.76936940038E+02  0.47000000000E+01 0.  1.
         11    1    6    6    0    0  0.27980635048E+00  0.36595422644E+02  0.11747811609E+03  0.12304637747E+03  0.00000000000E+00 0. -1.
        -12    1    6    6    0    0  0.40209091112E+02 -0.20541697470E+02  0.45469438965E+02  0.64079655296E+02  0.00000000000E+00 0.  1.
</event>
<event>
12    1  0.8358445E-002  0.1992855E+03  0.7818608E-02  0.1150814E+00
         21   -1    0    0  501  502  0.00000000000E+00  0.00000000000E+00  0.10002114142E+03  0.10002114142E+03  0.00000000000E+00 0. -1.
         21   -1    0    0  502  503 -0.00000000000E+00 -0.00000000000E+00 -0.13928901887E+04  0.13928901887E+04  0.00000000000E+00 0. -1.
         -6    2    1    2    0  503  0.64599360071E+02 -0.74060957470E+02 -0.12799920292E+04  0.12954127861E+04  0.17336836168E+03 0.  0.
        -24    2    3    3    0    0  0.98186480688E+02 -0.79472607307E+02 -0.11828250940E+04  0.11923551133E+04  0.81725350604E+02 0.  0.
          6    2    1    2  501    0 -0.64599360071E+02  0.74060957470E+02 -0.12877018098E+02  0.19749854403E+03  0.17082667988E+03 0.  0.
         24    2    5    5    0    0 -0.59829797265E+02  0.11127111059E+03 -0.34811804729E+02  0.15378848696E+03  0.80487093877E+02 0.  0.
          5    1    5    5  501    0 -0.47695628051E+01 -0.37210153121E+02  0.21934786631E+02  0.43710057072E+02  0.47000000000E+01 0. -1.
        -13    1    6    6    0    0 -0.17708192261E+02  0.10584465098E+03 -0.25787644319E+02  0.11037061572E+03  0.00000000000E+00 0.  1.
         14    1    6    6    0    0 -0.42121605005E+02  0.54264596068E+01 -0.90241604108E+01  0.43417871242E+02  0.00000000000E+00 0. -1.
         -5    1    3    3    0  503 -0.33587120617E+02  0.54116498377E+01 -0.97166935220E+02  0.10305767281E+03  0.47000000000E+01 0.  1.
         13    1    4    4    0    0  0.72281282124E+02 -0.55664056573E+02 -0.47654204583E+03  0.48519624111E+03  0.00000000000E+00 0. -1.
        -14    1    4    4    0    0  0.25905198563E+02 -0.23808550734E+02 -0.70628304812E+03  0.70715887215E+03  0.00000000000E+00 0.  1.
</event>
<event>
12    1  0.8358445E-002  0.2271448E+03  0.7818608E-02  0.1128794E+00
         21   -1    0    0  503  502  0.00000000000E+00  0.00000000000E+00  0.10300627338E+03  0.10300627338E+03  0.00000000000E+00 0. -1.
         21   -1    0    0  501  503 -0.00000000000E+00 -0.00000000000E+00 -0.52433816957E+03  0.52433816957E+03  0.00000000000E+00 0.  1.
          6    2    1    2  501    0 -0.20679083853E+02  0.14766378627E+03 -0.27951341271E+03  0.36017008230E+03  0.17135495911E+03 0.  0.
         24    2    3    3    0    0 -0.43772940554E+02  0.32368197248E+02 -0.20424918058E+03  0.22048044881E+03  0.62690749089E+02 0.  0.
         -6    2    1    2    0  502  0.20679083853E+02 -0.14766378627E+03 -0.14181848348E+03  0.26717436065E+03  0.17040375128E+03 0.  0.
        -24    2    5    5    0    0  0.20525313430E+02 -0.63314860155E+02 -0.28648883186E+01  0.10455530707E+03  0.80582533113E+02 0.  0.
          5    1    3    3  501    0  0.23093856702E+02  0.11529558902E+03 -0.75264232132E+02  0.13968963349E+03  0.47000000000E+01 0. -1.
        -11    1    4    4    0    0  0.10842619850E+02 -0.54223995835E+00 -0.80893522517E+02  0.81618738134E+02  0.00000000000E+00 0.  1.
         12    1    4    4    0    0 -0.54615560404E+02  0.32910437206E+02 -0.12335565807E+03  0.13886171068E+03  0.00000000000E+00 0. -1.
         -5    1    5    5    0  502  0.15377042298E+00 -0.84348926116E+02 -0.13895359516E+03  0.16261905359E+03  0.47000000000E+01 0.  1.
         11    1    6    6    0    0 -0.26892105907E+02 -0.67366331307E+01  0.10290871415E+02  0.29571432508E+02  0.00000000000E+00 0. -1.
        -12    1    6    6    0    0  0.47417419337E+02 -0.56578227024E+02 -0.13155759734E+02  0.74983874559E+02  0.00000000000E+00 0.  1.
</event>
<event>
12    1  0.8358445E-002  0.2058288E+03  0.7818608E-02  0.1144975E+00
         21   -1    0    0  503  502  0.00000000000E+00  0.00000000000E+00  0.13993822255E+04  0.13993822255E+04  0.00000000000E+00 0. -1.
         21   -1    0    0  501  503 -0.00000000000E+00 -0.00000000000E+00 -0.40879489825E+02  0.40879489825E+02  0.00000000000E+00 0. -1.
          6    2    1    2  501    0 -0.16050729851E+02 -0.11010741825E+03  0.31130178164E+03  0.37302446611E+03  0.17279231344E+03 0.  0.
         24    2    3    3    0    0  0.48104570235E+02 -0.81075848940E+02  0.13478469958E+03  0.18292158658E+03  0.80037795063E+02 0.  0.
         -6    2    1    2    0  502  0.16050729851E+02  0.11010741825E+03  0.10472009540E+04  0.10672372492E+04  0.17315957522E+03 0.  0.
        -24    2    5    5    0    0  0.26798671955E+02  0.14508644556E+03  0.82111834599E+03  0.83816414675E+03  0.80718977154E+02 0.  0.
          5    1    3    3  501    0 -0.64155300086E+02 -0.29031569313E+02  0.17651708206E+03  0.19010287953E+03  0.47000000000E+01 0. -1.
        -11    1    4    4    0    0  0.27998864520E+02 -0.39112420083E+01  0.23953062437E+01  0.28372023552E+02  0.00000000000E+00 0.  1.
         12    1    4    4    0    0  0.20105705715E+02 -0.77164606932E+02  0.13238939334E+03  0.15454956303E+03  0.00000000000E+00 0. -1.
         -5    1    5    5    0  502 -0.10747942104E+02 -0.34979027310E+02  0.22608260801E+03  0.22907310242E+03  0.47000000000E+01 0.  1.
         11    1    6    6    0    0  0.47653087656E+02  0.55906952793E+02  0.44717226893E+03  0.45316602061E+03  0.00000000000E+00 0. -1.
        -12    1    6    6    0    0 -0.20854415701E+02  0.89179492770E+02  0.37394607706E+03  0.38499812614E+03  0.00000000000E+00 0.  1.
</event>
<event>
12    1  0.8358445E-002  0.2136677E+03  0.7818608E-02  0.1139887E+00
         21   -1    0    0  501  502  0.00000000000E+00  0.00000000000E+00  0.20467170978E+03  0.20467170978E+03  0.00000000000E+00 0.  1.
         21   -1    0    0  502  503 -0.00000000000E+00 -0.00000000000E+00 -0.22681908045E+03  0.22681908045E+03  0.00000000000E+00 0. -1.
         -6    2    1    2    0  503 -0.99938012591E+02  0.59376279157E+02 -0.56632095075E+02  0.22104538953E+03  0.17927833431E+03 0.  0.
        -24    2    3    3    0    0 -0.93032302208E+02  0.89950802921E+02 -0.89166022790E+02  0.17562472472E+03  0.78404770985E+02 0.  0.
          6    2    1    2  501    0  0.99938012591E+02 -0.59376279157E+02  0.34484724402E+02  0.21044540070E+03  0.17200267897E+03 0.  0.
         24    2    5    5    0    0  0.49991190772E+02  0.51125399025E+01  0.74331556853E+02  0.11954241478E+03  0.78993362805E+02 0.  0.
          5    1    5    5  501    0  0.49946821819E+02 -0.64488819059E+02 -0.39846832451E+02  0.90902985924E+02  0.47000000000E+01 0. -1.
        -11    1    6    6    0    0  0.20026639100E+02 -0.34494175129E+02  0.16112515362E+02  0.43017758458E+02  0.00000000000E+00 0.  1.
         12    1    6    6    0    0  0.29964551673E+02  0.39606715031E+02  0.58219041491E+02  0.76524656319E+02  0.00000000000E+00 0. -1.
         -5    1    3    3    0  503 -0.69057103826E+01 -0.30574523764E+02  0.32533927715E+02  0.45420664811E+02  0.47000000000E+01 0.  1.
         11    1    4    4    0    0 -0.21402950784E+02 -0.13618352402E+02 -0.15773257423E+02  0.29872085199E+02  0.00000000000E+00 0. -1.
        -12    1    4    4    0    0 -0.71629351424E+02  0.10356915532E+03 -0.73392765367E+02  0.14575263952E+03  0.00000000000E+00 0.  1.
</event>
<event>
12    1  0.8358445E-002  0.1738955E+03  0.7818608E-02  0.1177224E+00
         21   -1    0    0  503  502  0.00000000000E+00  0.00000000000E+00  0.82634431875E+02  0.82634431875E+02  0.00000000000E+00 0. -1.
         21   -1    0    0  501  503 -0.00000000000E+00 -0.00000000000E+00 -0.43345281364E+03  0.43345281364E+03  0.00000000000E+00 0. -1.
          6    2    1    2  501    0 -0.12031765774E+02 -0.19724758417E+02 -0.29023817780E+03  0.33194160499E+03  0.15941518056E+03 0.  0.
         24    2    3    3    0    0 -0.24576155615E+02  0.68809953855E+01 -0.66918770996E+02  0.10664430074E+03  0.79016134086E+02 0.  0.
         -6    2    1    2    0  502  0.12031765774E+02  0.19724758417E+02 -0.60580203967E+02  0.18414564052E+03  0.17235378246E+03 0.  0.
        -24    2    5    5    0    0  0.90006483554E+01  0.12718392138E+02 -0.10912783066E+03  0.13477724072E+03  0.77545161169E+02 0.  0.
          5    1    3    3  501    0  0.12544389841E+02 -0.26605753802E+02 -0.22331940680E+03  0.22529730426E+03  0.47000000000E+01 0. -1.
        -11    1    4    4    0    0  0.13447134541E+02  0.32977017726E+02 -0.19952132541E+02  0.40821522734E+02  0.00000000000E+00 0.  1.
         12    1    4    4    0    0 -0.38023290156E+02 -0.26096022340E+02 -0.46966638456E+02  0.65822778004E+02  0.00000000000E+00 0. -1.
         -5    1    5    5    0  502  0.30311174186E+01  0.70063662790E+01  0.48547626695E+02  0.49368399802E+02  0.47000000000E+01 0.  1.
         11    1    6    6    0    0  0.78650404447E+01  0.33900068686E+02 -0.10807418398E+03  0.11353899225E+03  0.00000000000E+00 0. -1.
        -12    1    6    6    0    0  0.11356079107E+01 -0.21181676549E+02 -0.10536466860E+01  0.21238248470E+02  0.00000000000E+00 0.  1.
</event>
<event>
12    1  0.8358445E-002  0.2492066E+03  0.7818608E-02  0.1114921E+00
         21   -1    0    0  501  502  0.00000000000E+00  0.00000000000E+00  0.51058283893E+02  0.51058283893E+02  0.00000000000E+00 0. -1.
         21   -1    0    0  502  503 -0.00000000000E+00 -0.00000000000E+00 -0.12161928228E+04  0.12161928228E+04  0.00000000000E+00 0.  1.
         -6    2    1    2    0  503 -0.16498998588E+03  0.45115543561E+02 -0.67956337717E+03  0.72146423723E+03  0.17160173166E+03 0.  0.
        -24    2    3    3    0    0 -0.18554767536E+03  0.60768879025E+02 -0.54224683516E+03  0.58165877162E+03  0.78577985894E+02 0.  0.
          6    2    1    2  501    0  0.16498998588E+03 -0.45115543561E+02 -0.48557116177E+03  0.54578686948E+03  0.18123698864E+03 0.  0.
         24    2    5    5    0    0  0.10634638606E+03  0.11749391099E+02 -0.42019775590E+03  0.44105643079E+03  0.80728056230E+02 0.  0.
          5    1    5    5  501    0  0.58643599818E+02 -0.56864934660E+02 -0.65373405867E+02  0.10473043869E+03  0.47000000000E+01 0. -1.
        -11    1    6    6    0    0  0.77881464118E+01  0.21766953911E+02 -0.17626671844E+03  0.17777629633E+03  0.00000000000E+00 0.  1.
         12    1    6    6    0    0  0.98558239652E+02 -0.10017562812E+02 -0.24393103746E+03  0.26328013446E+03  0.00000000000E+00 0. -1.
         -5    1    3    3    0  503  0.20557689479E+02 -0.15653335465E+02 -0.13731654201E+03  0.13980546562E+03  0.47000000000E+01 0.  1.
         13    1    4    4    0    0 -0.12882704452E+03  0.77361531528E+02 -0.41468062704E+03  0.44106828996E+03  0.00000000000E+00 0. -1.
        -14    1    4    4    0    0 -0.56720630839E+02 -0.16592652503E+02 -0.12756620812E+03  0.14059048166E+03  0.00000000000E+00 0.  1.
</event>
<event>
12    1  0.8358445E-002  0.1909544E+03  0.7818608E-02  0.1157971E+00
         21   -1    0    0  501  502  0.00000000000E+00  0.00000000000E+00  0.29076982227E+03  0.29076982227E+03  0.00000000000E+00 0. -1.
         21   -1    0    0  502  503 -0.00000000000E+00 -0.00000000000E+00 -0.12531961215E+03  0.12531961215E+03  0.00000000000E+00 0. -1.
         -6    2    1    2    0  503 -0.58285992746E+02 -0.57623733149E+02  0.10154419113E+03  0.21627483877E+03  0.17246979898E+03 0.  0.
        -24    2    3    3    0    0 -0.20939278918E+02 -0.10035985619E+03  0.41651871374E+02  0.13362900879E+03  0.74908473918E+02 0.  0.
          6    2    1    2  501    0  0.58285992746E+02  0.57623733149E+02  0.63906018985E+02  0.19981459565E+03  0.17065796730E+03 0.  0.
         24    2    5    5    0    0  0.50019823627E+02 -0.25879849563E+02  0.30920048696E+01  0.96076405047E+02  0.77777668668E+02 0.  0.
          5    1    5    5  501    0  0.82661691187E+01  0.83503582712E+02  0.60814014115E+02  0.10373819061E+03  0.47000000000E+01 0. -1.
        -11    1    6    6    0    0 -0.15918143271E+02 -0.25372670665E+02 -0.13854440777E+01  0.29984648692E+02  0.00000000000E+00 0.  1.
         12    1    6    6    0    0  0.65937966898E+02 -0.50717889800E+00  0.44774489474E+01  0.66091756355E+02  0.00000000000E+00 0. -1.
         -5    1    3    3    0  503 -0.37346713828E+02  0.42736123044E+02  0.59892319756E+02  0.82645829976E+02  0.47000000000E+01 0.  1.
         13    1    4    4    0    0 -0.26163327407E+02 -0.22441208013E+02  0.43515379065E+02  0.55513203234E+02  0.00000000000E+00 0. -1.
        -14    1    4    4    0    0  0.52240484895E+01 -0.77918648180E+02 -0.18635076912E+01  0.78115805557E+02  0.00000000000E+00 0.  1.
</event>
<event>
12    1  0.8358445E-002  0.2672828E+03  0.7818608E-02  0.1104152E+00
         21   -1    0    0  501  502  0.00000000000E+00  0.00000000000E+00  0.72965369926E+02  0.72965369926E+02  0.00000000000E+00 0. -1.
         21   -1    0    0  502  503 -0.00000000000E+00 -0.00000000000E+00 -0.12093445004E+04  0.12093445004E+04  0.00000000000E+00 0.  1.
         -6    2    1    2    0  503  0.18398285462E+03 -0.56070559066E+02 -0.85932704608E+03  0.89734498928E+03  0.17260202565E+03 0.  0.
        -24    2    3    3    0    0  0.35563187535E+02 -0.46365794520E+02 -0.46739520742E+03  0.47811326792E+03  0.81972494371E+02 0.  0.
          6    2    1    2  501    0 -0.18398285462E+03  0.56070559066E+02 -0.27705208442E+03  0.38496488108E+03  0.18559769340E+03 0.  0.
         24    2    5    5    0    0 -0.14006538726E+02 -0.65911809777E+01 -0.12240730468E+03  0.14673066958E+03  0.79414824574E+02 0.  0.
          5    1    5    5  501    0 -0.16997631589E+03  0.62661740043E+02 -0.15464477975E+03  0.23823421151E+03  0.47000000000E+01 0. -1.
        -11    1    6    6    0    0 -0.33436764419E+02 -0.15536353386E+02 -0.19667272779E+02  0.41787523376E+02  0.00000000000E+00 0.  1.
         12    1    6    6    0    0  0.19430225692E+02  0.89451724084E+01 -0.10274003190E+03  0.10494314620E+03  0.00000000000E+00 0. -1.
         -5    1    3    3    0  503  0.14841966708E+03 -0.97047645457E+01 -0.39193183866E+03  0.41923172135E+03  0.47000000000E+01 0.  1.
         13    1    4    4    0    0  0.58964867938E+02 -0.27026708141E+02 -0.23660508425E+03  0.24533500463E+03  0.00000000000E+00 0. -1.
        -14    1    4    4    0    0 -0.23401680403E+02 -0.19339086379E+02 -0.23079012318E+03  0.23277826330E+03  0.00000000000E+00 0.  1.
</event>
<event>
12    1  0.8358445E-002  0.2126218E+03  0.7818608E-02  0.1139548E+00
         21   -1    0    0  501  502  0.00000000000E+00  0.00000000000E+00  0.56282658849E+02  0.56282658849E+02  0.00000000000E+00 0.  1.
         21   -1    0    0  502  503 -0.00000000000E+00 -0.00000000000E+00 -0.87323974092E+03  0.87323974092E+03  0.00000000000E+00 0.  1.
         -6    2    1    2    0  503 -0.12340740858E+03 -0.11395094816E+02 -0.54064155422E+03  0.58087026555E+03  0.17250431467E+03 0.  0.
        -24    2    3    3    0    0 -0.50410959193E+02 -0.55529856725E+02 -0.41042623655E+03  0.42513177388E+03  0.81624136886E+02 0.  0.
          6    2    1    2  501    0  0.12340740858E+03  0.11395094816E+02 -0.27631552786E+03  0.34865213422E+03  0.17276806152E+03 0.  0.
         24    2    5    5    0    0  0.13977673611E+03  0.41697289895E+01 -0.28462199453E+03  0.32837287921E+03  0.85229956203E+02 0.  0.
          5    1    5    5  501    0 -0.16369327525E+02  0.72253658264E+01  0.83064666759E+01  0.20279255005E+02  0.47000000000E+01 0. -1.
        -11    1    6    6    0    0  0.30600307995E+02 -0.17490264561E+02 -0.18269763629E+02  0.39699779179E+02  0.00000000000E+00 0.  1.
         12    1    6    6    0    0  0.10917642811E+03  0.21659993551E+02 -0.26635223091E+03  0.28867310004E+03  0.00000000000E+00 0. -1.
         -5    1    3    3    0  503 -0.72996449390E+02  0.44134761909E+02 -0.13021531767E+03  0.15573849167E+03  0.47000000000E+01 0.  1.
         13    1    4    4    0    0 -0.44912634305E+02 -0.59214280190E+02 -0.18172856384E+03  0.19633834729E+03  0.00000000000E+00 0. -1.
        -14    1    4    4    0    0 -0.54983248880E+01  0.36844234647E+01 -0.22869767270E+03  0.22879342659E+03  0.00000000000E+00 0.  1.
</event>
<event>
12    1  0.8358445E-002  0.1897662E+03  0.7818608E-02  0.1159361E+00
         21   -1    0    0  501  502  0.00000000000E+00  0.00000000000E+00  0.99591690689E+03  0.99591690689E+03  0.00000000000E+00 0. -1.
         21   -1    0    0  502  503 -0.00000000000E+00 -0.00000000000E+00 -0.71253063565E+02  0.71253063565E+02  0.00000000000E+00 0. -1.
         -6    2    1    2    0  503  0.71949932302E+02  0.29851733332E+02  0.86671300065E+02  0.20862195562E+03  0.17304128805E+03 0.  0.
        -24    2    3    3    0    0  0.11560937217E+03  0.22928664879E+02  0.76130557664E+02  0.16293527466E+03  0.82829893825E+02 0.  0.
          6    2    1    2  501    0 -0.71949932302E+02 -0.29851733332E+02  0.83799254326E+03  0.85854801484E+03  0.16972116097E+03 0.  0.
         24    2    5    5    0    0 -0.10650150731E+03  0.80348153972E+01  0.65397643137E+03  0.66746368438E+03  0.80096615813E+02 0.  0.
          5    1    5    5  501    0  0.34551575007E+02 -0.37886548730E+02  0.18401611190E+03  0.19108433046E+03  0.47000000000E+01 0. -1.
        -11    1    6    6    0    0 -0.25821405385E+02 -0.10235777604E+02  0.44912126411E+02  0.52807340569E+02  0.00000000000E+00 0.  1.
         12    1    6    6    0    0 -0.80680101923E+02  0.18270593001E+02  0.60906430496E+03  0.61465634381E+03  0.00000000000E+00 0. -1.
         -5    1    3    3    0  503 -0.43659439871E+02  0.69230684534E+01  0.10540742401E+02  0.45686680959E+02  0.47000000000E+01 0.  1.
         11    1    4    4    0    0  0.95594583649E+02 -0.18887814572E+02  0.47023155705E+02  0.10819543029E+03  0.00000000000E+00 0. -1.
        -12    1    4    4    0    0  0.20014788524E+02  0.41816479451E+02  0.29107401959E+02  0.54739844374E+02  0.00000000000E+00 0.  1.
</event>
<event>
12    1  0.8358445E-002  0.3119177E+03  0.7818608E-02  0.1079638E+00
         21   -1    0    0  501  502  0.00000000000E+00  0.00000000000E+00  0.45161669712E+03  0.45161669712E+03  0.00000000000E+00 0. -1.
         21   -1    0    0  502  503 -0.00000000000E+00 -0.00000000000E+00 -0.24972950002E+03  0.24972950002E+03  0.00000000000E+00 0.  1.
         -6    2    1    2    0  503 -0.23705906022E+03  0.10731269756E+03  0.23339593989E+03  0.38957195481E+03  0.17198729641E+03 0.  0.
        -24    2    3    3    0    0 -0.19851354502E+03  0.12448123868E+03  0.24237688187E+03  0.34617537815E+03  0.78661510500E+02 0.  0.
          6    2    1    2  501    0  0.23705906022E+03 -0.10731269756E+03 -0.31508742792E+02  0.31177424232E+03  0.16881162346E+03 0.  0.
         24    2    5    5    0    0  0.19535337713E+03 -0.53763439384E+02 -0.75622575422E+02  0.23068782372E+03  0.80278569541E+02 0.  0.
          5    1    5    5  501    0  0.41705683093E+02 -0.53549258172E+02  0.44113832631E+02  0.81086418606E+02  0.47000000000E+01 0. -1.
        -13    1    6    6    0    0  0.15210685563E+03 -0.19410425424E+02 -0.24225571423E+02  0.15524219289E+03  0.00000000000E+00 0.  1.
         14    1    6    6    0    0  0.43246521504E+02 -0.34353013961E+02 -0.51397003999E+02  0.75445630824E+02  0.00000000000E+00 0. -1.
         -5    1    3    3    0  503 -0.38545515202E+02 -0.17168541127E+02 -0.89809419773E+01  0.43396576655E+02  0.47000000000E+01 0.  1.
         13    1    4    4    0    0 -0.60357883533E+02  0.73855808539E+02  0.63632216229E+02  0.11465955478E+03  0.00000000000E+00 0. -1.
        -14    1    4    4    0    0 -0.13815566149E+03  0.50625430143E+02  0.17874466564E+03  0.23151582338E+03  0.00000000000E+00 0.  1.
</event>
<event>
12    1  0.8358445E-002  0.2726259E+03  0.7818608E-02  0.1099864E+00
         21   -1    0    0  503  502  0.00000000000E+00  0.00000000000E+00  0.21102852787E+03  0.21102852787E+03  0.00000000000E+00 0. -1.
         21   -1    0    0  501  503 -0.00000000000E+00 -0.00000000000E+00 -0.35154466704E+03  0.35154466704E+03  0.00000000000E+00 0.  1.
          6    2    1    2  501    0  0.83473134423E+02 -0.19372462792E+03 -0.66789765034E+02  0.28015422668E+03  0.17183865216E+03 0.  0.
         24    2    3    3    0    0  0.66166113727E+02 -0.20025419909E+03 -0.93845288644E+02  0.24704441510E+03  0.88001738461E+02 0.  0.
         -6    2    1    2    0  502 -0.83473134423E+02  0.19372462792E+03 -0.73726374130E+02  0.28241896824E+03  0.17270755555E+03 0.  0.
        -24    2    5    5    0    0 -0.24243263144E+02  0.18270039276E+03 -0.89910199009E+02  0.21985925596E+03  0.79291104295E+02 0.  0.
          5    1    3    3  501    0  0.17307020697E+02  0.65295711649E+01  0.27055523610E+02  0.33109811579E+02  0.47000000000E+01 0. -1.
        -11    1    4    4    0    0  0.86087405873E+02 -0.13343936258E+03 -0.64435556262E+02  0.17137399408E+03  0.00000000000E+00 0.  1.
         12    1    4    4    0    0 -0.19921292146E+02 -0.66814836512E+02 -0.29409732381E+02  0.75670421022E+02  0.00000000000E+00 0. -1.
         -5    1    5    5    0  502 -0.59229871279E+02  0.11024235158E+02  0.16183824880E+02  0.62559712278E+02  0.47000000000E+01 0.  1.
         13    1    6    6    0    0 -0.27901860518E+02  0.17533692354E+03 -0.57802547655E+02  0.18671551916E+03  0.00000000000E+00 0. -1.
        -14    1    6    6    0    0  0.36585973733E+01  0.73634692199E+01 -0.32107651354E+02  0.33143736801E+02  0.00000000000E+00 0.  1.
</event>
<event>
12    1  0.8358445E-002  0.1983499E+03  0.7818608E-02  0.1151401E+00
         21   -1    0    0  503  502  0.00000000000E+00  0.00000000000E+00  0.87172209539E+02  0.87172209539E+02  0.00000000000E+00 0.  1.
         21   -1    0    0  501  503 -0.00000000000E+00 -0.00000000000E+00 -0.70854521785E+03  0.70854521785E+03  0.00000000000E+00 0. -1.
          6    2    1    2  501    0 -0.69834655042E+02  0.65476112766E+02 -0.55108890461E+03  0.58528329970E+03  0.17231819328E+03 0.  0.
         24    2    3    3    0    0 -0.28652379022E+01 -0.21814741932E+02 -0.17511303885E+03  0.19351227246E+03  0.79362022815E+02 0.  0.
         -6    2    1    2    0  502  0.69834655042E+02 -0.65476112766E+02 -0.70284103699E+02  0.21043412769E+03  0.17372008081E+03 0.  0.
        -24    2    5    5    0    0  0.14015722526E+02 -0.10338609838E+03 -0.31611320020E+02  0.13252010819E+03  0.75347048421E+02 0.  0.
          5    1    3    3  501    0 -0.66969417139E+02  0.87290854698E+02 -0.37597586577E+03  0.39177102724E+03  0.47000000000E+01 0. -1.
        -11    1    4    4    0    0  0.23456570244E+01 -0.34804643516E+02 -0.25411687236E+02  0.43158071845E+02  0.00000000000E+00 0.  1.
         12    1    4    4    0    0 -0.52108949267E+01  0.12989901584E+02 -0.14970135161E+03  0.15035420062E+03  0.00000000000E+00 0. -1.
         -5    1    5    5    0  502  0.55818932516E+02  0.37909985615E+02 -0.38672783679E+02  0.77914019496E+02  0.47000000000E+01 0.  1.
         13    1    6    6    0    0  0.11131344223E+01 -0.59009142419E+02 -0.55044102000E+02  0.80704219978E+02  0.00000000000E+00 0. -1.
        -14    1    6    6    0    0  0.12902588103E+02 -0.44376955962E+02  0.23432781980E+02  0.51815888215E+02  0.00000000000E+00 0.  1.
</event>
<event>
12    1  0.8358445E-002  0.2051959E+03  0.7818608E-02  0.1145443E+00
         21   -1    0    0  501  502  0.00000000000E+00  0.00000000000E+00  0.48403117710E+03  0.48403117710E+03  0.00000000000E+00 0.  1.
         21   -1    0    0  502  503 -0.00000000000E+00 -0.00000000000E+00 -0.35510591463E+03  0.35510591463E+03  0.00000000000E+00 0. -1.
         -6    2    1    2    0  503 -0.39257901071E+02 -0.10499738573E+03 -0.30013572246E+03  0.36353357748E+03  0.17178351566E+03 0.  0.
        -24    2    3    3    0    0  0.56013333933E+01 -0.13964669928E+02 -0.21915938463E+03  0.23361605152E+03  0.79493626889E+02 0.  0.
          6    2    1    2  501    0  0.39257901071E+02  0.10499738573E+03  0.42906098492E+03  0.47560351425E+03  0.17187128957E+03 0.  0.
         24    2    5    5    0    0  0.26013464183E+02  0.30888809120E+02  0.85331497114E+02  0.12369507868E+03  0.79926148680E+02 0.  0.
          5    1    5    5  501    0  0.13244436889E+02  0.74108576607E+02  0.34372948781E+03  0.35190843557E+03  0.47000000000E+01 0. -1.
        -13    1    6    6    0    0  0.37814962187E+02  0.11103415313E+02  0.91685436740E+02  0.99797176849E+02  0.00000000000E+00 0.  1.
         14    1    6    6    0    0 -0.11801498004E+02  0.19785393807E+02 -0.63539396262E+01  0.23897901833E+02  0.00000000000E+00 0. -1.
         -5    1    3    3    0  503 -0.44859234465E+02 -0.91032715799E+02 -0.80976337831E+02  0.12991752596E+03  0.47000000000E+01 0.  1.
         13    1    4    4    0    0 -0.28177885912E+02 -0.28326957845E+01 -0.17321103302E+03  0.17551090957E+03  0.00000000000E+00 0. -1.
        -14    1    4    4    0    0  0.33779219305E+02 -0.11131974143E+02 -0.45948351610E+02  0.58105141949E+02  0.00000000000E+00 0.  1.
</event>
<event>
12    1  0.8358445E-002  0.1782745E+03  0.7818608E-02  0.1170197E+00
         21   -1    0    0  503  502  0.00000000000E+00  0.00000000000E+00  0.73414828642E+02  0.73414828642E+02  0.00000000000E+00 0.  1.
         21   -1    0    0  501  503 -0.00000000000E+00 -0.00000000000E+00 -0.50149916260E+03  0.50149916260E+03  0.00000000000E+00 0.  1.
          6    2    1    2  501    0 -0.30451439188E+02 -0.19204799510E+02 -0.32711318676E+03  0.37253835505E+03  0.17460147351E+03 0.  0.
         24    2    3    3    0    0 -0.44518850901E+02  0.47410209067E+01 -0.72655176005E+02  0.11652612169E+03  0.79342025883E+02 0.  0.
         -6    2    1    2    0  502  0.30451439188E+02  0.19204799510E+02 -0.10097114719E+03  0.20237563619E+03  0.17165258835E+03 0.  0.
        -24    2    5    5    0    0  0.35075298218E+02  0.87962383348E+01 -0.13783673455E+03  0.16350559954E+03  0.80171474568E+02 0.  0.
          5    1    3    3  501    0  0.14067411712E+02 -0.23945820416E+02 -0.25445801076E+03  0.25601223336E+03  0.47000000000E+01 0. -1.
        -11    1    4    4    0    0 -0.25832283393E+02  0.26969917688E+02 -0.78475740567E+02  0.86908717531E+02  0.00000000000E+00 0.  1.
         12    1    4    4    0    0 -0.18686567507E+02 -0.22228896781E+02  0.58205645620E+01  0.29617404159E+02  0.00000000000E+00 0. -1.
         -5    1    5    5    0  502 -0.46238590296E+01  0.10408561175E+02  0.36865587361E+02  0.38870036655E+02  0.47000000000E+01 0.  1.
         11    1    6    6    0    0 -0.16930356412E+02  0.17594068166E+02 -0.86583459410E+02  0.89960456014E+02  0.00000000000E+00 0. -1.
        -12    1    6    6    0    0  0.52005654629E+02 -0.87978298314E+01 -0.51253275142E+02  0.73545143524E+02  0.00000000000E+00 0.  1.
</event>
<event>
12    1  0.8358445E-002  0.2023658E+03  0.7818608E-02  0.1147785E+00
         21   -1    0    0  503  502  0.00000000000E+00  0.00000000000E+00  0.20729160276E+04  0.20729160276E+04  0.00000000000E+00 0. -1.
         21   -1    0    0  501  503 -0.00000000000E+00 -0.00000000000E+00 -0.20405566990E+02  0.20405566990E+02  0.00000000000E+00 0. -1.
          6    2    1    2  501    0  0.63728051220E+02  0.85491745105E+02  0.12145384214E+04  0.12312606625E+04  0.17184044648E+03 0.  0.
         24    2    3    3    0    0  0.85924278905E+02  0.84051431547E+02  0.11857012629E+04  0.11945398410E+04  0.81180797761E+02 0.  0.
         -6    2    1    2    0  502 -0.63728051220E+02 -0.85491745105E+02  0.83797203922E+03  0.86206093206E+03  0.17199363096E+03 0.  0.
        -24    2    5    5    0    0 -0.28788582699E+02 -0.75668126587E+02  0.80403818528E+03  0.81215235179E+03  0.80991303658E+02 0.  0.
          5    1    3    3  501    0 -0.22196227685E+02  0.14403135581E+01  0.28837158460E+02  0.36720821541E+02  0.47000000000E+01 0. -1.
        -11    1    4    4    0    0  0.43770758224E+02 -0.12710965804E+00  0.57053488966E+03  0.57221146070E+03  0.00000000000E+00 0.  1.
         12    1    4    4    0    0  0.42153520681E+02  0.84178541205E+02  0.61516637325E+03  0.62232838027E+03  0.00000000000E+00 0. -1.
         -5    1    5    5    0  502 -0.34939468521E+02 -0.98236185183E+01  0.33933853939E+02  0.49908580269E+02  0.47000000000E+01 0.  1.
         13    1    6    6    0    0 -0.37396028643E+02 -0.50460808406E+02  0.26060015031E+03  0.26806192286E+03  0.00000000000E+00 0. -1.
        -14    1    6    6    0    0  0.86074459442E+01 -0.25207318181E+02  0.54343803496E+03  0.54409042894E+03  0.00000000000E+00 0.  1.
</event>
<event>
12    1  0.8358445E-002  0.1735557E+03  0.7818608E-02  0.1174373E+00
         21   -1    0    0  501  502  0.00000000000E+00  0.00000000000E+00  0.11861600670E+04  0.11861600670E+04  0.00000000000E+00 0.  1.
         21   -1    0    0  502  503 -0.00000000000E+00 -0.00000000000E+00 -0.55377358017E+02  0.55377358017E+02  0.00000000000E+00 0.  1.
         -6    2    1    2    0  503  0.41963215063E+01 -0.98226554885E+00  0.10728056610E+03  0.20342460378E+03  0.17278274104E+03 0.  0.
        -24    2    3    3    0    0  0.12972080293E+02 -0.27591089458E+02  0.13758572658E+03  0.16188502983E+03  0.79670494161E+02 0.  0.
          6    2    1    2  501    0 -0.41963215063E+01  0.98226554885E+00  0.10235021429E+04  0.10381128213E+04  0.17350221661E+03 0.  0.
         24    2    5    5    0    0 -0.18022839051E+02 -0.43199751409E+02  0.32394085909E+03  0.33700562331E+03  0.80274956877E+02 0.  0.
          5    1    5    5  501    0  0.13826517545E+02  0.44182016958E+02  0.69956128382E+03  0.70110719796E+03  0.47000000000E+01 0. -1.
        -11    1    6    6    0    0  0.21237059572E+02 -0.27851210273E+02  0.24522347039E+03  0.24771203653E+03  0.00000000000E+00 0.  1.
         12    1    6    6    0    0 -0.39259898623E+02 -0.15348541136E+02  0.78717388704E+02  0.89293586776E+02  0.00000000000E+00 0. -1.
         -5    1    3    3    0  503 -0.87757587867E+01  0.26608823909E+02 -0.30305160481E+02  0.41539573949E+02  0.47000000000E+01 0.  1.
         13    1    4    4    0    0 -0.71132182984E+01  0.30221575550E+01  0.12174686378E+03  0.12199192658E+03  0.00000000000E+00 0. -1.
        -14    1    4    4    0    0  0.20085298591E+02 -0.30613247013E+02  0.15838862805E+02  0.39893103253E+02  0.00000000000E+00 0.  1.
</event>
<event>
12    1  0.8358445E-002  0.2809890E+03  0.7818608E-02  0.1095215E+00
         21   -1    0    0  501  502  0.00000000000E+00  0.00000000000E+00  0.24510249484E+03  0.24510249484E+03  0.00000000000E+00 0.  1.
         21   -1    0    0  502  503 -0.00000000000E+00 -0.00000000000E+00 -0.61681077169E+03  0.61681077169E+03  0.00000000000E+00 0.  1.
         -6    2    1    2    0  503 -0.21627778342E+03 -0.50429130283E+02 -0.48408572500E+03  0.55972655252E+03  0.17215007310E+03 0.  0.
        -24    2    3    3    0    0 -0.22132455609E+03 -0.59079091668E+02 -0.35420911164E+03  0.42937964445E+03  0.80174098667E+02 0.  0.
          6    2    1    2  501    0  0.21627778342E+03  0.50429130283E+02  0.11237744814E+03  0.30218671401E+03  0.17137369253E+03 0.  0.
         24    2    5    5    0    0  0.26345903831E+02  0.21006741929E+02  0.43750996194E+02  0.98050789373E+02  0.81021094620E+02 0.  0.
          5    1    5    5  501    0  0.18993187959E+03  0.29422388354E+02  0.68626451950E+02  0.20413592464E+03  0.47000000000E+01 0. -1.
        -13    1    6    6    0    0  0.41445527292E+02  0.35239679991E+02  0.52433828261E+02  0.75557085204E+02  0.00000000000E+00 0.  1.
         14    1    6    6    0    0 -0.15099623461E+02 -0.14232938062E+02 -0.86828320669E+01  0.22493704169E+02  0.00000000000E+00 0. -1.
         -5    1    3    3    0  503  0.50467726749E+01  0.86499613846E+01 -0.12987661336E+03  0.13034690808E+03  0.47000000000E+01 0.  1.
         13    1    4    4    0    0 -0.12198785142E+03  0.87165999224E+01 -0.18570801772E+03  0.22236115410E+03  0.00000000000E+00 0. -1.
        -14    1    4    4    0    0 -0.99336704672E+02 -0.67795691590E+02 -0.16850109392E+03  0.20701849034E+03  0.00000000000E+00 0.  1.
</event>
<event>
12    1  0.8358445E-002  0.2401119E+03  0.7818608E-02  0.1119858E+00
         21   -1    0    0  501  502  0.00000000000E+00  0.00000000000E+00  0.59423085696E+02  0.59423085696E+02  0.00000000000E+00 0. -1.
         21   -1    0    0  502  503 -0.00000000000E+00 -0.00000000000E+00 -0.12038634438E+04  0.12038634438E+04  0.00000000000E+00 0.  1.
         -6    2    1    2    0  503  0.16371501962E+03 -0.35125155627E+02 -0.85329878648E+03  0.88643811429E+03  0.17209685426E+03 0.  0.
        -24    2    3    3    0    0  0.13773506185E+03 -0.24464467098E+02 -0.83944945512E+03  0.85477579497E+03  0.79980088431E+02 0.  0.
          6    2    1    2  501    0 -0.16371501962E+03  0.35125155627E+02 -0.29114157158E+03  0.37684841517E+03  0.17092375231E+03 0.  0.
         24    2    5    5    0    0 -0.14285692169E+03  0.84383644168E+02 -0.23795796742E+03  0.30127034497E+03  0.81308837316E+02 0.  0.
          5    1    5    5  501    0 -0.20858097932E+02 -0.49258488540E+02 -0.53183604166E+02  0.75578070197E+02  0.47000000000E+01 0. -1.
        -11    1    6    6    0    0 -0.63610934618E+02  0.13849521998E+02 -0.14979278053E+03  0.16332800544E+03  0.00000000000E+00 0.  1.
         12    1    6    6    0    0 -0.79245987068E+02  0.70534122170E+02 -0.88165186890E+02  0.13794233953E+03  0.00000000000E+00 0. -1.
         -5    1    3    3    0  503  0.25979957770E+02 -0.10660688530E+02 -0.13849331361E+02  0.31662319321E+02  0.47000000000E+01 0.  1.
         13    1    4    4    0    0  0.54865813617E+01  0.72346868883E+01 -0.74781860589E+01  0.11762930593E+02  0.00000000000E+00 0. -1.
        -14    1    4    4    0    0  0.13224848049E+03 -0.31699153986E+02 -0.83197126906E+03  0.84301286437E+03  0.00000000000E+00 0.  1.
</event>
<event>
12    1  0.8358445E-002  0.1749028E+03  0.7818608E-02  0.1173064E+00
         21   -1    0    0  503  502  0.00000000000E+00  0.00000000000E+00  0.31820971680E+03  0.31820971680E+03  0.00000000000E+00 0. -1.
         21   -1    0    0  501  503 -0.00000000000E+00 -0.00000000000E+00 -0.15156226173E+03  0.15156226173E+03  0.00000000000E+00 0. -1.
          6    2    1    2  501    0  0.15334678559E+02  0.19289789864E+02 -0.59515838803E+02  0.18386847124E+03  0.17221565344E+03 0.  0.
         24    2    3    3    0    0  0.46548773751E+02  0.57498250364E+02 -0.75078085197E+02  0.13192157812E+03  0.79333137865E+02 0.  0.
         -6    2    1    2    0  502 -0.15334678559E+02 -0.19289789864E+02  0.22616329387E+03  0.28590350728E+03  0.17315811163E+03 0.  0.
        -24    2    5    5    0    0 -0.68280778329E+02  0.88376716377E+01  0.92810430432E+02  0.13961776034E+03  0.78351604169E+02 0.  0.
          5    1    3    3  501    0 -0.31214095192E+02 -0.38208460500E+02  0.15562246394E+02  0.51946893125E+02  0.47000000000E+01 0. -1.
        -11    1    4    4    0    0  0.32533853504E+02  0.70871191337E+02 -0.31262873759E+02  0.84015145427E+02  0.00000000000E+00 0.  1.
         12    1    4    4    0    0  0.14014920247E+02 -0.13372940973E+02 -0.43815211438E+02  0.47906432691E+02  0.00000000000E+00 0. -1.
         -5    1    5    5    0  502  0.52946099769E+02 -0.28127461501E+02  0.13335286344E+03  0.14628574694E+03  0.47000000000E+01 0.  1.
         13    1    6    6    0    0 -0.23151109034E+02  0.67022661950E+01  0.91283596869E+02  0.94411806884E+02  0.00000000000E+00 0. -1.
        -14    1    6    6    0    0 -0.45129669294E+02  0.21354054427E+01  0.15268335627E+01  0.45205953455E+02  0.00000000000E+00 0.  1.
</event>
<event>
12    1  0.8358445E-002  0.3660301E+03  0.7818608E-02  0.1056894E+00
         21   -1    0    0  501  502  0.00000000000E+00  0.00000000000E+00  0.14791564092E+03  0.14791564092E+03  0.00000000000E+00 0. -1.
         21   -1    0    0  502  503 -0.00000000000E+00 -0.00000000000E+00 -0.94420666251E+03  0.94420666251E+03  0.00000000000E+00 0.  1.
         -6    2    1    2    0  503 -0.27879054905E+03 -0.16479923017E+03 -0.26238271154E+03  0.44479229038E+03  0.15528212314E+03 0.  0.
        -24    2    3    3    0    0 -0.17116454209E+03 -0.10089217165E+03 -0.91888273842E+02  0.23323163055E+03  0.80479859912E+02 0.  0.
          6    2    1    2  501    0  0.27879054905E+03  0.16479923017E+03 -0.53390831006E+03  0.64733001305E+03  0.17057287515E+03 0.  0.
         24    2    5    5    0    0  0.28584102062E+03  0.12632820426E+03 -0.50287287577E+03  0.59718006624E+03  0.77967929698E+02 0.  0.
          5    1    5    5  501    0 -0.70504715657E+01  0.38471025910E+02 -0.31035434282E+02  0.50149946809E+02  0.47000000000E+01 0. -1.
        -13    1    6    6    0    0  0.23560567988E+03  0.10211694585E+03 -0.46007721935E+03  0.52688609280E+03  0.00000000000E+00 0.  1.
         14    1    6    6    0    0  0.50235340733E+02  0.24211258407E+02 -0.42795656422E+02  0.70293973432E+02  0.00000000000E+00 0. -1.
         -5    1    3    3    0  503 -0.10762600696E+03 -0.63907058520E+02 -0.17049443769E+03  0.21156065983E+03  0.47000000000E+01 0.  1.
         11    1    4    4    0    0 -0.14603459611E+03 -0.84001592019E+02 -0.10680949375E+03  0.19947591002E+03  0.00000000000E+00 0. -1.
        -12    1    4    4    0    0 -0.25129945984E+02 -0.16890579630E+02  0.14921219908E+02  0.33755720536E+02  0.00000000000E+00 0.  1.
</event>
<event>
12    1  0.8358445E-002  0.1787238E+03  0.7818608E-02  0.1172319E+00
         21   -1    0    0  501  502  0.00000000000E+00  0.00000000000E+00  0.30766476793E+02  0.30766476793E+02  0.00000000000E+00 0.  1.
         21   -1    0    0  502  503 -0.00000000000E+00 -0.00000000000E+00 -0.18210657339E+04  0.18210657339E+04  0.00000000000E+00 0.  1.
         -6    2    1    2    0  503  0.47645981138E+00  0.50430917227E+02 -0.15121255691E+04  0.15211922048E+04  0.15798253884E+03 0.  0.
        -24    2    3    3    0    0  0.42785770927E+02  0.29816420814E+02 -0.13126794482E+04  0.13162144488E+04  0.81077126573E+02 0.  0.
          6    2    1    2  501    0 -0.47645981138E+00 -0.50430917227E+02 -0.27817368799E+03  0.33064000595E+03  0.17146051562E+03 0.  0.
         24    2    5    5    0    0  0.65254931642E+02 -0.47386152478E+02 -0.18258863066E+03  0.21450009205E+03  0.78536793250E+02 0.  0.
          5    1    5    5  501    0 -0.65731391454E+02 -0.30447647495E+01 -0.95585057331E+02  0.11613991390E+03  0.47000000000E+01 0. -1.
        -11    1    6    6    0    0  0.12395385140E+02 -0.19326825081E+02 -0.64751990763E+00  0.22969349632E+02  0.00000000000E+00 0.  1.
         12    1    6    6    0    0  0.52859546503E+02 -0.28059327397E+02 -0.18194111075E+03  0.19153074242E+03  0.00000000000E+00 0. -1.
         -5    1    3    3    0  503 -0.42309311116E+02  0.20614496413E+02 -0.19944612093E+03  0.20497775592E+03  0.47000000000E+01 0.  1.
         13    1    4    4    0    0 -0.16985532229E+02 -0.14209777394E+02 -0.31299573896E+03  0.31377819983E+03  0.00000000000E+00 0. -1.
        -14    1    4    4    0    0  0.59771303156E+02  0.44026198209E+02 -0.99968370923E+03  0.10024362490E+04  0.00000000000E+00 0.  1.
</event>
<event>
12    1  0.8358445E-002  0.2056664E+03  0.7818608E-02  0.1145240E+00
         21   -1    0    0  503  502  0.00000000000E+00  0.00000000000E+00  0.92863319027E+03  0.92863319027E+03  0.00000000000E+00 0. -1.
         21   -1    0    0  501  503 -0.00000000000E+00 -0.00000000000E+00 -0.46263449609E+02  0.46263449609E+02  0.00000000000E+00 0.  1.
          6    2    1    2  501    0  0.91389351251E+02  0.68651432208E+02  0.37321507491E+03  0.42613160718E+03  0.17097842505E+03 0.  0.
         24    2    3    3    0    0 -0.11369712911E+02 -0.42677578166E+00  0.12889233625E+03  0.15218468766E+03  0.80109252312E+02 0.  0.
         -6    2    1    2    0  502 -0.91389351251E+02 -0.68651432208E+02  0.50915466575E+03  0.54876503269E+03  0.16982212692E+03 0.  0.
        -24    2    5    5    0    0 -0.17846518303E+02  0.14623057626E+02  0.31630131334E+03  0.32614945716E+03  0.76122372249E+02 0.  0.
          5    1    3    3  501    0  0.10275906416E+03  0.69078207990E+02  0.24432273866E+03  0.27394691952E+03  0.47000000000E+01 0. -1.
        -11    1    4    4    0    0 -0.34616544688E+00 -0.98829533742E+01 -0.90947950322E+01  0.13435322646E+02  0.00000000000E+00 0.  1.
         12    1    4    4    0    0 -0.11023547464E+02  0.94561775925E+01  0.13798713128E+03  0.13874936502E+03  0.00000000000E+00 0. -1.
         -5    1    5    5    0  502 -0.73542832948E+02 -0.83274489834E+02  0.19285335241E+03  0.22261557553E+03  0.47000000000E+01 0.  1.
         11    1    6    6    0    0  0.20877931369E+02  0.28040795927E+02  0.98355029344E+02  0.10438336099E+03  0.00000000000E+00 0. -1.
        -12    1    6    6    0    0 -0.38724449672E+02 -0.13417738301E+02  0.21794628400E+03  0.22176609617E+03  0.00000000000E+00 0.  1.
</event>
<event>
12    1  0.8358445E-002  0.1944557E+03  0.7818608E-02  0.1155038E+00
         21   -1    0    0  501  502  0.00000000000E+00  0.00000000000E+00  0.73299113774E+03  0.73299113774E+03  0.00000000000E+00 0.  1.
         21   -1    0    0  502  503 -0.00000000000E+00 -0.00000000000E+00 -0.96423143527E+02  0.96423143527E+02  0.00000000000E+00 0. -1.
         -6    2    1    2    0  503  0.78302141737E+02  0.36848312211E+02  0.32422785927E+02  0.19474549912E+03  0.17142213646E+03 0.  0.
        -24    2    3    3    0    0  0.65475318649E+02  0.47216827626E+02  0.82861291967E+02  0.14147105502E+03  0.81434756336E+02 0.  0.
          6    2    1    2  501    0 -0.78302141737E+02 -0.36848312211E+02  0.60414520829E+03  0.63466878214E+03  0.17413789600E+03 0.  0.
         24    2    5    5    0    0 -0.74122174808E+02  0.18678979299E+02  0.53198204499E+03  0.54339795240E+03  0.80208711566E+02 0.  0.
          5    1    5    5  501    0 -0.41799669284E+01 -0.55527291510E+02  0.72163163291E+02  0.91270829744E+02  0.47000000000E+01 0. -1.
        -13    1    6    6    0    0 -0.13167493296E+02 -0.29999078176E+02  0.16325413995E+03  0.16650898408E+03  0.00000000000E+00 0.  1.
         14    1    6    6    0    0 -0.60954681512E+02  0.48678057475E+02  0.36872790505E+03  0.37688896832E+03  0.00000000000E+00 0. -1.
         -5    1    3    3    0  503  0.12826823088E+02 -0.10368515415E+02 -0.50438506041E+02  0.53274444099E+02  0.47000000000E+01 0.  1.
         13    1    4    4    0    0 -0.19487442703E+01  0.30008549608E+02  0.61865726951E+02  0.68787199572E+02  0.00000000000E+00 0. -1.
        -14    1    4    4    0    0  0.67424062919E+02  0.17208278019E+02  0.20995565016E+02  0.72683855451E+02  0.00000000000E+00 0.  1.
</event>
<event>
12    1  0.8358445E-002  0.2092158E+03  0.7818608E-02  0.1142232E+00
         21   -1    0    0  501  502  0.00000000000E+00  0.00000000000E+00  0.23827375915E+03  0.23827375915E+03  0.00000000000E+00 0. -1.
         21   -1    0    0  502  503 -0.00000000000E+00 -0.00000000000E+00 -0.29490521837E+03  0.29490521837E+03  0.00000000000E+00 0.  1.
         -6    2    1    2    0  503  0.10078460163E+03  0.59806804475E+02 -0.19217041199E+03  0.28407874832E+03  0.17331150630E+03 0.  0.
        -24    2    3    3    0    0  0.82987550772E+02 -0.19162136705E+02 -0.15649867606E+03  0.19549324480E+03  0.80446579085E+02 0.  0.
          6    2    1    2  501    0 -0.10078460163E+03 -0.59806804475E+02  0.13553895278E+03  0.24910022919E+03  0.17304833625E+03 0.  0.
         24    2    5    5    0    0 -0.11380536586E+03 -0.42601195339E+02  0.15977378845E+03  0.21631318073E+03  0.80605245091E+02 0.  0.
          5    1    5    5  501    0  0.13020764237E+02 -0.17205609136E+02 -0.24234835674E+02  0.32787048467E+02  0.47000000000E+01 0. -1.
        -11    1    6    6    0    0 -0.32406838906E+02 -0.23300753185E+02  0.47992983442E+01  0.40201512054E+02  0.00000000000E+00 0.  1.
         12    1    6    6    0    0 -0.81398526957E+02 -0.19300442154E+02  0.15497449011E+03  0.17611166867E+03  0.00000000000E+00 0. -1.
         -5    1    3    3    0  503  0.17797050854E+02  0.78968941180E+02 -0.35671735930E+02  0.88585503523E+02  0.47000000000E+01 0.  1.
         13    1    4    4    0    0  0.70036401497E+02  0.14798116796E+02 -0.63665756341E+02  0.95798801275E+02  0.00000000000E+00 0. -1.
        -14    1    4    4    0    0  0.12951149275E+02 -0.33960253501E+02 -0.92832919723E+02  0.99694443524E+02  0.00000000000E+00 0.  1.
</event>
<event>
12    1  0.8358445E-002  0.3020123E+03  0.7818608E-02  0.1084390E+00
         21   -1    0    0  503  502  0.00000000000E+00  0.00000000000E+00  0.18404297817E+03  0.18404297817E+03  0.00000000000E+00 0.  1.
         21   -1    0    0  501  503 -0.00000000000E+00 -0.00000000000E+00 -0.11637374458E+04  0.11637374458E+04  0.00000000000E+00 0. -1.
          6    2    1    2  501    0  0.99019231141E+02 -0.22690923046E+03 -0.10008055192E+04  0.10450312277E+04  0.17083902518E+03 0.  0.
         24    2    3    3    0    0  0.26671121257E+02 -0.80294922221E+02 -0.24129647132E+03  0.26811032551E+03  0.80625903600E+02 0.  0.
         -6    2    1    2    0  502 -0.99019231141E+02  0.22690923046E+03  0.21111051629E+02  0.30274919625E+03  0.17297049553E+03 0.  0.
        -24    2    5    5    0    0 -0.30975088956E+02  0.24699539962E+02  0.97610243934E+01  0.89044546470E+02  0.79146258589E+02 0.  0.
          5    1    3    3  501    0  0.72348109884E+02 -0.14661430824E+03 -0.75950904792E+03  0.77692090219E+03  0.47000000000E+01 0. -1.
        -11    1    4    4    0    0  0.26977836905E+02 -0.88980146199E+02 -0.15054500451E+03  0.17694368732E+03  0.00000000000E+00 0.  1.
         12    1    4    4    0    0 -0.30671564713E+00  0.86852239776E+01 -0.90751466811E+02  0.91166638187E+02  0.00000000000E+00 0. -1.
         -5    1    5    5    0  502 -0.68044142185E+02  0.20220969050E+03  0.11350027235E+02  0.21370464978E+03  0.47000000000E+01 0.  1.
         13    1    6    6    0    0 -0.35547858231E+02 -0.14817629582E+02 -0.15942933752E+02  0.41682004605E+02  0.00000000000E+00 0. -1.
        -14    1    6    6    0    0  0.45727692747E+01  0.39517169544E+02  0.25703958146E+02  0.47362541866E+02  0.00000000000E+00 0.  1.
</event>
<event>
12    1  0.8358445E-002  0.2580653E+03  0.7818608E-02  0.1108321E+00
         21   -1    0    0  503  502  0.00000000000E+00  0.00000000000E+00  0.15987870287E+03  0.15987870287E+03  0.00000000000E+00 0.  1.
         21   -1    0    0  501  503 -0.00000000000E+00 -0.00000000000E+00 -0.77516003558E+03  0.77516003558E+03  0.00000000000E+00 0.  1.
          6    2    1    2  501    0 -0.76625513245E+02  0.17654545764E+03  0.10417654410E+02  0.25821014625E+03  0.17182602891E+03 0.  0.
         24    2    3    3    0    0 -0.31855332244E+02  0.12499105428E+03  0.70258464316E+02  0.16729679111E+03  0.80090190818E+02 0.  0.
         -6    2    1    2    0  502  0.76625513245E+02 -0.17654545764E+03 -0.62569898712E+03  0.67682859221E+03  0.17192426489E+03 0.  0.
        -24    2    5    5    0    0  0.81192536635E+02 -0.18125830797E+03 -0.42062803941E+03  0.47159883740E+03  0.77657669887E+02 0.  0.
          5    1    3    3  501    0 -0.44770181001E+02  0.51554403356E+02 -0.59840809907E+02  0.90913355138E+02  0.47000000000E+01 0. -1.
        -13    1    4    4    0    0 -0.23129220699E+02  0.54369276697E+02  0.75586184520E+02  0.95938784592E+02  0.00000000000E+00 0.  1.
         14    1    4    4    0    0 -0.87261115452E+01  0.70621777584E+02 -0.53277202034E+01  0.71358006519E+02  0.00000000000E+00 0. -1.
         -5    1    5    5    0  502 -0.45670233897E+01  0.47128503369E+01 -0.20507094771E+03  0.20522975480E+03  0.47000000000E+01 0.  1.
         13    1    6    6    0    0  0.50674223987E+02 -0.51931566569E+02 -0.21368084262E+03  0.22566405803E+03  0.00000000000E+00 0. -1.
        -14    1    6    6    0    0  0.30518312647E+02 -0.12932674140E+03 -0.20694719678E+03  0.24593477937E+03  0.00000000000E+00 0.  1.
</event>
<event>
12    1  0.8358445E-002  0.2006877E+03  0.7818608E-02  0.1149284E+00
         21   -1    0    0  501  502  0.00000000000E+00  0.00000000000E+00  0.70491635618E+03  0.70491635618E+03  0.00000000000E+00 0.  1.
         21   -1    0    0  502  503 -0.00000000000E+00 -0.00000000000E+00 -0.58011184375E+02  0.58011184375E+02  0.00000000000E+00 0.  1.
         -6    2    1    2    0  503  0.67026019560E+02 -0.78007067051E+02  0.37413742409E+03  0.42428643553E+03  0.17164666456E+03 0.  0.
        -24    2    3    3    0    0  0.46309834148E+02  0.17966647296E+02  0.22825895991E+03  0.24838097655E+03  0.84401158643E+02 0.  0.
          6    2    1    2  501    0 -0.67026019560E+02  0.78007067051E+02  0.27276774771E+03  0.33864110503E+03  0.17233097231E+03 0.  0.
         24    2    5    5    0    0 -0.80649665129E+02  0.11302428845E+03  0.18997796947E+03  0.24760239407E+03  0.77048415926E+02 0.  0.
          5    1    5    5  501    0  0.13623645569E+02 -0.35017221401E+02  0.82789778243E+02  0.91038710968E+02  0.47000000000E+01 0. -1.
        -13    1    6    6    0    0 -0.60453948537E+02  0.40504873165E+02  0.13835059169E+03  0.15632085870E+03  0.00000000000E+00 0.  1.
         14    1    6    6    0    0 -0.20195716592E+02  0.72519415287E+02  0.51627377787E+02  0.91281535369E+02  0.00000000000E+00 0. -1.
         -5    1    3    3    0  503  0.20716185412E+02 -0.95973714347E+02  0.14587846419E+03  0.17590545898E+03  0.47000000000E+01 0.  1.
         13    1    4    4    0    0 -0.15783483699E+02 -0.17531115007E+02  0.85678208896E+02  0.88866269364E+02  0.00000000000E+00 0. -1.
        -14    1    4    4    0    0  0.62093317847E+02  0.35497762303E+02  0.14258075101E+03  0.15951470718E+03  0.00000000000E+00 0.  1.
</event>
<event>
12    1  0.8358445E-002  0.1826112E+03  0.7818608E-02  0.1168489E+00
         21   -1    0    0  503  502  0.00000000000E+00  0.00000000000E+00  0.82628121683E+02  0.82628121683E+02  0.00000000000E+00 0. -1.
         21   -1    0    0  501  503 -0.00000000000E+00 -0.00000000000E+00 -0.11241251330E+04  0.11241251330E+04  0.00000000000E+00 0. -1.
          6    2    1    2  501    0  0.61800341868E+02 -0.94043308312E+01 -0.10066423851E+04  0.10208455372E+04  0.15776246567E+03 0.  0.
         24    2    3    3    0    0 -0.18510924954E+02  0.13600965063E+02 -0.57167294691E+03  0.57790124566E+03  0.81438632799E+02 0.  0.
         -6    2    1    2    0  502 -0.61800341868E+02  0.94043308312E+01 -0.34854626152E+02  0.18590771745E+03  0.17157829336E+03 0.  0.
        -24    2    5    5    0    0 -0.56441853715E+02 -0.29340914618E+02  0.33688930330E+02  0.10684940622E+03  0.78963785758E+02 0.  0.
          5    1    3    3  501    0  0.80311266821E+02 -0.23005295895E+02 -0.43496943823E+03  0.44294429154E+03  0.47000000000E+01 0. -1.
        -11    1    4    4    0    0  0.13212768047E+02  0.26895627745E+02 -0.87130300913E+02  0.92139249880E+02  0.00000000000E+00 0.  1.
         12    1    4    4    0    0 -0.31723693000E+02 -0.13294662682E+02 -0.48454264600E+03  0.48576199578E+03  0.00000000000E+00 0. -1.
         -5    1    5    5    0  502 -0.53584881527E+01  0.38745245449E+02 -0.68543556482E+02  0.79058311235E+02  0.47000000000E+01 0.  1.
         13    1    6    6    0    0 -0.59607576435E+02  0.81218828999E+01  0.66185352488E+01  0.60521344658E+02  0.00000000000E+00 0. -1.
        -14    1    6    6    0    0  0.31657227201E+01 -0.37462797518E+02  0.27070395081E+02  0.46328061562E+02  0.00000000000E+00 0.  1.
</event>
<event>
12    1  0.8358445E-002  0.3317526E+03  0.7818608E-02  0.1072209E+00
         21   -1    0    0  501  502  0.00000000000E+00  0.00000000000E+00  0.29051681708E+04  0.29051681708E+04  0.00000000000E+00 0.  1.
         21   -1    0    0  502  503 -0.00000000000E+00 -0.00000000000E+00 -0.79944420803E+02  0.79944420803E+02  0.00000000000E+00 0.  1.
         -6    2    1    2    0  503 -0.23736927064E+03  0.14077543540E+03  0.32277312451E+03  0.46286314277E+03  0.18411383754E+03 0.  0.
        -24    2    3    3    0    0 -0.51841058648E+02  0.30579158048E+02  0.17511742747E+03  0.20135170544E+03  0.79081069857E+02 0.  0.
          6    2    1    2  501    0  0.23736927064E+03 -0.14077543540E+03  0.25024506255E+04  0.25222494489E+04  0.15271298334E+03 0.  0.
         24    2    5    5    0    0  0.23872310494E+03 -0.15581646734E+03  0.22594140829E+04  0.22786988042E+04  0.79049032566E+02 0.  0.
          5    1    5    5  501    0 -0.13538342958E+01  0.15041031941E+02  0.24303654257E+03  0.24355064470E+03  0.47000000000E+01 0. -1.
        -11    1    6    6    0    0  0.16490086718E+03 -0.14097355231E+03  0.15088135550E+04  0.15243307326E+04  0.00000000000E+00 0.  1.
         12    1    6    6    0    0  0.73822237755E+02 -0.14842915034E+02  0.75060052791E+03  0.75436807158E+03  0.00000000000E+00 0. -1.
         -5    1    3    3    0  503 -0.18552821199E+03  0.11019627735E+03  0.14765569703E+03  0.26151143733E+03  0.47000000000E+01 0.  1.
         13    1    4    4    0    0 -0.15106855369E+02  0.49551522718E+02  0.61298680821E+02  0.80256456147E+02  0.00000000000E+00 0. -1.
        -14    1    4    4    0    0 -0.36734203279E+02 -0.18972364670E+02  0.11381874665E+03  0.12109524929E+03  0.00000000000E+00 0.  1.
</event>
<event>
12    1  0.8358445E-002  0.2051811E+03  0.7818608E-02  0.1146989E+00
         21   -1    0    0  503  502  0.00000000000E+00  0.00000000000E+00  0.13599841815E+03  0.13599841815E+03  0.00000000000E+00 0. -1.
         21   -1    0    0  501  503 -0.00000000000E+00 -0.00000000000E+00 -0.44203585044E+03  0.44203585044E+03  0.00000000000E+00 0.  1.
          6    2    1    2  501    0 -0.97777570378E+02 -0.50687125859E+02 -0.31582627706E+03  0.37261977746E+03  0.16422430780E+03 0.  0.
         24    2    3    3    0    0 -0.80921052965E+02 -0.75696166851E+02 -0.14344637524E+03  0.19755831721E+03  0.78576711826E+02 0.  0.
         -6    2    1    2    0  502  0.97777570378E+02  0.50687125859E+02  0.97888447758E+01  0.20541449113E+03  0.17311745633E+03 0.  0.
        -24    2    5    5    0    0  0.32214158952E+02  0.91637839369E+02 -0.86643330774E+01  0.12580210750E+03  0.79472347026E+02 0.  0.
          5    1    3    3  501    0 -0.16856517412E+02  0.25009040992E+02 -0.17237990182E+03  0.17506146024E+03  0.47000000000E+01 0. -1.
        -13    1    4    4    0    0 -0.22170541274E+02 -0.41574914403E+02 -0.11429911918E+03  0.12362966899E+03  0.00000000000E+00 0.  1.
         14    1    4    4    0    0 -0.58750511691E+02 -0.34121252448E+02 -0.29147256057E+02  0.73928648224E+02  0.00000000000E+00 0. -1.
         -5    1    5    5    0  502  0.65563411425E+02 -0.40950713511E+02  0.18453177853E+02  0.79612383633E+02  0.47000000000E+01 0.  1.
         13    1    6    6    0    0  0.25523347578E+02 -0.69537941853E+01  0.12798996673E+01  0.26484611915E+02  0.00000000000E+00 0. -1.
        -14    1    6    6    0    0  0.66908113743E+01  0.98591633555E+02 -0.99442327447E+01  0.99317495582E+02  0.00000000000E+00 0.  1.
</event>
<event>
12    1  0.8358445E-002  0.2034052E+03  0.7818608E-02  0.1147042E+00
         21   -1    0    0  503  502  0.00000000000E+00  0.00000000000E+00  0.26972898884E+03  0.26972898884E+03  0.00000000000E+00 0. -1.
         21   -1    0    0  501  503 -0.00000000000E+00 -0.00000000000E+00 -0.19867460168E+03  0.19867460168E+03  0.00000000000E+00 0. -1.
          6    2    1    2  501    0  0.91012353785E+02  0.60235576022E+02 -0.76983473573E+02  0.21683076457E+03  0.17081437908E+03 0.  0.
         24    2    3    3    0    0  0.38544359504E+02  0.87381911444E+02 -0.54836139064E+01  0.12396454960E+03  0.78840810739E+02 0.  0.
         -6    2    1    2    0  502 -0.91012353785E+02 -0.60235576022E+02  0.14803786073E+03  0.25157282595E+03  0.17164528945E+03 0.  0.
        -24    2    5    5    0    0 -0.12702882250E+03 -0.38000263313E+02  0.13876219654E+03  0.20798701294E+03  0.80145546396E+02 0.  0.
          5    1    3    3  501    0  0.52467994281E+02 -0.27146335421E+02 -0.71499859666E+02  0.92866214971E+02  0.47000000000E+01 0. -1.
        -11    1    4    4    0    0  0.11415109020E+02  0.19737731013E+02  0.34105061015E+02  0.41024845232E+02  0.00000000000E+00 0.  1.
         12    1    4    4    0    0  0.27129250484E+02  0.67644180431E+02 -0.39588674922E+02  0.82939704364E+02  0.00000000000E+00 0. -1.
         -5    1    5    5    0  502  0.36016468713E+02 -0.22235312709E+02  0.92756641896E+01  0.43585813012E+02  0.47000000000E+01 0.  1.
         13    1    6    6    0    0 -0.51755692306E+02 -0.42586448785E+02  0.10678108969E+03  0.12607322642E+03  0.00000000000E+00 0. -1.
        -14    1    6    6    0    0 -0.75273130192E+02  0.45861854716E+01  0.31981106849E+02  0.81913786516E+02  0.00000000000E+00 0.  1.
</event>
<event>
12    1  0.8358445E-002  0.1721381E+03  0.7818608E-02  0.1176787E+00
         21   -1    0    0  501  502  0.00000000000E+00  0.00000000000E+00  0.10789036311E+03  0.10789036311E+03  0.00000000000E+00 0. -1.
         21   -1    0    0  502  503 -0.00000000000E+00 -0.00000000000E+00 -0.36906993453E+03  0.36906993453E+03  0.00000000000E+00 0. -1.
         -6    2    1    2    0  503  0.72370516389E+01  0.23046476999E+02 -0.25437551440E+03  0.30468774914E+03  0.16596447551E+03 0.  0.
        -24    2    3    3    0    0  0.58188829276E+02  0.45488919195E+02 -0.18760516946E+03  0.21762388856E+03  0.81910168119E+02 0.  0.
          6    2    1    2  501    0 -0.72370516389E+01 -0.23046476999E+02 -0.68040570313E+01  0.17227254850E+03  0.17043479914E+03 0.  0.
         24    2    5    5    0    0  0.38418052655E+02 -0.58774714904E+02 -0.28672486723E+02  0.11013388301E+03  0.79855787585E+02 0.  0.
          5    1    5    5  501    0 -0.45655104294E+02  0.35728237904E+02  0.21868429692E+02  0.62138665491E+02  0.47000000000E+01 0. -1.
        -11    1    6    6    0    0  0.59789310890E+02 -0.21970930753E+02 -0.19263040883E+02  0.66547338330E+02  0.00000000000E+00 0.  1.
         12    1    6    6    0    0 -0.21371258234E+02 -0.36803784151E+02 -0.94094458405E+01  0.43586544682E+02  0.00000000000E+00 0. -1.
         -5    1    3    3    0  503 -0.50951777637E+02 -0.22442442195E+02 -0.66770344938E+02  0.87063860581E+02  0.47000000000E+01 0.  1.
         11    1    4    4    0    0  0.28483609564E+02 -0.80619958965E+00 -0.77280089113E+01  0.29524364401E+02  0.00000000000E+00 0. -1.
        -12    1    4    4    0    0  0.29705219712E+02  0.46295118784E+02 -0.17987716055E+03  0.18809952416E+03  0.00000000000E+00 0.  1.
</event>
<event>
12    1  0.8358445E-002  0.1784190E+03  0.7818608E-02  0.1169456E+00
         21   -1    0    0  503  502  0.00000000000E+00  0.00000000000E+00  0.49891130377E+03  0.49891130377E+03  0.00000000000E+00 0.  1.
         21   -1    0    0  501  503 -0.00000000000E+00 -0.00000000000E+00 -0.10460833735E+03  0.10460833735E+03  0.00000000000E+00 0.  1.
          6    2    1    2  501    0  0.44183881412E+02 -0.15788970133E+02  0.84639414781E+01  0.17861965082E+03  0.17213899732E+03 0.  0.
         24    2    3    3    0    0  0.65298804402E+02 -0.46836501264E+02  0.49022952863E+02  0.12314972593E+03  0.79404114398E+02 0.  0.
         -6    2    1    2    0  502 -0.44183881412E+02  0.15788970133E+02  0.38583902495E+03  0.42489999030E+03  0.17165879422E+03 0.  0.
        -24    2    5    5    0    0 -0.69685912914E+02  0.52939756830E+02  0.19264024901E+03  0.22646009616E+03  0.80716573904E+02 0.  0.
          5    1    3    3  501    0 -0.21114922990E+02  0.31047531131E+02 -0.40559011385E+02  0.55469924885E+02  0.47000000000E+01 0. -1.
        -13    1    4    4    0    0  0.20945577019E+02 -0.60597630401E+02  0.15751140348E+02  0.66021878412E+02  0.00000000000E+00 0.  1.
         14    1    4    4    0    0  0.44353227383E+02  0.13761129137E+02  0.33271812516E+02  0.57127847522E+02  0.00000000000E+00 0. -1.
         -5    1    5    5    0  502  0.25502031502E+02 -0.37150786697E+02  0.19319877593E+03  0.19843989414E+03  0.47000000000E+01 0.  1.
         11    1    6    6    0    0 -0.15733915730E+02  0.62029755423E+02  0.95186095111E+02  0.11469803557E+03  0.00000000000E+00 0. -1.
        -12    1    6    6    0    0 -0.53951997184E+02 -0.90899985924E+01  0.97454153901E+02  0.11176206059E+03  0.00000000000E+00 0.  1.
</event>
<event>
12    1  0.8358445E-002  0.2087167E+03  0.7818608E-02  0.1143799E+00
         21   -1    0    0  501  502  0.00000000000E+00  0.00000000000E+00  0.30885198758E+03  0.30885198758E+03  0.00000000000E+00 0. -1.
         21   -1    0    0  502  503 -0.00000000000E+00 -0.00000000000E+00 -0.18718845586E+03  0.18718845586E+03  0.00000000000E+00 0. -1.
         -6    2    1    2    0  503  0.10515642888E+03  0.42027985525E+01 -0.66895159199E+02  0.21917482523E+03  0.18024179216E+03 0.  0.
        -24    2    3    3    0    0  0.22311236657E+02  0.65968168919E+02 -0.24391146575E+02  0.10734026912E+03  0.77957775440E+02 0.  0.
          6    2    1    2  501    0 -0.10515642888E+03 -0.42027985525E+01  0.18855869092E+03  0.27686561821E+03  0.17327623200E+03 0.  0.
         24    2    5    5    0    0 -0.10937426853E+03 -0.54552710219E+02  0.10768516987E+03  0.18139038487E+03  0.79797538205E+02 0.  0.
          5    1    5    5  501    0  0.42178396424E+01  0.50349911667E+02  0.80873521041E+02  0.95475233342E+02  0.47000000000E+01 0. -1.
        -13    1    6    6    0    0 -0.22234933547E+02  0.65090880830E+01 -0.77181728708E+01  0.24419883087E+02  0.00000000000E+00 0.  1.
         14    1    6    6    0    0 -0.87139334980E+02 -0.61061798302E+02  0.11540334275E+03  0.15697050178E+03  0.00000000000E+00 0. -1.
         -5    1    3    3    0  503  0.82845192228E+02 -0.61765370366E+02 -0.42504012623E+02  0.11183455611E+03  0.47000000000E+01 0.  1.
         13    1    4    4    0    0  0.42183165618E+02  0.63853627273E+02 -0.94757548279E+00  0.76534979433E+02  0.00000000000E+00 0. -1.
        -14    1    4    4    0    0 -0.19871928962E+02  0.21145416455E+01 -0.23443571093E+02  0.30805289686E+02  0.00000000000E+00 0.  1.
</event>
<event>
12    1  0.8358445E-002  0.3141955E+03  0.7818608E-02  0.1078849E+00
         21   -1    0    0  503  502  0.00000000000E+00  0.00000000000E+00  0.48775869922E+03  0.48775869922E+03  0.00000000000E+00 0.  1.
         21   -1    0    0  501  503 -0.00000000000E+00 -0.00000000000E+00 -0.30972124694E+03  0.30972124694E+03  0.00000000000E+00 0.  1.
          6    2    1    2  501    0 -0.19514619029E+03 -0.16813713921E+03 -0.14901229425E+03  0.34395997594E+03  0.17248671847E+03 0.  0.
         24    2    3    3    0    0 -0.19299324185E+03 -0.92817634354E+02 -0.14003386866E+03  0.26793126344E+03  0.79474353781E+02 0.  0.
         -6    2    1    2    0  502  0.19514619029E+03  0.16813713921E+03  0.32704974652E+03  0.45351997022E+03  0.17990745821E+03 0.  0.
        -24    2    5    5    0    0  0.11646094997E+02  0.74856013401E+02  0.97587011059E+02  0.14521996961E+03  0.76331910604E+02 0.  0.
          5    1    3    3  501    0 -0.21529484409E+01 -0.75319504858E+02 -0.89784255810E+01  0.76028712503E+02  0.47000000000E+01 0. -1.
        -13    1    4    4    0    0 -0.17102955677E+03 -0.10508546812E+03 -0.13596446003E+03  0.24244669371E+03  0.00000000000E+00 0.  1.
         14    1    4    4    0    0 -0.21963685085E+02  0.12267833768E+02 -0.40694086321E+01  0.25484569733E+02  0.00000000000E+00 0. -1.
         -5    1    5    5    0  502  0.18350009529E+03  0.93281125810E+02  0.22946273546E+03  0.30830000060E+03  0.47000000000E+01 0.  1.
         13    1    6    6    0    0  0.34143634160E+02  0.43445559665E+02  0.20398162839E+02  0.58901523371E+02  0.00000000000E+00 0. -1.
        -14    1    6    6    0    0 -0.22497539163E+02  0.31410453736E+02  0.77188848220E+02  0.86318446244E+02  0.00000000000E+00 0.  1.
</event>
<event>
12    1  0.8358445E-002  0.2545319E+03  0.7818608E-02  0.1110734E+00
         21   -1    0    0  501  502  0.00000000000E+00  0.00000000000E+00  0.17280669985E+03  0.17280669985E+03  0.00000000000E+00 0.  1.
         21   -1    0    0  502  503 -0.00000000000E+00 -0.00000000000E+00 -0.37890114493E+03  0.37890114493E+03  0.00000000000E+00 0. -1.
         -6    2    1    2    0  503 -0.58892780527E+00 -0.18597284633E+03 -0.66692508896E+02  0.26150208068E+03  0.17131608520E+03 0.  0.
        -24    2    3    3    0    0 -0.43143258251E+02 -0.15801161249E+03 -0.92261486483E+02  0.20433072201E+03  0.80061549164E+02 0.  0.
          6    2    1    2  501    0  0.58892780527E+00  0.18597284633E+03 -0.13940193618E+03  0.29020576410E+03  0.17378216047E+03 0.  0.
         24    2    5    5    0    0 -0.51323198879E+02  0.52753293124E+02 -0.82877247150E+02  0.13638948173E+03  0.79476235138E+02 0.  0.
          5    1    5    5  501    0  0.51912126684E+02  0.13321955321E+03 -0.56524689032E+02  0.15381628238E+03  0.47000000000E+01 0. -1.
        -13    1    6    6    0    0 -0.47234631032E+02 -0.34549138690E+01 -0.18542010011E+02  0.50861114162E+02  0.00000000000E+00 0.  1.
         14    1    6    6    0    0 -0.40885678472E+01  0.56208206993E+02 -0.64335237139E+02  0.85528367564E+02  0.00000000000E+00 0. -1.
         -5    1    3    3    0  503  0.42554330446E+02 -0.27961233844E+02  0.25568977587E+02  0.57171358674E+02  0.47000000000E+01 0.  1.
         11    1    4    4    0    0 -0.37933087176E+02 -0.92174029114E+02 -0.12005995362E+02  0.10039479404E+03  0.00000000000E+00 0. -1.
        -12    1    4    4    0    0 -0.52101710749E+01 -0.65837583373E+02 -0.80255491122E+02  0.10393592797E+03  0.00000000000E+00 0.  1.
</event>
<event>
12    1  0.8358445E-002  0.2118746E+03  0.7818608E-02  0.1140847E+00
         21   -1    0    0  501  502  0.00000000000E+00  0.00000000000E+00  0.13921368647E+03  0.13921368647E+03  0.00000000000E+00 0. -1.
         21   -1    0    0  502  503 -0.00000000000E+00 -0.00000000000E+00 -0.49885075108E+03  0.49885075108E+03  0.00000000000E+00 0. -1.
         -6    2    1    2    0  503  0.51440469856E+02 -0.11198087715E+03  0.11940147802E+02  0.21221081469E+03  0.17235145475E+03 0.  0.
        -24    2    3    3    0    0  0.83733281761E+02 -0.61806617016E+02  0.51828084869E+02  0.14028432718E+03  0.78499819685E+02 0.  0.
          6    2    1    2  501    0 -0.51440469856E+02  0.11198087715E+03 -0.37157721242E+03  0.42585362287E+03  0.16761815098E+03 0.  0.
         24    2    5    5    0    0 -0.42602582786E+02  0.10016630024E+03 -0.14070744663E+03  0.19446513735E+03  0.78548305802E+02 0.  0.
          5    1    5    5  501    0 -0.88378870707E+01  0.11814576910E+02 -0.23086976579E+03  0.23138848552E+03  0.47000000000E+01 0. -1.
        -11    1    6    6    0    0 -0.28695978813E+02  0.52352371620E+02 -0.13067835728E+03  0.14366997973E+03  0.00000000000E+00 0.  1.
         12    1    6    6    0    0 -0.13906603972E+02  0.47813928624E+02 -0.10029089345E+02  0.50795157620E+02  0.00000000000E+00 0. -1.
         -5    1    3    3    0  503 -0.32292811905E+02 -0.50174260139E+02 -0.39887937066E+02  0.71926487503E+02  0.47000000000E+01 0.  1.
         13    1    4    4    0    0  0.24926686651E+02 -0.53165389221E+02  0.55414347071E+02  0.80738145753E+02  0.00000000000E+00 0. -1.
        -14    1    4    4    0    0  0.58806595110E+02 -0.86412277952E+01 -0.35862622025E+01  0.59546181429E+02  0.00000000000E+00 0.  1.
</event>
<event>
12    1  0.8358445E-002  0.1753864E+03  0.7818608E-02  0.1172498E+00
         21   -1    0    0  503  502  0.00000000000E+00  0.00000000000E+00  0.36472247533E+03  0.36472247533E+03  0.00000000000E+00 0.  1.
         21   -1    0    0  501  503 -0.00000000000E+00 -0.00000000000E+00 -0.76106961520E+03  0.76106961520E+03  0.00000000000E+00 0.  1.
          6    2    1    2  501    0 -0.15057569622E+00 -0.32077230849E+02 -0.72904184090E+03  0.74969882748E+03  0.17180615448E+03 0.  0.
         24    2    3    3    0    0  0.30959719066E+02 -0.79896280441E+02 -0.49146242963E+03  0.50532088533E+03  0.80448477821E+02 0.  0.
         -6    2    1    2    0  502  0.15057569622E+00  0.32077230849E+02  0.33269470103E+03  0.37609326305E+03  0.17242797630E+03 0.  0.
        -24    2    5    5    0    0  0.48481330103E+02  0.11761098231E+02  0.97362279896E+02  0.13494591079E+03  0.79007736920E+02 0.  0.
          5    1    3    3  501    0 -0.31110294762E+02  0.47819049592E+02 -0.23757941127E+03  0.24437794214E+03  0.47000000000E+01 0. -1.
        -13    1    4    4    0    0 -0.23902158644E+02 -0.40514915007E+02 -0.25944087723E+03  0.26367089393E+03  0.00000000000E+00 0.  1.
         14    1    4    4    0    0  0.54861877710E+02 -0.39381365434E+02 -0.23202155240E+03  0.24164999141E+03  0.00000000000E+00 0. -1.
         -5    1    5    5    0  502 -0.48330754407E+02  0.20316132618E+02  0.23533242113E+03  0.24114735226E+03  0.47000000000E+01 0.  1.
         11    1    6    6    0    0  0.62884788703E+01  0.32133943160E+01 -0.13929829637E+02  0.15617651016E+02  0.00000000000E+00 0. -1.
        -12    1    6    6    0    0  0.42192851233E+02  0.85477039150E+01  0.11129210953E+03  0.11932825978E+03  0.00000000000E+00 0.  1.
</event>
<event>
12    1  0.8358445E-002  0.1888480E+03  0.7818608E-02  0.1160408E+00
         21   -1    0    0  501  502  0.00000000000E+00  0.00000000000E+00  0.11946368964E+03  0.11946368964E+03  0.00000000000E+00 0. -1.
         21   -1    0    0  502  503 -0.00000000000E+00 -0.00000000000E+00 -0.34496755368E+03  0.34496755368E+03  0.00000000000E+00 0. -1.
         -6    2    1    2    0  503 -0.66126405436E+02  0.64821111938E+01 -0.20243706968E+03  0.27417975303E+03  0.17256607584E+03 0.  0.
        -24    2    3    3    0    0 -0.51498581751E+02  0.60882308368E+02 -0.14241416940E+03  0.19172859636E+03  0.10059472960E+03 0.  0.
          6    2    1    2  501    0  0.66126405436E+02 -0.64821111938E+01 -0.23066794367E+02  0.19025149029E+03  0.17677339532E+03 0.  0.
         24    2    5    5    0    0  0.64060836921E+02  0.59819950638E+02  0.11165253845E+01  0.11949025139E+03  0.81206257313E+02 0.  0.
          5    1    5    5  501    0  0.20655685148E+01 -0.66302061831E+02 -0.24183319751E+02  0.70761238899E+02  0.47000000000E+01 0. -1.
        -13    1    6    6    0    0  0.32591269562E+02  0.54641334638E+02 -0.33929689602E+02  0.72104716484E+02  0.00000000000E+00 0.  1.
         14    1    6    6    0    0  0.31469567359E+02  0.51786159995E+01  0.35046214986E+02  0.47385534906E+02  0.00000000000E+00 0. -1.
         -5    1    3    3    0  503 -0.14627823685E+02 -0.54400197174E+02 -0.60022900280E+02  0.82451156671E+02  0.47000000000E+01 0.  1.
         13    1    4    4    0    0 -0.78785366099E+02  0.61670270522E+02 -0.12116694424E+03  0.15713619746E+03  0.00000000000E+00 0. -1.
        -14    1    4    4    0    0  0.27286784348E+02 -0.78796215356E+00 -0.21247225162E+02  0.34592398898E+02  0.00000000000E+00 0.  1.
</event>
<event>
12    1  0.8358445E-002  0.1858564E+03  0.7818608E-02  0.1162455E+00
         21   -1    0    0  503  502  0.00000000000E+00  0.00000000000E+00  0.54474992144E+03  0.54474992144E+03  0.00000000000E+00 0. -1.
         21   -1    0    0  501  503 -0.00000000000E+00 -0.00000000000E+00 -0.70380253360E+02  0.70380253360E+02  0.00000000000E+00 0. -1.
          6    2    1    2  501    0  0.39769112764E+02  0.60745270385E+02  0.13785995823E+03  0.23070674291E+03  0.17014306609E+03 0.  0.
         24    2    3    3    0    0  0.38651230765E+02  0.46367026235E+02  0.76274340542E+01  0.99593875813E+02  0.78847597222E+02 0.  0.
         -6    2    1    2    0  502 -0.39769112764E+02 -0.60745270385E+02  0.33650970985E+03  0.38442343189E+03  0.17108775514E+03 0.  0.
        -24    2    5    5    0    0 -0.64053128218E+02 -0.50061799459E+01  0.28904930953E+03  0.30715028514E+03  0.81632893199E+02 0.  0.
          5    1    3    3  501    0  0.11178819990E+01  0.14378244150E+02  0.13023252418E+03  0.13111286710E+03  0.47000000000E+01 0. -1.
        -11    1    4    4    0    0 -0.10836113980E+02  0.43699297418E+02  0.18801082505E+02  0.48790682148E+02  0.00000000000E+00 0.  1.
         12    1    4    4    0    0  0.49487344744E+02  0.26677288169E+01 -0.11173648451E+02  0.50803193665E+02  0.00000000000E+00 0. -1.
         -5    1    5    5    0  502  0.24284015454E+02 -0.55739090439E+02  0.47460400320E+02  0.77273146746E+02  0.47000000000E+01 0.  1.
         11    1    6    6    0    0 -0.78075965291E+02  0.66005617608E+01  0.17611976700E+03  0.19276305688E+03  0.00000000000E+00 0. -1.
        -12    1    6    6    0    0  0.14022837073E+02 -0.11606741707E+02  0.11292954253E+03  0.11438722826E+03  0.00000000000E+00 0.  1.
</event>
<event>
12    1  0.8358445E-002  0.2521045E+03  0.7818608E-02  0.1112360E+00
         21   -1    0    0  503  502  0.00000000000E+00  0.00000000000E+00  0.13613229775E+04  0.13613229775E+04  0.00000000000E+00 0.  1.
         21   -1    0    0  501  503 -0.00000000000E+00 -0.00000000000E+00 -0.64039089776E+02  0.64039089776E+02  0.00000000000E+00 0.  1.
          6    2    1    2  501    0 -0.16779533744E+03  0.65382648415E+02  0.10220893303E+04  0.10521480542E+04  0.17297041021E+03 0.  0.
         24    2    3    3    0    0 -0.62751818738E+02  0.61349048336E+02  0.31057776087E+03  0.33289760114E+03  0.81613545526E+02 0.  0.
         -6    2    1    2    0  502  0.16779533744E+03 -0.65382648415E+02  0.27519455743E+03  0.37321401310E+03  0.17642700802E+03 0.  0.
        -24    2    5    5    0    0  0.71483351026E+02 -0.13680767543E+02  0.23015619443E+03  0.25489399217E+03  0.81865991309E+02 0.  0.
          5    1    3    3  501    0 -0.10504351871E+03  0.40336000781E+01  0.71151156941E+03  0.71925045301E+03  0.47000000000E+01 0. -1.
        -13    1    4    4    0    0 -0.32494981416E+02  0.64752020195E+02  0.28193597074E+03  0.29109558487E+03  0.00000000000E+00 0.  1.
         14    1    4    4    0    0 -0.30256837322E+02 -0.34029718589E+01  0.28641790126E+02  0.41802016265E+02  0.00000000000E+00 0. -1.
         -5    1    5    5    0  502  0.96311986419E+02 -0.51701880872E+02  0.45038362995E+02  0.11832002094E+03  0.47000000000E+01 0.  1.
         13    1    6    6    0    0  0.99012064859E+01 -0.40982711534E+02  0.86512341483E+02  0.96239294279E+02  0.00000000000E+00 0. -1.
        -14    1    6    6    0    0  0.61582144540E+02  0.27301943991E+02  0.14364385295E+03  0.15865469789E+03  0.00000000000E+00 0.  1.
</event>
<event>
12    1  0.8358445E-002  0.1728477E+03  0.7818608E-02  0.1175095E+00
         21   -1    0    0  501  502  0.00000000000E+00  0.00000000000E+00  0.33285553122E+03  0.33285553122E+03  0.00000000000E+00 0.  1.
         21   -1    0    0  502  503 -0.00000000000E+00 -0.00000000000E+00 -0.98015889102E+02  0.98015889102E+02  0.00000000000E+00 0.  1.
         -6    2    1    2    0  503  0.10746966723E+02 -0.22819073166E+01  0.53257781507E+02  0.18017578010E+03  0.17177373504E+03 0.  0.
        -24    2    3    3    0    0 -0.37908074855E+02 -0.46355545624E+02  0.97896884367E+01  0.10130015788E+03  0.81117354728E+02 0.  0.
          6    2    1    2  501    0 -0.10746966723E+02  0.22819073166E+01  0.18158186061E+03  0.25069564023E+03  0.17249819573E+03 0.  0.
         24    2    5    5    0    0 -0.25463213355E+02  0.12174009627E+02  0.15711118456E+02  0.83813601928E+02  0.77338857505E+02 0.  0.
          5    1    5    5  501    0  0.14716246632E+02 -0.98921023102E+01  0.16587074216E+03  0.16688203830E+03  0.47000000000E+01 0. -1.
        -11    1    6    6    0    0 -0.39488723400E+02  0.36616395984E+02  0.13661488825E+02  0.55558581763E+02  0.00000000000E+00 0.  1.
         12    1    6    6    0    0  0.14025510045E+02 -0.24442386357E+02  0.20496296306E+01  0.28255020164E+02  0.00000000000E+00 0. -1.
         -5    1    3    3    0  503  0.48655041578E+02  0.44073638308E+02  0.43468093071E+02  0.78875622215E+02  0.47000000000E+01 0.  1.
         13    1    4    4    0    0 -0.27272925743E+02  0.19813339075E+02  0.11759341384E+01  0.33730753104E+02  0.00000000000E+00 0. -1.
        -14    1    4    4    0    0 -0.10635149112E+02 -0.66168884699E+02  0.86137542983E+01  0.67569404778E+02  0.00000000000E+00 0.  1.
</event>
<event>
12    1  0.8358445E-002  0.2777583E+03  0.7818608E-02  0.1097214E+00
         21   -1    0    0  503  502  0.00000000000E+00  0.00000000000E+00  0.47128562837E+03  0.47128562837E+03  0.00000000000E+00 0. -1.
         21   -1    0    0  501  503 -0.00000000000E+00 -0.00000000000E+00 -0.16244955512E+03  0.16244955512E+03  0.00000000000E+00 0. -1.
          6    2    1    2  501    0 -0.86750373278E+02 -0.19785971044E+03  0.15353998281E+03  0.31551111251E+03  0.17116846532E+03 0.  0.
         24    2    3    3    0    0 -0.76347308081E+02 -0.58123179334E+02  0.11572626201E+03  0.17029923500E+03  0.80012788332E+02 0.  0.
         -6    2    1    2    0  502  0.86750373278E+02  0.19785971044E+03  0.15529609044E+03  0.31822407098E+03  0.17457259627E+03 0.  0.
        -24    2    5    5    0    0  0.59502368789E+02  0.47663772128E+02  0.96898050281E+02  0.15471965291E+03  0.93469630280E+02 0.  0.
          5    1    3    3  501    0 -0.10403065197E+02 -0.13973653110E+03  0.37813720801E+02  0.14521187751E+03  0.47000000000E+01 0. -1.
        -11    1    4    4    0    0 -0.61726974237E+01 -0.17560730689E+00 -0.11983086495E+02  0.13480630303E+02  0.00000000000E+00 0.  1.
         12    1    4    4    0    0 -0.70174610658E+02 -0.57947572027E+02  0.12770934850E+03  0.15681860470E+03  0.00000000000E+00 0. -1.
         -5    1    5    5    0  502  0.27248004490E+02  0.15019593831E+03  0.58398040163E+02  0.16350441807E+03  0.47000000000E+01 0.  1.
         13    1    6    6    0    0  0.45589831733E+02  0.38796050612E+02  0.35967057716E+01  0.59970847859E+02  0.00000000000E+00 0. -1.
        -14    1    6    6    0    0  0.13912537056E+02  0.88677215158E+01  0.93301344509E+02  0.94748805055E+02  0.00000000000E+00 0.  1.
</event>
<event>
12    1  0.8358445E-002  0.2329718E+03  0.7818608E-02  0.1124593E+00
         21   -1    0    0  503  502  0.00000000000E+00  0.00000000000E+00  0.36884060304E+03  0.36884060304E+03  0.00000000000E+00 0.  1.
         21   -1    0    0  501  503 -0.00000000000E+00 -0.00000000000E+00 -0.15500200748E+03  0.15500200748E+03  0.00000000000E+00 0.  1.
          6    2    1    2  501    0 -0.35403594001E+02 -0.15309053169E+03  0.16626678523E+03  0.28621758124E+03  0.17200504231E+03 0.  0.
         24    2    3    3    0    0 -0.18421050443E+02 -0.17803045023E+03  0.11654964691E+03  0.22787128603E+03  0.79418678497E+02 0.  0.
         -6    2    1    2    0  502  0.35403594001E+02  0.15309053169E+03  0.47571810328E+02  0.23762502928E+03  0.17179188584E+03 0.  0.
        -24    2    5    5    0    0  0.49264053692E+02  0.98160434498E+02 -0.32223834888E+02  0.13965124240E+03  0.80010474827E+02 0.  0.
          5    1    3    3  501    0 -0.16982543558E+02  0.24939918537E+02  0.49717138314E+02  0.58346295208E+02  0.47000000000E+01 0. -1.
        -13    1    4    4    0    0 -0.43107885484E+02 -0.11525197285E+03  0.99621691506E+02  0.15832178769E+03  0.00000000000E+00 0.  1.
         14    1    4    4    0    0  0.24686835042E+02 -0.62778477373E+02  0.16927955407E+02  0.69549498344E+02  0.00000000000E+00 0. -1.
         -5    1    5    5    0  502 -0.13860459691E+02  0.54930097191E+02  0.79795645216E+02  0.97973786881E+02  0.47000000000E+01 0.  1.
         13    1    6    6    0    0  0.13274786364E+02  0.98216993700E+02 -0.30183017449E+02  0.10360411356E+03  0.00000000000E+00 0. -1.
        -14    1    6    6    0    0  0.35989267328E+02 -0.56559201958E-01 -0.20408174385E+01  0.36047128839E+02  0.00000000000E+00 0.  1.
</event>
<event>
12    1  0.8358445E-002  0.2211847E+03  0.7818608E-02  0.1133266E+00
         21   -1    0    0  503  502  0.00000000000E+00  0.00000000000E+00  0.46677640499E+03  0.46677640499E+03  0.00000000000E+00 0. -1.
         21   -1    0    0  501  503 -0.00000000000E+00 -0.00000000000E+00 -0.10908539240E+03  0.10908539240E+03  0.00000000000E+00 0. -1.
          6    2    1    2  501    0 -0.56380471143E+02  0.12524990480E+03  0.24070055034E+03  0.32689361072E+03  0.17336776406E+03 0.  0.
         24    2    3    3    0    0  0.70753331378E+01  0.48489481230E+02  0.19579020930E+03  0.21754174537E+03  0.81174594488E+02 0.  0.
         -6    2    1    2    0  502  0.56380471143E+02 -0.12524990480E+03  0.11699046225E+03  0.24896818667E+03  0.17155784313E+03 0.  0.
        -24    2    5    5    0    0  0.64174692627E+02 -0.13313192020E+03  0.14286272666E+03  0.22043154144E+03  0.79610341297E+02 0.  0.
          5    1    3    3  501    0 -0.63455804280E+02  0.76760423573E+02  0.44910341040E+02  0.10935186535E+03  0.47000000000E+01 0. -1.
        -13    1    4    4    0    0  0.91521470732E+01  0.37847252544E+02  0.24706849136E+02  0.46115124584E+02  0.00000000000E+00 0.  1.
         14    1    4    4    0    0 -0.20768139354E+01  0.10642228686E+02  0.17108336017E+03  0.17142662079E+03  0.00000000000E+00 0. -1.
         -5    1    5    5    0  502 -0.77942214846E+01  0.78820153986E+01 -0.25872264414E+02  0.28536645233E+02  0.47000000000E+01 0.  1.
         13    1    6    6    0    0  0.52198848258E+02 -0.14206205836E+03  0.12012858451E+03  0.19322842700E+03  0.00000000000E+00 0. -1.
        -14    1    6    6    0    0  0.11975844369E+02  0.89301381570E+01  0.22734142145E+02  0.27203114434E+02  0.00000000000E+00 0.  1.
</event>
<event>
12    1  0.8358445E-002  0.1845733E+03  0.7818608E-02  0.1164582E+00
         21   -1    0    0  501  502  0.00000000000E+00  0.00000000000E+00  0.13246108814E+03  0.13246108814E+03  0.00000000000E+00 0.  1.
         21   -1    0    0  502  503 -0.00000000000E+00 -0.00000000000E+00 -0.26521678268E+03  0.26521678268E+03  0.00000000000E+00 0.  1.
         -6    2    1    2    0  503 -0.57099196642E+02  0.40665216559E+02 -0.18856767328E+02  0.18079022036E+03  0.16557641139E+03 0.  0.
        -24    2    3    3    0    0  0.42537060212E+01 -0.10555136189E+01 -0.55637600566E+02  0.97846156769E+02  0.80368648575E+02 0.  0.
          6    2    1    2  501    0  0.57099196642E+02 -0.40665216559E+02 -0.11389892721E+03  0.21688765045E+03  0.17074340164E+03 0.  0.
         24    2    5    5    0    0  0.39324823964E+02 -0.92694438116E+02 -0.69173064296E+02  0.14585624167E+03  0.79689583844E+02 0.  0.
          5    1    5    5  501    0  0.17774372678E+02  0.52029221557E+02 -0.44725862913E+02  0.71031408780E+02  0.47000000000E+01 0. -1.
        -13    1    6    6    0    0  0.12620340658E+02  0.43798941869E+01  0.10879923393E+02  0.17228731946E+02  0.00000000000E+00 0.  1.
         14    1    6    6    0    0  0.26704483306E+02 -0.97074332303E+02 -0.80052987688E+02  0.12862750973E+03  0.00000000000E+00 0. -1.
         -5    1    3    3    0  503 -0.61352902663E+02  0.41720730178E+02  0.36780833239E+02  0.82944063594E+02  0.47000000000E+01 0.  1.
         11    1    4    4    0    0  0.27148049444E+02  0.28236647448E+02 -0.43955552085E+02  0.58876272019E+02  0.00000000000E+00 0. -1.
        -12    1    4    4    0    0 -0.22894343422E+02 -0.29292161067E+02 -0.11682048481E+02  0.38969884750E+02  0.00000000000E+00 0.  1.
</event>
<event>
12    1  0.8358445E-002  0.2272671E+03  0.7818608E-02  0.1128694E+00
         21   -1    0    0  503  502  0.00000000000E+00  0.00000000000E+00  0.20726983420E+03  0.20726983420E+03  0.00000000000E+00 0.  1.
         21   -1    0    0  501  503 -0.00000000000E+00 -0.00000000000E+00 -0.27625959087E+03  0.27625959087E+03  0.00000000000E+00 0. -1.
          6    2    1    2  501    0  0.26968335708E+02 -0.14548982670E+03  0.42119983949E+02  0.23113725946E+03  0.17249857640E+03 0.  0.
         24    2    3    3    0    0 -0.30358265296E+02 -0.14641615182E+03  0.37619399396E+02  0.17343507127E+03  0.79405232498E+02 0.  0.
         -6    2    1    2    0  502 -0.26968335708E+02  0.14548982670E+03 -0.11110974062E+03  0.25239216562E+03  0.17164454550E+03 0.  0.
        -24    2    5    5    0    0  0.13338734411E+01  0.22582722340E+02 -0.63880647346E+01  0.88392498710E+02  0.85209552813E+02 0.  0.
          5    1    3    3  501    0  0.57326601004E+02  0.92632512386E+00  0.45005845525E+01  0.57702188193E+02  0.47000000000E+01 0. -1.
        -11    1    4    4    0    0  0.21815581500E+02 -0.36705318246E+02  0.29058788636E+02  0.51648941719E+02  0.00000000000E+00 0.  1.
         12    1    4    4    0    0 -0.52173846796E+02 -0.10971083358E+03  0.85606107604E+01  0.12178612955E+03  0.00000000000E+00 0. -1.
         -5    1    5    5    0  502 -0.28302209149E+02  0.12290710436E+03 -0.10472167588E+03  0.16399966691E+03  0.47000000000E+01 0.  1.
         11    1    6    6    0    0 -0.41917689630E+02  0.11919878408E+02 -0.44093271364E+01  0.43802036151E+02  0.00000000000E+00 0. -1.
        -12    1    6    6    0    0  0.43251563071E+02  0.10662843931E+02 -0.19787375982E+01  0.44590462559E+02  0.00000000000E+00 0.  1.
</event>
<event>
12    1  0.8358445E-002  0.2372110E+03  0.7818608E-02  0.1121816E+00
         21   -1    0    0  501  502  0.00000000000E+00  0.00000000000E+00  0.83093936177E+03  0.83093936177E+03  0.00000000000E+00 0.  1.
         21   -1    0    0  502  503 -0.00000000000E+00 -0.00000000000E+00 -0.77514278464E+02  0.77514278464E+02  0.00000000000E+00 0.  1.
         -6    2    1    2    0  503  0.60310661799E+02  0.15250821393E+03  0.21253495826E+03  0.31783429699E+03  0.17015111114E+03 0.  0.
        -24    2    3    3    0    0 -0.28468028548E+02  0.81759095531E+02  0.74495985283E+02  0.13904967329E+03  0.79310664269E+02 0.  0.
          6    2    1    2  501    0 -0.60310661799E+02 -0.15250821393E+03  0.54089012505E+03  0.59061934324E+03  0.17138538442E+03 0.  0.
         24    2    5    5    0    0 -0.34057344826E+02 -0.93141812126E+02  0.49493149414E+03  0.51094568342E+03  0.79202320731E+02 0.  0.
          5    1    5    5  501    0 -0.26253316973E+02 -0.59366401801E+02  0.45958630913E+02  0.79673659827E+02  0.47000000000E+01 0. -1.
        -13    1    6    6    0    0 -0.42610852429E+02 -0.10132972736E+03  0.38521364589E+03  0.40059075298E+03  0.00000000000E+00 0.  1.
         14    1    6    6    0    0  0.85535076027E+01  0.81879152295E+01  0.10971784825E+03  0.11035493044E+03  0.00000000000E+00 0. -1.
         -5    1    3    3    0  503  0.88778690347E+02  0.70749118396E+02  0.13803897297E+03  0.17878462370E+03  0.47000000000E+01 0.  1.
         13    1    4    4    0    0  0.59667793166E+01 -0.10427038179E+02  0.27472385709E+02  0.29984288505E+02  0.00000000000E+00 0. -1.
        -14    1    4    4    0    0 -0.34434807865E+02  0.92186133710E+02  0.47023599574E+02  0.10906538478E+03  0.00000000000E+00 0.  1.
</event>
<event>
12    1  0.8358445E-002  0.1913560E+03  0.7818608E-02  0.1157909E+00
         21   -1    0    0  503  502  0.00000000000E+00  0.00000000000E+00  0.31696703780E+03  0.31696703780E+03  0.00000000000E+00 0. -1.
         21   -1    0    0  501  503 -0.00000000000E+00 -0.00000000000E+00 -0.15645699289E+03  0.15645699289E+03  0.00000000000E+00 0. -1.
          6    2    1    2  501    0 -0.27804178843E+02  0.72505025829E+02 -0.42964667210E+02  0.19612006452E+03  0.17489158340E+03 0.  0.
         24    2    3    3    0    0  0.20837252911E+02  0.68775295943E+02 -0.82964881852E+02  0.13285864705E+03  0.74859976189E+02 0.  0.
         -6    2    1    2    0  502  0.27804178843E+02 -0.72505025829E+02  0.20347471213E+03  0.27730396617E+03  0.17165511949E+03 0.  0.
        -24    2    5    5    0    0  0.32163780665E+02 -0.50645546992E+02  0.22474881306E+03  0.24613474556E+03  0.80441306461E+02 0.  0.
          5    1    3    3  501    0 -0.48641431754E+02  0.37297298863E+01  0.40000214642E+02  0.63261417464E+02  0.47000000000E+01 0. -1.
        -13    1    4    4    0    0 -0.18578486088E+02 -0.53188777284E+01 -0.20982494666E+02  0.28525702235E+02  0.00000000000E+00 0.  1.
         14    1    4    4    0    0  0.39415739000E+02  0.74094173672E+02 -0.61982387186E+02  0.10433294482E+03  0.00000000000E+00 0. -1.
         -5    1    5    5    0  502 -0.43596018221E+01 -0.21859478837E+02 -0.21274100930E+02  0.31169220610E+02  0.47000000000E+01 0.  1.
         11    1    6    6    0    0  0.57106594473E+02 -0.49156450967E+02  0.17055723853E+03  0.18645989225E+03  0.00000000000E+00 0. -1.
        -12    1    6    6    0    0 -0.24942813808E+02 -0.14890960253E+01  0.54191574527E+02  0.59674853308E+02  0.00000000000E+00 0.  1.
</event>
<event>
12    1  0.8358445E-002  0.2143759E+03  0.7818608E-02  0.1138259E+00
         21   -1    0    0  503  502  0.00000000000E+00  0.00000000000E+00  0.14531419203E+03  0.14531419203E+03  0.00000000000E+00 0. -1.
         21   -1    0    0  501  503 -0.00000000000E+00 -0.00000000000E+00 -0.31980811253E+03  0.31980811253E+03  0.00000000000E+00 0. -1.
          6    2    1    2  501    0  0.99115416910E+02  0.76579187431E+02 -0.60069675116E+02  0.22263282875E+03  0.17397923080E+03 0.  0.
         24    2    3    3    0    0  0.48862790899E+02 -0.27296164284E+02 -0.14620996310E+02  0.98523652938E+02  0.79752640936E+02 0.  0.
         -6    2    1    2    0  502 -0.99115416910E+02 -0.76579187431E+02 -0.11442424538E+03  0.24248947581E+03  0.17326280655E+03 0.  0.
        -24    2    5    5    0    0 -0.73535997081E+02 -0.12096062339E+03 -0.92139186787E+02  0.18642939722E+03  0.78913085911E+02 0.  0.
          5    1    3    3  501    0  0.50252626011E+02  0.10387535172E+03 -0.45448678807E+02  0.12410917581E+03  0.47000000000E+01 0. -1.
        -11    1    4    4    0    0 -0.13968251206E+02  0.15911003528E+02 -0.36570968306E+01  0.21485958956E+02  0.00000000000E+00 0.  1.
         12    1    4    4    0    0  0.62831042105E+02 -0.43207167812E+02 -0.10963899479E+02  0.77037693982E+02  0.00000000000E+00 0. -1.
         -5    1    5    5    0  502 -0.25579419828E+02  0.44381435954E+02 -0.22285058590E+02  0.56060078598E+02  0.47000000000E+01 0.  1.
         13    1    6    6    0    0 -0.42806429007E+02 -0.67597531796E+02 -0.95708431997E+02  0.12474742733E+03  0.00000000000E+00 0. -1.
        -14    1    6    6    0    0 -0.30729568074E+02 -0.53363091589E+02  0.35692452109E+01  0.61681969889E+02  0.00000000000E+00 0.  1.
</event>
<event>
12    1  0.8358445E-002  0.1864583E+03  0.7818608E-02  0.1161798E+00
         21   -1    0    0  503  502  0.00000000000E+00  0.00000000000E+00  0.73569223415E+02  0.73569223415E+02  0.00000000000E+00 0.  1.
         21   -1    0    0  501  503 -0.00000000000E+00 -0.00000000000E+00 -0.15213739204E+04  0.15213739204E+04  0.00000000000E+00 0.  1.
          6    2    1    2  501    0 -0.68229528789E+02 -0.14848166628E+02 -0.13861215224E+04  0.13985468376E+04  0.17240836850E+03 0.  0.
         24    2    3    3    0    0  0.10426227088E+02 -0.52231621063E+02 -0.59463871540E+03  0.60227340823E+03  0.79380148349E+02 0.  0.
         -6    2    1    2    0  502  0.68229528789E+02  0.14848166628E+02 -0.61683174569E+02  0.19639630617E+03  0.17289001822E+03 0.  0.
        -24    2    5    5    0    0  0.58730593006E+02 -0.75380032499E+01  0.29122401708E+02  0.10227344462E+03  0.78138589353E+02 0.  0.
          5    1    3    3  501    0 -0.78655755877E+02  0.37383454435E+02 -0.79148280698E+03  0.79627342939E+03  0.47000000000E+01 0. -1.
        -11    1    4    4    0    0 -0.27512560612E+02 -0.48378371635E+02 -0.40803764070E+03  0.41181564329E+03  0.00000000000E+00 0.  1.
         12    1    4    4    0    0  0.37938787700E+02 -0.38532494286E+01 -0.18660107470E+03  0.19045776493E+03  0.00000000000E+00 0. -1.
         -5    1    5    5    0  502  0.94989357828E+01  0.22386169878E+02 -0.90805576277E+02  0.94122861547E+02  0.47000000000E+01 0.  1.
         11    1    6    6    0    0  0.15836465277E+02 -0.40654835434E+02  0.16388076842E+02  0.46606634068E+02  0.00000000000E+00 0. -1.
        -12    1    6    6    0    0  0.42894127730E+02  0.33116832184E+02  0.12734324866E+02  0.55666810555E+02  0.00000000000E+00 0.  1.
</event>
<event>
12    1  0.8358445E-002  0.1843796E+03  0.7818608E-02  0.1163737E+00
         21   -1    0    0  501  502  0.00000000000E+00  0.00000000000E+00  0.72579541216E+03  0.72579541216E+03  0.00000000000E+00 0.  1.
         21   -1    0    0  502  503 -0.00000000000E+00 -0.00000000000E+00 -0.85491302129E+02  0.85491302129E+02  0.00000000000E+00 0.  1.
         -6    2    1    2    0  503 -0.64986542117E+02  0.28970801454E+01  0.47208440071E+02  0.19032731850E+03  0.17252306403E+03 0.  0.
        -24    2    3    3    0    0  0.31171545045E+02 -0.58037503057E+01  0.19538633411E+02  0.89779865135E+02  0.81690374279E+02 0.  0.
          6    2    1    2  501    0  0.64986542117E+02 -0.28970801454E+01  0.59309566996E+03  0.62095939579E+03  0.17203619900E+03 0.  0.
         24    2    5    5    0    0  0.72858917627E+00  0.52157991077E+02  0.32235947066E+03  0.33726885137E+03  0.84342533182E+02 0.  0.
          5    1    5    5  501    0  0.64257952941E+02 -0.55055071223E+02  0.27073619930E+03  0.28369054443E+03  0.47000000000E+01 0. -1.
        -11    1    6    6    0    0  0.21706897610E+02  0.30004734680E+01  0.18305484650E+02  0.28553161176E+02  0.00000000000E+00 0.  1.
         12    1    6    6    0    0 -0.20978308433E+02  0.49157517609E+02  0.30405398601E+03  0.30871569019E+03  0.00000000000E+00 0. -1.
         -5    1    3    3    0  503 -0.96158087162E+02  0.87008304512E+01  0.27669806660E+02  0.10054745336E+03  0.47000000000E+01 0.  1.
         13    1    4    4    0    0  0.26368508093E+02 -0.35253169706E+02  0.34937246550E+02  0.56202272106E+02  0.00000000000E+00 0. -1.
        -14    1    4    4    0    0  0.48030369525E+01  0.29449419401E+02 -0.15398613139E+02  0.33577593029E+02  0.00000000000E+00 0.  1.
</event>
<event>
12    1  0.8358445E-002  0.2311146E+03  0.7818608E-02  0.1126112E+00
         21   -1    0    0  503  502  0.00000000000E+00  0.00000000000E+00  0.33272497972E+03  0.33272497972E+03  0.00000000000E+00 0. -1.
         21   -1    0    0  501  503 -0.00000000000E+00 -0.00000000000E+00 -0.22882022883E+03  0.22882022883E+03  0.00000000000E+00 0. -1.
          6    2    1    2  501    0 -0.12799213432E+03 -0.83670956258E+02  0.20657285424E+03  0.30997793121E+03  0.17329500385E+03 0.  0.
         24    2    3    3    0    0 -0.15846488015E+03 -0.46405703832E+02  0.14989791240E+03  0.23547003693E+03  0.75578744111E+02 0.  0.
         -6    2    1    2    0  502  0.12799213432E+03  0.83670956258E+02 -0.10266810335E+03  0.25156727734E+03  0.17135501223E+03 0.  0.
        -24    2    5    5    0    0  0.90634919581E+02  0.11408107174E+03 -0.11591030994E+03  0.20138976592E+03  0.76768862766E+02 0.  0.
          5    1    3    3  501    0  0.30472745833E+02 -0.37265252427E+02  0.56674941837E+02  0.74507894275E+02  0.47000000000E+01 0. -1.
        -11    1    4    4    0    0 -0.40616545443E+02 -0.47906234134E+02  0.63685825373E+02  0.89446047347E+02  0.00000000000E+00 0.  1.
         12    1    4    4    0    0 -0.11784833471E+03  0.15005303020E+01  0.86212087028E+02  0.14602398959E+03  0.00000000000E+00 0. -1.
         -5    1    5    5    0  502  0.37357214738E+02 -0.30410115483E+02  0.13242206595E+02  0.50177511419E+02  0.47000000000E+01 0.  1.
         11    1    6    6    0    0  0.33222782106E+01  0.23231494161E+02 -0.58287743607E+02  0.62834711015E+02  0.00000000000E+00 0. -1.
        -12    1    6    6    0    0  0.87312641370E+02  0.90849577581E+02 -0.57622566337E+02  0.13855505491E+03  0.00000000000E+00 0.  1.
</event>
<event>
12    1  0.8358445E-002  0.1844751E+03  0.7818608E-02  0.1163646E+00
         21   -1    0    0  501  502  0.00000000000E+00  0.00000000000E+00  0.18344685275E+03  0.18344685275E+03  0.00000000000E+00 0. -1.
         21   -1    0    0  502  503 -0.00000000000E+00 -0.00000000000E+00 -0.91942865561E+03  0.91942865561E+03  0.00000000000E+00 0. -1.
         -6    2    1    2    0  503  0.42747957674E+02  0.48125851349E+02 -0.86072789515E+03  0.88018142774E+03  0.17240461361E+03 0.  0.
        -24    2    3    3    0    0  0.41654315701E+02  0.49579706229E+02 -0.86649291747E+03  0.87252406337E+03  0.79341261942E+02 0.  0.
          6    2    1    2  501    0 -0.42747957674E+02 -0.48125851349E+02  0.12474609230E+03  0.22269408062E+03  0.17288024915E+03 0.  0.
         24    2    5    5    0    0  0.36539033781E+02  0.65928280908E+01  0.52653985302E+02  0.10227845545E+03  0.79434714762E+02 0.  0.
          5    1    5    5  501    0 -0.79286991456E+02 -0.54718679440E+02  0.72092106995E+02  0.12041562517E+03  0.47000000000E+01 0. -1.
        -13    1    6    6    0    0 -0.19315874857E+02  0.21212388848E+02  0.25875105976E+02  0.38634046791E+02  0.00000000000E+00 0.  1.
         14    1    6    6    0    0  0.55854908639E+02 -0.14619560757E+02  0.26778879326E+02  0.63644408660E+02  0.00000000000E+00 0. -1.
         -5    1    3    3    0  503  0.10936419737E+01 -0.14538548799E+01  0.57650223188E+01  0.76573643713E+01  0.47000000000E+01 0.  1.
         13    1    4    4    0    0  0.60004783177E+02  0.45086055253E+02 -0.50598074254E+03  0.51151719248E+03  0.00000000000E+00 0. -1.
        -14    1    4    4    0    0 -0.18350467477E+02  0.44936509763E+01 -0.36051217494E+03  0.36100687090E+03  0.00000000000E+00 0.  1.
</event>
<event>
12    1  0.8358445E-002  0.1740685E+03  0.7818608E-02  0.1173752E+00
         21   -1    0    0  501  502  0.00000000000E+00  0.00000000000E+00  0.12958021159E+03  0.12958021159E+03  0.00000000000E+00 0.  1.
         21   -1    0    0  502  503 -0.00000000000E+00 -0.00000000000E+00 -0.41289784513E+03  0.41289784513E+03  0.00000000000E+00 0.  1.
         -6    2    1    2    0  503  0.21163334827E+02 -0.94252113661E+01 -0.32057294947E+03  0.36478329802E+03  0.17251990387E+03 0.  0.
        -24    2    3    3    0    0  0.24379011388E+02 -0.50407860906E+02 -0.30659431465E+03  0.32110938852E+03  0.77303796688E+02 0.  0.
          6    2    1    2  501    0 -0.21163334827E+02  0.94252113661E+01  0.37255315924E+02  0.17769475870E+03  0.17219392368E+03 0.  0.
         24    2    5    5    0    0 -0.79358897310E+01 -0.53323099445E+02 -0.12058368881E+02  0.96662386632E+02  0.79321380782E+02 0.  0.
          5    1    5    5  501    0 -0.13227445096E+02  0.62748310811E+02  0.49313684806E+02  0.81032372065E+02  0.47000000000E+01 0. -1.
        -11    1    6    6    0    0 -0.37959305718E+02 -0.83704266435E+01  0.66977179726E+01  0.39444040854E+02  0.00000000000E+00 0.  1.
         12    1    6    6    0    0  0.30023415987E+02 -0.44952672802E+02 -0.18756086854E+02  0.57218345779E+02  0.00000000000E+00 0. -1.
         -5    1    3    3    0  503 -0.32156765611E+01  0.40982649540E+02 -0.13978634814E+02  0.43673909492E+02  0.47000000000E+01 0.  1.
         13    1    4    4    0    0  0.13493795398E+02 -0.60014045782E+02 -0.29790607787E+03  0.30419039998E+03  0.00000000000E+00 0. -1.
        -14    1    4    4    0    0  0.10885215990E+02  0.96061848758E+01 -0.86882367801E+01  0.16918988544E+02  0.00000000000E+00 0.  1.
</event>
<event>
12    1  0.8358445E-002  0.2044125E+03  0.7818608E-02  0.1146419E+00
         21   -1    0    0  501  502  0.00000000000E+00  0.00000000000E+00  0.15808047470E+03  0.15808047470E+03  0.00000000000E+00 0.  1.
         21   -1    0    0  502  503 -0.00000000000E+00 -0.00000000000E+00 -0.81852017494E+03  0.81852017494E+03  0.00000000000E+00 0.  1.
         -6    2    1    2    0  503 -0.54742812580E+02  0.95026351930E+02 -0.73236645583E+03  0.75990286650E+03  0.17048447966E+03 0.  0.
        -24    2    3    3    0    0 -0.10204475842E+03  0.66433799413E+02 -0.50168658201E+03  0.52264709244E+03  0.81510577491E+02 0.  0.
          6    2    1    2  501    0  0.54742812580E+02 -0.95026351930E+02  0.71926755598E+02  0.21669778314E+03  0.17250416793E+03 0.  0.
         24    2    5    5    0    0 -0.29179781750E+02 -0.48951804655E+02  0.71000537981E+02  0.12083948342E+03  0.79456689569E+02 0.  0.
          5    1    5    5  501    0  0.83922594330E+02 -0.46074547275E+02  0.92621761689E+00  0.95858299718E+02  0.47000000000E+01 0. -1.
        -13    1    6    6    0    0 -0.17590376383E+02 -0.60148451766E+02  0.17646449307E+02  0.65104951919E+02  0.00000000000E+00 0.  1.
         14    1    6    6    0    0 -0.11589405367E+02  0.11196647111E+02  0.53354088673E+02  0.55734531499E+02  0.00000000000E+00 0. -1.
         -5    1    3    3    0  503  0.47301945842E+02  0.28592552517E+02 -0.23067987382E+03  0.23725577406E+03  0.47000000000E+01 0.  1.
         13    1    4    4    0    0 -0.35303384624E+02 -0.11921356128E+01 -0.50900301814E+02  0.61956362692E+02  0.00000000000E+00 0. -1.
        -14    1    4    4    0    0 -0.66741373798E+02  0.67625935026E+02 -0.45078628020E+03  0.46069072975E+03  0.00000000000E+00 0.  1.
</event>
<event>
12    1  0.8358445E-002  0.1814713E+03  0.7818608E-02  0.1166550E+00
         21   -1    0    0  501  502  0.00000000000E+00  0.00000000000E+00  0.23752739671E+03  0.23752739671E+03  0.00000000000E+00 0.  1.
         21   -1    0    0  502  503 -0.00000000000E+00 -0.00000000000E+00 -0.14383368060E+03  0.14383368060E+03  0.00000000000E+00 0.  1.
         -6    2    1    2    0  503  0.29465102054E+02 -0.48854269481E+02  0.89402047829E+01  0.18169134172E+03  0.17226980150E+03 0.  0.
        -24    2    3    3    0    0 -0.73856359551E+01 -0.30804173829E+02 -0.57360546812E+02  0.10357820257E+03  0.80216999281E+02 0.  0.
          6    2    1    2  501    0 -0.29465102054E+02  0.48854269481E+02  0.84753511334E+02  0.19966973560E+03  0.17155149007E+03 0.  0.
         24    2    5    5    0    0 -0.72715712283E+01  0.15699143329E+02  0.12112364549E+03  0.14547848299E+03  0.78700144000E+02 0.  0.
          5    1    5    5  501    0 -0.22193530826E+02  0.33155126152E+02 -0.36370134159E+02  0.54191252610E+02  0.47000000000E+01 0. -1.
        -13    1    6    6    0    0 -0.30911362335E+02  0.28399085733E+02  0.33104862674E+02  0.53459819720E+02  0.00000000000E+00 0.  1.
         14    1    6    6    0    0  0.23639791107E+02 -0.12699942404E+02  0.88018782819E+02  0.92018663268E+02  0.00000000000E+00 0. -1.
         -5    1    3    3    0  503  0.36850738009E+02 -0.18050095652E+02  0.66300751595E+02  0.78113139144E+02  0.47000000000E+01 0.  1.
         11    1    4    4    0    0  0.18956728376E+01  0.27015018857E+02 -0.23983296503E+02  0.36174622741E+02  0.00000000000E+00 0. -1.
        -12    1    4    4    0    0 -0.92813087927E+01 -0.57819192685E+02 -0.33377250309E+02  0.67403579830E+02  0.00000000000E+00 0.  1.
</event>
<event>
12    1  0.8358445E-002  0.1818799E+03  0.7818608E-02  0.1166296E+00
         21   -1    0    0  503  502  0.00000000000E+00  0.00000000000E+00  0.71868993833E+02  0.71868993833E+02  0.00000000000E+00 0.  1.
         21   -1    0    0  501  503 -0.00000000000E+00 -0.00000000000E+00 -0.47488262090E+03  0.47488262090E+03  0.00000000000E+00 0.  1.
          6    2    1    2  501    0  0.58224153451E+02 -0.31934653979E+01 -0.25504375794E+03  0.31325327625E+03  0.17227897827E+03 0.  0.
         24    2    3    3    0    0  0.43903372855E+02  0.23829187437E+02 -0.61894399809E+02  0.11764122890E+03  0.86678749921E+02 0.  0.
         -6    2    1    2    0  502 -0.58224153451E+02  0.31934653979E+01 -0.14796986913E+03  0.23349833848E+03  0.17095654897E+03 0.  0.
        -24    2    5    5    0    0 -0.45644585507E+02  0.64387631057E+02 -0.60966020612E+02  0.12628485473E+03  0.77471373077E+02 0.  0.
          5    1    3    3  501    0  0.14320780596E+02 -0.27022652835E+02 -0.19314935813E+03  0.19561204735E+03  0.47000000000E+01 0. -1.
        -13    1    4    4    0    0  0.37177796140E+02 -0.21544501174E+02 -0.57186591495E+02  0.71530834634E+02  0.00000000000E+00 0.  1.
         14    1    4    4    0    0  0.67255767154E+01  0.45373688612E+02 -0.47078083134E+01  0.46110394267E+02  0.00000000000E+00 0. -1.
         -5    1    5    5    0  502 -0.12579567944E+02 -0.61194165659E+02 -0.87003848522E+02  0.10721348375E+03  0.47000000000E+01 0.  1.
         11    1    6    6    0    0  0.18300947875E+02  0.18824141526E+02 -0.34652763840E+02  0.43475131272E+02  0.00000000000E+00 0. -1.
        -12    1    6    6    0    0 -0.63945533383E+02  0.45563489530E+02 -0.26313256771E+02  0.82809723461E+02  0.00000000000E+00 0.  1.
</event>
<event>
12    1  0.8358445E-002  0.4389645E+03  0.7818608E-02  0.1031067E+00
         21   -1    0    0  501  502  0.00000000000E+00  0.00000000000E+00  0.87003618944E+02  0.87003618944E+02  0.00000000000E+00 0. -1.
         21   -1    0    0  502  503 -0.00000000000E+00 -0.00000000000E+00 -0.22517148403E+04  0.22517148403E+04  0.00000000000E+00 0.  1.
         -6    2    1    2    0  503  0.35897938878E+03 -0.18540673083E+03 -0.93220965930E+03  0.10303798381E+04  0.17153980413E+03 0.  0.
        -24    2    3    3    0    0  0.32069267025E+03 -0.21158033480E+03 -0.82676242811E+03  0.91508829924E+03  0.78996557132E+02 0.  0.
          6    2    1    2  501    0 -0.35897938878E+03  0.18540673083E+03 -0.12325015620E+04  0.13083386212E+04  0.17160416599E+03 0.  0.
         24    2    5    5    0    0 -0.33634156575E+03  0.13725452982E+03 -0.11617792689E+04  0.12197110958E+04  0.77457297421E+02 0.  0.
          5    1    5    5  501    0 -0.22637823021E+02  0.48152201010E+02 -0.70722293163E+02  0.88627525315E+02  0.47000000000E+01 0. -1.
        -13    1    6    6    0    0 -0.24624367029E+03  0.68232553818E+02 -0.73739742731E+03  0.78041437222E+03  0.00000000000E+00 0.  1.
         14    1    6    6    0    0 -0.90097895461E+02  0.69021976006E+02 -0.42438184156E+03  0.43929672362E+03  0.00000000000E+00 0. -1.
         -5    1    3    3    0  503  0.38286718524E+02  0.26173603971E+02 -0.10544723120E+03  0.11529153884E+03  0.47000000000E+01 0.  1.
         11    1    4    4    0    0  0.19816973108E+03 -0.17389426026E+03 -0.53657077854E+03  0.59784501039E+03  0.00000000000E+00 0. -1.
        -12    1    4    4    0    0  0.12252293917E+03 -0.37686074545E+02 -0.29019164957E+03  0.31724328884E+03  0.00000000000E+00 0.  1.
</event>
<event>
12    1  0.8358445E-002  0.3012695E+03  0.7818608E-02  0.1084746E+00
         21   -1    0    0  503  502  0.00000000000E+00  0.00000000000E+00  0.77195689678E+02  0.77195689678E+02  0.00000000000E+00 0. -1.
         21   -1    0    0  501  503 -0.00000000000E+00 -0.00000000000E+00 -0.12958387645E+04  0.12958387645E+04  0.00000000000E+00 0.  1.
          6    2    1    2  501    0  0.62573763924E+02  0.23882886885E+03 -0.82101413052E+03  0.87416362678E+03  0.17071361794E+03 0.  0.
         24    2    3    3    0    0  0.98206351160E+02  0.16478887131E+03 -0.67794248203E+03  0.70910851747E+03  0.80181176675E+02 0.  0.
         -6    2    1    2    0  502 -0.62573763924E+02 -0.23882886885E+03 -0.39762894434E+03  0.49887082743E+03  0.17265173199E+03 0.  0.
        -24    2    5    5    0    0  0.12285159196E+02 -0.17262180608E+03 -0.16279395988E+03  0.24361253970E+03  0.53814338732E+02 0.  0.
          5    1    3    3  501    0 -0.35632587236E+02  0.74039997537E+02 -0.14307164849E+03  0.16505510931E+03  0.47000000000E+01 0. -1.
        -13    1    4    4    0    0  0.72000744969E+02  0.15577835639E+03 -0.49108006691E+03  0.52020249491E+03  0.00000000000E+00 0.  1.
         14    1    4    4    0    0  0.26205606191E+02  0.90105149225E+01 -0.18686241512E+03  0.18890602256E+03  0.00000000000E+00 0. -1.
         -5    1    5    5    0  502 -0.74858923120E+02 -0.66207062771E+02 -0.23483498446E+03  0.25525828774E+03  0.47000000000E+01 0.  1.
         13    1    6    6    0    0 -0.65415621472E+01 -0.14121441612E+03 -0.10886277861E+03  0.17842479626E+03  0.00000000000E+00 0. -1.
        -14    1    6    6    0    0  0.18826721343E+02 -0.31407389961E+02 -0.53931181268E+02  0.65187743431E+02  0.00000000000E+00 0.  1.
</event>
<event>
12    1  0.8358445E-002  0.1854907E+03  0.7818608E-02  0.1162751E+00
         21   -1    0    0  501  502  0.00000000000E+00  0.00000000000E+00  0.33997150175E+03  0.33997150175E+03  0.00000000000E+00 0.  1.
         21   -1    0    0  502  503 -0.00000000000E+00 -0.00000000000E+00 -0.10084261798E+03  0.10084261798E+03  0.00000000000E+00 0.  1.
         -6    2    1    2    0  503  0.42338536179E+02 -0.51904276470E+02  0.12128666914E+03  0.22105612883E+03  0.17224619131E+03 0.  0.
        -24    2    3    3    0    0  0.27166634392E+02  0.36061832814E+02  0.83852713529E+02  0.12414578873E+03  0.79639296097E+02 0.  0.
          6    2    1    2  501    0 -0.42338536179E+02  0.51904276470E+02  0.11784221463E+03  0.21975799090E+03  0.17297451099E+03 0.  0.
         24    2    5    5    0    0 -0.79001709593E+02 -0.10116710082E+02  0.71262609275E+02  0.13383627832E+03  0.80561603581E+02 0.  0.
          5    1    5    5  501    0  0.36663173414E+02  0.62020986552E+02  0.46579605358E+02  0.85921712582E+02  0.47000000000E+01 0. -1.
        -13    1    6    6    0    0 -0.32465616100E+02 -0.41727978574E+02  0.16647453956E+02  0.55429037046E+02  0.00000000000E+00 0.  1.
         14    1    6    6    0    0 -0.46536093493E+02  0.31611268492E+02  0.54615155319E+02  0.78407241271E+02  0.00000000000E+00 0. -1.
         -5    1    3    3    0  503  0.15171901787E+02 -0.87966109285E+02  0.37433955608E+02  0.96910340103E+02  0.47000000000E+01 0.  1.
         13    1    4    4    0    0 -0.25993461233E+02  0.25357435025E+02  0.24809516803E+02  0.43979218524E+02  0.00000000000E+00 0. -1.
        -14    1    4    4    0    0  0.53160095625E+02  0.10704397789E+02  0.59043196726E+02  0.80166570205E+02  0.00000000000E+00 0.  1.
</event>
<event>
12    1  0.8358445E-002  0.3142707E+03  0.7818608E-02  0.1078427E+00
         21   -1    0    0  503  502  0.00000000000E+00  0.00000000000E+00  0.15058979173E+03  0.15058979173E+03  0.00000000000E+00 0. -1.
         21   -1    0    0  501  503 -0.00000000000E+00 -0.00000000000E+00 -0.71664637124E+03  0.71664637124E+03  0.00000000000E+00 0.  1.
          6    2    1    2  501    0 -0.21809921467E+03 -0.14782185155E+03 -0.15435439783E+03  0.34929333867E+03  0.16959359973E+03 0.  0.
         24    2    3    3    0    0 -0.81738060956E+02 -0.97746684238E+02 -0.21693996799E+02  0.15251234714E+03  0.80955924083E+02 0.  0.
         -6    2    1    2    0  502  0.21809921467E+03  0.14782185155E+03 -0.41170218167E+03  0.51794282431E+03  0.17131116608E+03 0.  0.
        -24    2    5    5    0    0  0.15580134216E+03  0.70247089179E+02 -0.15969384737E+03  0.24696467162E+03  0.79250945631E+02 0.  0.
          5    1    3    3  501    0 -0.13636115372E+03 -0.50075167308E+02 -0.13266040104E+03  0.19678099153E+03  0.47000000000E+01 0. -1.
        -13    1    4    4    0    0 -0.14466006463E+02 -0.53830130914E+02 -0.41829199957E+02  0.69689527953E+02  0.00000000000E+00 0.  1.
         14    1    4    4    0    0 -0.67272054493E+02 -0.43916553324E+02  0.20135203159E+02  0.82822819185E+02  0.00000000000E+00 0. -1.
         -5    1    5    5    0  502  0.62297872508E+02  0.77574762367E+02 -0.25200833430E+03  0.27097815269E+03  0.47000000000E+01 0.  1.
         11    1    6    6    0    0  0.12681814322E+03  0.83136321389E+02 -0.10746475444E+03  0.18585791032E+03  0.00000000000E+00 0. -1.
        -12    1    6    6    0    0  0.28983198947E+02 -0.12889232210E+02 -0.52229092926E+02  0.61106761296E+02  0.00000000000E+00 0.  1.
</event>
<event>
12    1  0.8358445E-002  0.1771782E+03  0.7818608E-02  0.1170858E+00
         21   -1    0    0  501  502  0.00000000000E+00  0.00000000000E+00  0.46692175401E+03  0.46692175401E+03  0.00000000000E+00 0. -1.
         21   -1    0    0  502  503 -0.00000000000E+00 -0.00000000000E+00 -0.93321617062E+02  0.93321617062E+02  0.00000000000E+00 0. -1.
         -6    2    1    2    0  503  0.30346840676E+02 -0.26458207375E+02  0.37862280587E+02  0.18117855879E+03  0.17254318415E+03 0.  0.
        -24    2    3    3    0    0  0.16445015173E+02  0.13294768581E+02 -0.40220307725E+02  0.92338587789E+02  0.80383780986E+02 0.  0.
          6    2    1    2  501    0 -0.30346840676E+02  0.26458207375E+02  0.33573785636E+03  0.37906481228E+03  0.17131624629E+03 0.  0.
         24    2    5    5    0    0  0.31114555953E+02  0.55780177502E+02  0.24895092567E+03  0.26865039952E+03  0.78210804719E+02 0.  0.
          5    1    5    5  501    0 -0.61461396629E+02 -0.29321970127E+02  0.86786930685E+02  0.11041441276E+03  0.47000000000E+01 0. -1.
        -11    1    6    6    0    0  0.25935441592E+02  0.68636633318E+02  0.24250946567E+03  0.25336628722E+03  0.00000000000E+00 0.  1.
         12    1    6    6    0    0  0.51791143609E+01 -0.12856455816E+02  0.64414600080E+01  0.15284112298E+02  0.00000000000E+00 0. -1.
         -5    1    3    3    0  503  0.13901825503E+02 -0.39752975956E+02  0.78082588312E+02  0.88839970999E+02  0.47000000000E+01 0.  1.
         13    1    4    4    0    0  0.27173345430E+02 -0.11658475429E+02 -0.54236959013E+02  0.61773444733E+02  0.00000000000E+00 0. -1.
        -14    1    4    4    0    0 -0.10728330257E+02  0.24953244010E+02  0.14016651288E+02  0.30565143056E+02  0.00000000000E+00 0.  1.
</event>
<event>
12    1  0.8358445E-002  0.1749283E+03  0.7818608E-02  0.1172807E+00
         21   -1    0    0  501  502  0.00000000000E+00  0.00000000000E+00  0.11918251702E+04  0.11918251702E+04  0.00000000000E+00 0.  1.
         21   -1    0    0  502  503 -0.00000000000E+00 -0.00000000000E+00 -0.29882746677E+02  0.29882746677E+02  0.00000000000E+00 0. -1.
         -6    2    1    2    0  503  0.19212512743E+02  0.25324316132E+02  0.35171658786E+03  0.39281605517E+03  0.17201585215E+03 0.  0.
        -24    2    3    3    0    0 -0.32931693999E+02  0.24426743984E+02  0.78960066385E+02  0.11507870813E+03  0.72988044846E+02 0.  0.
          6    2    1    2  501    0 -0.19212512743E+02 -0.25324316132E+02  0.81022583565E+03  0.82889186169E+03  0.17200398831E+03 0.  0.
         24    2    5    5    0    0  0.35235820580E+02 -0.20078822902E+02  0.24356030580E+03  0.25957292742E+03  0.80073465690E+02 0.  0.
          5    1    5    5  501    0 -0.54448333323E+02 -0.52454932302E+01  0.56666552985E+03  0.56931893427E+03  0.47000000000E+01 0. -1.
        -11    1    6    6    0    0  0.35423051672E+02  0.50831871498E+01  0.22617471462E+03  0.22898828118E+03  0.00000000000E+00 0.  1.
         12    1    6    6    0    0 -0.18723109189E+00 -0.25162010052E+02  0.17385591177E+02  0.30584646245E+02  0.00000000000E+00 0. -1.
         -5    1    3    3    0  503  0.52144206742E+02  0.89757214819E+00  0.27275652148E+03  0.27773734704E+03  0.47000000000E+01 0.  1.
         13    1    4    4    0    0 -0.19559802657E+02  0.36880989643E+02  0.89133720912E+01  0.42687720471E+02  0.00000000000E+00 0. -1.
        -14    1    4    4    0    0 -0.13371891342E+02 -0.12454245659E+02  0.70046694293E+02  0.72390987660E+02  0.00000000000E+00 0.  1.
</event>
<event>
12    1  0.8358445E-002  0.2000283E+03  0.7818608E-02  0.1149804E+00
         21   -1    0    0  503  502  0.00000000000E+00  0.00000000000E+00  0.68280906238E+03  0.68280906238E+03  0.00000000000E+00 0.  1.
         21   -1    0    0  501  503 -0.00000000000E+00 -0.00000000000E+00 -0.59023293520E+02  0.59023293520E+02  0.00000000000E+00 0.  1.
          6    2    1    2  501    0 -0.20775860503E+01 -0.10068869729E+03  0.27580108005E+03  0.34045391254E+03  0.17233717150E+03 0.  0.
         24    2    3    3    0    0 -0.50556736972E+02 -0.10581184778E+03  0.24500251868E+03  0.28259964625E+03  0.78001250752E+02 0.  0.
         -6    2    1    2    0  502  0.20775860503E+01  0.10068869729E+03  0.34798468881E+03  0.40137844336E+03  0.17282586908E+03 0.  0.
        -24    2    5    5    0    0 -0.50040165061E+02  0.10297725602E+03  0.27046538630E+03  0.30782188430E+03  0.92165361670E+02 0.  0.
          5    1    3    3  501    0  0.48479150922E+02  0.51231504884E+01  0.30798561373E+02  0.57854266288E+02  0.47000000000E+01 0. -1.
        -13    1    4    4    0    0 -0.53375029125E+02 -0.63329180406E+02  0.92019509454E+02  0.12380254014E+03  0.00000000000E+00 0.  1.
         14    1    4    4    0    0  0.28182921532E+01 -0.42482667375E+02  0.15298300923E+03  0.15879710611E+03  0.00000000000E+00 0. -1.
         -5    1    5    5    0  502  0.52117751111E+02 -0.22885587224E+01  0.77519302513E+02  0.93556559065E+02  0.47000000000E+01 0.  1.
         11    1    6    6    0    0 -0.15259378732E+02 -0.11879644285E+02  0.11750203454E+02  0.22628342158E+02  0.00000000000E+00 0. -1.
        -12    1    6    6    0    0 -0.34780786329E+02  0.11485690030E+03  0.25871518284E+03  0.28519354214E+03  0.00000000000E+00 0.  1.
</event>
<event>
12    1  0.8358445E-002  0.2407782E+03  0.7818608E-02  0.1119497E+00
         21   -1    0    0  501  502  0.00000000000E+00  0.00000000000E+00  0.12854852754E+03  0.12854852754E+03  0.00000000000E+00 0. -1.
         21   -1    0    0  502  503 -0.00000000000E+00 -0.00000000000E+00 -0.55392455497E+03  0.55392455497E+03  0.00000000000E+00 0.  1.
         -6    2    1    2    0  503  0.15776008923E+03  0.57896613919E+02 -0.36203496634E+03  0.43479129574E+03  0.17243517722E+03 0.  0.
        -24    2    3    3    0    0  0.28569494314E+02  0.43910543009E+02 -0.23670789289E+03  0.25419565533E+03  0.76422855493E+02 0.  0.
          6    2    1    2  501    0 -0.15776008923E+03 -0.57896613919E+02 -0.63341061100E+02  0.24768178677E+03  0.17056938124E+03 0.  0.
         24    2    5    5    0    0 -0.18796860900E+02 -0.52642670679E+01 -0.55121446900E+02  0.98783852525E+02  0.79616839449E+02 0.  0.
          5    1    5    5  501    0 -0.13896322833E+03 -0.52632346851E+02 -0.82196142002E+01  0.14889793424E+03  0.47000000000E+01 0. -1.
        -11    1    6    6    0    0 -0.48048236635E+02  0.17403708665E+01 -0.47863309471E+02  0.67842157454E+02  0.00000000000E+00 0.  1.
         12    1    6    6    0    0  0.29251375734E+02 -0.70046379344E+01 -0.72581374288E+01  0.30941695071E+02  0.00000000000E+00 0. -1.
         -5    1    3    3    0  503  0.12919059492E+03  0.13986070910E+02 -0.12532707345E+03  0.18059564041E+03  0.47000000000E+01 0.  1.
         11    1    4    4    0    0  0.15248342522E+02  0.60703857773E+02 -0.11803946522E+03  0.13360683234E+03  0.00000000000E+00 0. -1.
        -12    1    4    4    0    0  0.13321151793E+02 -0.16793314764E+02 -0.11866842767E+03  0.12058882299E+03  0.00000000000E+00 0.  1.
</event>
<event>
12    1  0.8358445E-002  0.2074220E+03  0.7818608E-02  0.1143795E+00
         21   -1    0    0  503  502  0.00000000000E+00  0.00000000000E+00  0.22112836092E+03  0.22112836092E+03  0.00000000000E+00 0. -1.
         21   -1    0    0  501  503 -0.00000000000E+00 -0.00000000000E+00 -0.20079014583E+03  0.20079014583E+03  0.00000000000E+00 0.  1.
          6    2    1    2  501    0 -0.92256585018E+02  0.30293153899E+02 -0.29260839590E+02  0.20947575725E+03  0.18328923452E+03 0.  0.
         24    2    3    3    0    0 -0.42128958511E+02  0.46210589726E+01 -0.88738273234E+02  0.12743009612E+03  0.81041624675E+02 0.  0.
         -6    2    1    2    0  502  0.92256585018E+02 -0.30293153899E+02  0.49599054686E+02  0.21244274950E+03  0.18232636380E+03 0.  0.
        -24    2    5    5    0    0  0.12274095359E+03 -0.61786564767E+02  0.54588792388E+02  0.16807926071E+03  0.79923590700E+02 0.  0.
          5    1    3    3  501    0 -0.50127626507E+02  0.25672094927E+02  0.59477433643E+02  0.82045661128E+02  0.47000000000E+01 0. -1.
        -11    1    4    4    0    0 -0.40882587225E+02  0.38515313686E+02 -0.44346469346E+02  0.71564129771E+02  0.00000000000E+00 0.  1.
         12    1    4    4    0    0 -0.12463712867E+01 -0.33894254713E+02 -0.44391803887E+02  0.55865966351E+02  0.00000000000E+00 0. -1.
         -5    1    5    5    0  502 -0.30484368575E+02  0.31493410868E+02 -0.49897377018E+01  0.44363488793E+02  0.47000000000E+01 0.  1.
         13    1    6    6    0    0  0.71901440761E+02 -0.77294223474E+02  0.31837367189E+02  0.11026255990E+03  0.00000000000E+00 0. -1.
        -14    1    6    6    0    0  0.50839512832E+02  0.15507658707E+02  0.22751425199E+02  0.57816700807E+02  0.00000000000E+00 0.  1.
</event>
<event>
12    1  0.8358445E-002  0.2455864E+03  0.7818608E-02  0.1116153E+00
         21   -1    0    0  501  502  0.00000000000E+00  0.00000000000E+00  0.99596505410E+03  0.99596505410E+03  0.00000000000E+00 0.  1.
         21   -1    0    0  502  503 -0.00000000000E+00 -0.00000000000E+00 -0.95246837697E+02  0.95246837697E+02  0.00000000000E+00 0. -1.
         -6    2    1    2    0  503 -0.86094644638E+02  0.15285496095E+03  0.12098994840E+03  0.27377225278E+03  0.17185968654E+03 0.  0.
        -24    2    3    3    0    0 -0.11007026111E+03  0.60564340041E+02  0.65992650945E+02  0.16359429845E+03  0.81391417495E+02 0.  0.
          6    2    1    2  501    0  0.86094644638E+02 -0.15285496095E+03  0.77972826801E+03  0.81743963902E+03  0.17162303045E+03 0.  0.
         24    2    5    5    0    0 -0.81162974056E+01 -0.88731111742E+02  0.26396276664E+03  0.28921268775E+03  0.77643751271E+02 0.  0.
          5    1    5    5  501    0  0.94210942043E+02 -0.64123849209E+02  0.51576550137E+03  0.52822695127E+03  0.47000000000E+01 0. -1.
        -13    1    6    6    0    0  0.32317839260E+02 -0.61298510718E+02  0.15783685655E+03  0.17237872095E+03  0.00000000000E+00 0.  1.
         14    1    6    6    0    0 -0.40434136666E+02 -0.27432601023E+02  0.10612591008E+03  0.11683396680E+03  0.00000000000E+00 0. -1.
         -5    1    3    3    0  503  0.23975616474E+02  0.92290620910E+02  0.54997297453E+02  0.11017795433E+03  0.47000000000E+01 0.  1.
         13    1    4    4    0    0 -0.11376094343E+02  0.47616025378E+02  0.12218450894E+02  0.50457823353E+02  0.00000000000E+00 0. -1.
        -14    1    4    4    0    0 -0.98694166769E+02  0.12948314662E+02  0.53774200052E+02  0.11313647510E+03  0.00000000000E+00 0.  1.
</event>
<event>
12    1  0.8358445E-002  0.2825828E+03  0.7818608E-02  0.1094742E+00
         21   -1    0    0  503  502  0.00000000000E+00  0.00000000000E+00  0.25745707369E+03  0.25745707369E+03  0.00000000000E+00 0.  1.
         21   -1    0    0  501  503 -0.00000000000E+00 -0.00000000000E+00 -0.38688518456E+03  0.38688518456E+03  0.00000000000E+00 0. -1.
          6    2    1    2  501    0 -0.21760557765E+03 -0.32578240910E+02 -0.21187592414E+03  0.35319178268E+03  0.17731186909E+03 0.  0.
         24    2    3    3    0    0 -0.12592483296E+03  0.62005657748E+02 -0.13346493408E+03  0.19982344763E+03  0.49140171429E+02 0.  0.
         -6    2    1    2    0  502  0.21760557765E+03  0.32578240910E+02  0.82447813279E+02  0.29115047557E+03  0.17192273936E+03 0.  0.
        -24    2    5    5    0    0  0.21656827569E+03  0.57168413574E+02  0.10257311191E+03  0.25901217705E+03  0.79975115065E+02 0.  0.
          5    1    3    3  501    0 -0.91680744689E+02 -0.94583898658E+02 -0.78410990067E+02  0.15336833505E+03  0.47000000000E+01 0. -1.
        -11    1    4    4    0    0 -0.39792093263E+02  0.15342224394E+02 -0.13060292665E+02  0.44602306892E+02  0.00000000000E+00 0.  1.
         12    1    4    4    0    0 -0.86132739692E+02  0.46663433354E+02 -0.12040464141E+03  0.15522114074E+03  0.00000000000E+00 0. -1.
         -5    1    5    5    0  502  0.10373019600E+01 -0.24590172663E+02 -0.20125298630E+02  0.32138298522E+02  0.47000000000E+01 0.  1.
         13    1    6    6    0    0  0.10126124727E+02  0.26286762003E+02  0.50647840600E+01  0.28621395776E+02  0.00000000000E+00 0. -1.
        -14    1    6    6    0    0  0.20644215096E+03  0.30881651570E+02  0.97508327849E+02  0.23039078127E+03  0.00000000000E+00 0.  1.
</event>
<event>
12    1  0.8358445E-002  0.1850427E+03  0.7818608E-02  0.1163049E+00
         21   -1    0    0  501  502  0.00000000000E+00  0.00000000000E+00  0.76746387708E+02  0.76746387708E+02  0.00000000000E+00 0. -1.
         21   -1    0    0  502  503 -0.00000000000E+00 -0.00000000000E+00 -0.82041315717E+03  0.82041315717E+03  0.00000000000E+00 0.  1.
         -6    2    1    2    0  503 -0.67978140406E+02  0.37020546936E+01 -0.67488070046E+03  0.69974545669E+03  0.17188662403E+03 0.  0.
        -24    2    3    3    0    0 -0.78827401076E+02 -0.55008996936E+02 -0.43805309421E+03  0.45546263060E+03  0.79472923823E+02 0.  0.
          6    2    1    2  501    0  0.67978140406E+02 -0.37020546936E+01 -0.68786069003E+02  0.19741408819E+03  0.17206413381E+03 0.  0.
         24    2    5    5    0    0  0.10566839573E+03  0.29269213312E+02 -0.42883414879E+02  0.14083938226E+03  0.77293257270E+02 0.  0.
          5    1    5    5  501    0 -0.37690255325E+02 -0.32971268006E+02 -0.25902654125E+02  0.56574705930E+02  0.47000000000E+01 0. -1.
        -13    1    6    6    0    0  0.60189460816E+02  0.24196554738E+02 -0.63384117503E+02  0.90696145487E+02  0.00000000000E+00 0.  1.
         14    1    6    6    0    0  0.45478934915E+02  0.50726585743E+01  0.20500702624E+02  0.50143236773E+02  0.00000000000E+00 0. -1.
         -5    1    3    3    0  503  0.10849260670E+02  0.58711051630E+02 -0.23682760625E+03  0.24428282609E+03  0.47000000000E+01 0.  1.
         13    1    4    4    0    0 -0.28946928794E+02 -0.23297203547E+02 -0.46738020411E+02  0.59708683888E+02  0.00000000000E+00 0. -1.
        -14    1    4    4    0    0 -0.49880472282E+02 -0.31711793389E+02 -0.39131507380E+03  0.39575394671E+03  0.00000000000E+00 0.  1.
</event>
<event>
12    1  0.8358445E-002  0.1858442E+03  0.7818608E-02  0.1162980E+00
         21   -1    0    0  503  502  0.00000000000E+00  0.00000000000E+00  0.64022781850E+02  0.64022781850E+02  0.00000000000E+00 0. -1.
         21   -1    0    0  501  503 -0.00000000000E+00 -0.00000000000E+00 -0.90825736344E+03  0.90825736344E+03  0.00000000000E+00 0.  1.
          6    2    1    2  501    0 -0.60369422168E+02 -0.23355495047E+02 -0.73762278444E+03  0.76067433642E+03  0.17420714018E+03 0.  0.
         24    2    3    3    0    0 -0.49846149861E+01  0.23038350904E+02 -0.15291404720E+03  0.17150011498E+03  0.73986293386E+02 0.  0.
         -6    2    1    2    0  502  0.60369422168E+02  0.23355495047E+02 -0.10661179716E+03  0.21160580887E+03  0.17094150103E+03 0.  0.
        -24    2    5    5    0    0  0.10579124590E+03  0.26216443525E+02 -0.54180151161E+02  0.14201777399E+03  0.73174242252E+02 0.  0.
          5    1    3    3  501    0 -0.55384807182E+02 -0.46393845951E+02 -0.58470873724E+03  0.58917422144E+03  0.47000000000E+01 0. -1.
        -13    1    4    4    0    0  0.45107163208E+01  0.38029154275E+02 -0.14830034933E+03  0.15316512902E+03  0.00000000000E+00 0.  1.
         14    1    4    4    0    0 -0.94953313069E+01 -0.14990803371E+02 -0.46136978759E+01  0.18334985967E+02  0.00000000000E+00 0. -1.
         -5    1    5    5    0  502 -0.45421823729E+02 -0.28609484778E+01 -0.52431645997E+02  0.69588034884E+02  0.47000000000E+01 0.  1.
         13    1    6    6    0    0  0.79823685475E+02  0.83239475903E+00 -0.38052066404E+01  0.79918666414E+02  0.00000000000E+00 0. -1.
        -14    1    6    6    0    0  0.25967560422E+02  0.25384048766E+02 -0.50374944520E+02  0.62099107574E+02  0.00000000000E+00 0.  1.
</event>
<event>
12    1  0.8358445E-002  0.1727464E+03  0.7818608E-02  0.1175359E+00
         21   -1    0    0  503  502  0.00000000000E+00  0.00000000000E+00  0.67216743639E+02  0.67216743639E+02  0.00000000000E+00 0.  1.
         21   -1    0    0  501  503 -0.00000000000E+00 -0.00000000000E+00 -0.44238383051E+03  0.44238383051E+03  0.00000000000E+00 0.  1.
          6    2    1    2  501    0  0.60955277303E+01  0.38175725982E+01 -0.20494836213E+03  0.26803947880E+03  0.17259664462E+03 0.  0.
         24    2    3    3    0    0 -0.23780640264E+02 -0.41423336118E+02 -0.19073485944E+03  0.21179502223E+03  0.78714250379E+02 0.  0.
         -6    2    1    2    0  502 -0.60955277303E+01 -0.38175725982E+01 -0.17021872474E+03  0.24156109535E+03  0.17124724587E+03 0.  0.
        -24    2    5    5    0    0  0.50868357384E+02  0.25352552772E+02 -0.63668912326E+02  0.11717969422E+03  0.80293266382E+02 0.  0.
          5    1    3    3  501    0  0.29876167994E+02  0.45240908716E+02 -0.14213502700E+02  0.56244456567E+02  0.47000000000E+01 0. -1.
        -13    1    4    4    0    0  0.68162115259E+00  0.80319187983E+01 -0.12798276307E+03  0.12823635979E+03  0.00000000000E+00 0.  1.
         14    1    4    4    0    0 -0.24462261416E+02 -0.49455254916E+02 -0.62752096361E+02  0.83558662448E+02  0.00000000000E+00 0. -1.
         -5    1    5    5    0  502 -0.56963885114E+02 -0.29170125371E+02 -0.10654981241E+03  0.12438140113E+03  0.47000000000E+01 0.  1.
         11    1    6    6    0    0 -0.12331258907E+02  0.21441883972E+02 -0.44685978066E+02  0.51074954431E+02  0.00000000000E+00 0. -1.
        -12    1    6    6    0    0  0.63199616291E+02  0.39106688007E+01 -0.18982934261E+02  0.66104739791E+02  0.00000000000E+00 0.  1.
</event>
<event>
12    1  0.8358445E-002  0.1831489E+03  0.7818608E-02  0.1169188E+00
         21   -1    0    0  501  502  0.00000000000E+00  0.00000000000E+00  0.17379637704E+03  0.17379637704E+03  0.00000000000E+00 0.  1.
         21   -1    0    0  502  503 -0.00000000000E+00 -0.00000000000E+00 -0.26366679784E+03  0.26366679784E+03  0.00000000000E+00 0.  1.
         -6    2    1    2    0  503 -0.28802346459E+01 -0.38812379786E+02 -0.17024423376E+03  0.23745445786E+03  0.16089382789E+03 0.  0.
        -24    2    3    3    0    0 -0.44267537882E+02 -0.52046362822E+02 -0.81391080002E+02  0.13843415636E+03  0.88719045032E+02 0.  0.
          6    2    1    2  501    0  0.28802346459E+01  0.38812379786E+02  0.80373812958E+02  0.20000871702E+03  0.17896603169E+03 0.  0.
         24    2    5    5    0    0  0.29690622255E+02 -0.32148462482E+02  0.83646249261E+02  0.12393614076E+03  0.80302025385E+02 0.  0.
          5    1    5    5  501    0 -0.26810387610E+02  0.70960842268E+02 -0.32724363029E+01  0.76072576258E+02  0.47000000000E+01 0. -1.
        -11    1    6    6    0    0 -0.23435908261E+02 -0.29529043623E+02  0.28021088497E+02  0.46972200437E+02  0.00000000000E+00 0.  1.
         12    1    6    6    0    0  0.53126530517E+02 -0.26194188585E+01  0.55625160764E+02  0.76963940322E+02  0.00000000000E+00 0. -1.
         -5    1    3    3    0  503  0.41387303236E+02  0.13233983036E+02 -0.88853153754E+02  0.99020301495E+02  0.47000000000E+01 0.  1.
         11    1    4    4    0    0 -0.25559699311E+02 -0.48566306493E+02 -0.98556716347E+02  0.11280696207E+03  0.00000000000E+00 0. -1.
        -12    1    4    4    0    0 -0.18707838571E+02 -0.34800563288E+01  0.17165636345E+02  0.25627194290E+02  0.00000000000E+00 0.  1.
</event>
<event>
12    1  0.8358445E-002  0.2153261E+03  0.7818608E-02  0.1137466E+00
         21   -1    0    0  501  502  0.00000000000E+00  0.00000000000E+00  0.75666486371E+02  0.75666486371E+02  0.00000000000E+00 0. -1.
         21   -1    0    0  502  503 -0.00000000000E+00 -0.00000000000E+00 -0.65092997857E+03  0.65092997857E+03  0.00000000000E+00 0.  1.
         -6    2    1    2    0  503  0.11880194536E+03  0.48363303899E+02 -0.37629033226E+03  0.43341453318E+03  0.17262917491E+03 0.  0.
        -24    2    3    3    0    0  0.12475704928E+03  0.46707972108E+02 -0.18623980910E+03  0.24320545153E+03  0.81961388211E+02 0.  0.
          6    2    1    2  501    0 -0.11880194536E+03 -0.48363303899E+02 -0.19897315994E+03  0.29318193176E+03  0.17295206085E+03 0.  0.
         24    2    5    5    0    0 -0.84393110680E+02 -0.15089194765E+02 -0.21179499504E+03  0.24340619773E+03  0.83902182569E+02 0.  0.
          5    1    5    5  501    0 -0.34408834685E+02 -0.33274109134E+02  0.12821835105E+02  0.49775734033E+02  0.47000000000E+01 0. -1.
        -13    1    6    6    0    0 -0.12384853433E+02  0.75868915359E+00 -0.13981705649E+03  0.14036655403E+03  0.00000000000E+00 0.  1.
         14    1    6    6    0    0 -0.72008257247E+02 -0.15847883919E+02 -0.71977938554E+02  0.10303964371E+03  0.00000000000E+00 0. -1.
         -5    1    3    3    0  503 -0.59551039191E+01  0.16553317909E+01 -0.19005052316E+03  0.19020908164E+03  0.47000000000E+01 0.  1.
         13    1    4    4    0    0  0.87531543715E+02 -0.82534890176E+01 -0.86065996930E+02  0.12303352004E+03  0.00000000000E+00 0. -1.
        -14    1    4    4    0    0  0.37225505569E+02  0.54961461126E+02 -0.10017381217E+03  0.12017193149E+03  0.00000000000E+00 0.  1.
</event>
<event>
12    1  0.8358445E-002  0.4123385E+03  0.7818608E-02  0.1039641E+00
         21   -1    0    0  503  502  0.00000000000E+00  0.00000000000E+00  0.19757070931E+03  0.19757070931E+03  0.00000000000E+00 0. -1.
         21   -1    0    0  501  503 -0.00000000000E+00 -0.00000000000E+00 -0.97259199507E+03  0.97259199507E+03  0.00000000000E+00 0. -1.
          6    2    1    2  501    0  0.22360534072E+03 -0.30046286064E+03 -0.18752405283E+03  0.45240506504E+03  0.17096138004E+03 0.  0.
         24    2    3    3    0    0  0.83953754368E+02 -0.85870561916E+02 -0.44224525796E+01  0.13760241852E+03  0.67028958072E+02 0.  0.
         -6    2    1    2    0  502 -0.22360534072E+03  0.30046286064E+03 -0.58749723293E+03  0.71775763933E+03  0.17246956570E+03 0.  0.
        -24    2    5    5    0    0 -0.16433576722E+03  0.22820182386E+03 -0.53796033053E+03  0.61187782785E+03  0.76882001751E+02 0.  0.
          5    1    3    3  501    0  0.13965158635E+03 -0.21459229873E+03 -0.18310160025E+03  0.31480264652E+03  0.47000000000E+01 0. -1.
        -11    1    4    4    0    0  0.48639832509E+02 -0.87852060500E+02 -0.12865973606E+02  0.10123907900E+03  0.00000000000E+00 0.  1.
         12    1    4    4    0    0  0.35313921859E+02  0.19814985841E+01  0.84435210262E+01  0.36363339519E+02  0.00000000000E+00 0. -1.
         -5    1    5    5    0  502 -0.59269573494E+02  0.72261036781E+02 -0.49536902400E+02  0.10587981148E+03  0.47000000000E+01 0.  1.
         13    1    6    6    0    0 -0.12038005246E+03  0.18770824394E+03 -0.35330796861E+03  0.41779452193E+03  0.00000000000E+00 0. -1.
        -14    1    6    6    0    0 -0.43955714763E+02  0.40493579925E+02 -0.18465236192E+03  0.19408330593E+03  0.00000000000E+00 0.  1.
</event>
<event>
12    1  0.8358445E-002  0.2160864E+03  0.7818608E-02  0.1137387E+00
         21   -1    0    0  501  502  0.00000000000E+00  0.00000000000E+00  0.40950761101E+03  0.40950761101E+03  0.00000000000E+00 0. -1.
         21   -1    0    0  502  503 -0.00000000000E+00 -0.00000000000E+00 -0.12357894198E+03  0.12357894198E+03  0.00000000000E+00 0. -1.
         -6    2    1    2    0  503 -0.12715500335E+03 -0.16616885824E+02  0.62325331147E+02  0.22213354363E+03  0.17033598719E+03 0.  0.
        -24    2    3    3    0    0 -0.14534897504E+03  0.25696730444E+02  0.53984977328E+02  0.17508979559E+03  0.77171317469E+02 0.  0.
          6    2    1    2  501    0  0.12715500335E+03  0.16616885824E+02  0.22360333788E+03  0.31095300936E+03  0.17392183746E+03 0.  0.
         24    2    5    5    0    0  0.12172500771E+03 -0.40413845287E+02  0.19560690751E+03  0.24701648414E+03  0.79402926749E+02 0.  0.
          5    1    5    5  501    0  0.54299956340E+01  0.57030731111E+02  0.27996430370E+02  0.63936525219E+02  0.47000000000E+01 0. -1.
        -11    1    6    6    0    0  0.73551945998E+01  0.16328901567E+02  0.51313525719E+02  0.54348963520E+02  0.00000000000E+00 0.  1.
         12    1    6    6    0    0  0.11436981311E+03 -0.56742746854E+02  0.14429338179E+03  0.19266752062E+03  0.00000000000E+00 0. -1.
         -5    1    3    3    0  503  0.18193971697E+02 -0.42313616269E+02  0.83403538188E+01  0.47043748040E+02  0.47000000000E+01 0.  1.
         11    1    4    4    0    0 -0.53487508308E+02  0.23517145843E+02 -0.14840759997E+02  0.60284474376E+02  0.00000000000E+00 0. -1.
        -12    1    4    4    0    0 -0.91861466736E+02  0.21795846016E+01  0.68825737325E+02  0.11480532121E+03  0.00000000000E+00 0.  1.
</event>
<event>
12    1  0.8358445E-002  0.2141702E+03  0.7818608E-02  0.1138354E+00
         21   -1    0    0  503  502  0.00000000000E+00  0.00000000000E+00  0.28281200667E+03  0.28281200667E+03  0.00000000000E+00 0.  1.
         21   -1    0    0  501  503 -0.00000000000E+00 -0.00000000000E+00 -0.30220871147E+03  0.30220871147E+03  0.00000000000E+00 0.  1.
          6    2    1    2  501    0 -0.12464639535E+03 -0.87716989662E+01 -0.20893687986E+03  0.29902358173E+03  0.17362838503E+03 0.  0.
         24    2    3    3    0    0 -0.12854021506E+03 -0.39207664558E+02 -0.21652914491E+03  0.26706669950E+03  0.79874423550E+02 0.  0.
         -6    2    1    2    0  502  0.12464639535E+03  0.87716989662E+01  0.18954017506E+03  0.28599713641E+03  0.17394026991E+03 0.  0.
        -24    2    5    5    0    0  0.41683230431E+02  0.66618498813E+02  0.10891972852E+03  0.15657192486E+03  0.80472009472E+02 0.  0.
          5    1    3    3  501    0  0.38938197140E+01  0.30435965592E+02  0.75922650460E+01  0.31956882232E+02  0.47000000000E+01 0. -1.
        -13    1    4    4    0    0 -0.10665333315E+03 -0.54806366117E+00 -0.18139811949E+03  0.21042935062E+03  0.00000000000E+00 0.  1.
         14    1    4    4    0    0 -0.21886881908E+02 -0.38659600897E+02 -0.35131025416E+02  0.56637348878E+02  0.00000000000E+00 0. -1.
         -5    1    5    5    0  502  0.82963164916E+02 -0.57846799847E+02  0.80620446541E+02  0.12942521155E+03  0.47000000000E+01 0.  1.
         13    1    6    6    0    0 -0.14882109073E+02 -0.79754638025E+01  0.28647896903E+02  0.33253378630E+02  0.00000000000E+00 0. -1.
        -14    1    6    6    0    0  0.56565339504E+02  0.74593962616E+02  0.80271831618E+02  0.12331854623E+03  0.00000000000E+00 0.  1.
</event>
<event>
12    1  0.8358445E-002  0.2623128E+03  0.7818608E-02  0.1105782E+00
         21   -1    0    0  503  502  0.00000000000E+00  0.00000000000E+00  0.39881124160E+03  0.39881124160E+03  0.00000000000E+00 0. -1.
         21   -1    0    0  501  503 -0.00000000000E+00 -0.00000000000E+00 -0.32103164390E+03  0.32103164390E+03  0.00000000000E+00 0.  1.
          6    2    1    2  501    0 -0.24606541397E+02  0.19690857994E+03 -0.20597951906E+03  0.33341407513E+03  0.17134442648E+03 0.  0.
         24    2    3    3    0    0  0.33117278407E+01  0.20409977439E+03 -0.20998548922E+03  0.30393050629E+03  0.81315198596E+02 0.  0.
         -6    2    1    2    0  502  0.24606541397E+02 -0.19690857994E+03  0.28375911676E+03  0.38642881037E+03  0.17155033782E+03 0.  0.
        -24    2    5    5    0    0  0.47923080893E+02 -0.21378817923E+03  0.25047745068E+03  0.34217566152E+03  0.79644351810E+02 0.  0.
          5    1    3    3  501    0 -0.27918269238E+02 -0.71911944453E+01  0.40059701584E+01  0.29483568842E+02  0.47000000000E+01 0. -1.
        -13    1    4    4    0    0 -0.60142053430E+01 -0.31298261214E+01 -0.25290966791E+02  0.26183954603E+02  0.00000000000E+00 0.  1.
         14    1    4    4    0    0  0.93259331838E+01  0.20722960051E+03 -0.18469452243E+03  0.27774655168E+03  0.00000000000E+00 0. -1.
         -5    1    5    5    0  502 -0.23316539496E+02  0.16879599289E+02  0.33281666081E+02  0.44253148853E+02  0.47000000000E+01 0.  1.
         11    1    6    6    0    0 -0.46004303249E+01 -0.12076865838E+03  0.95921728121E+02  0.15429585455E+03  0.00000000000E+00 0. -1.
        -12    1    6    6    0    0  0.52523511218E+02 -0.93019520849E+02  0.15455572256E+03  0.18787980696E+03  0.00000000000E+00 0.  1.
</event>
<event>
12    1  0.8358445E-002  0.2144561E+03  0.7818608E-02  0.1138827E+00
         21   -1    0    0  501  502  0.00000000000E+00  0.00000000000E+00  0.95689776320E+02  0.95689776320E+02  0.00000000000E+00 0.  1.
         21   -1    0    0  502  503 -0.00000000000E+00 -0.00000000000E+00 -0.67728293768E+03  0.67728293768E+03  0.00000000000E+00 0.  1.
         -6    2    1    2    0  503  0.12122923557E+03 -0.39212175963E+02 -0.50532567747E+03  0.54894940239E+03  0.17250299642E+03 0.  0.
        -24    2    3    3    0    0  0.17127214751E+02 -0.13361619850E+01 -0.34233267038E+03  0.35181839638E+03  0.79305737515E+02 0.  0.
          6    2    1    2  501    0 -0.12122923557E+03  0.39212175963E+02 -0.76267483890E+02  0.22402331161E+03  0.16773667680E+03 0.  0.
         24    2    5    5    0    0 -0.15268930130E+03  0.23136660455E+02 -0.56164757941E+02  0.18310427539E+03  0.80767368666E+02 0.  0.
          5    1    5    5  501    0  0.31460065734E+02  0.16075515508E+02 -0.20102725949E+02  0.40919036223E+02  0.47000000000E+01 0. -1.
        -13    1    6    6    0    0 -0.58710202263E+02 -0.21790554643E+02  0.41068743134E+01  0.62758127267E+02  0.00000000000E+00 0.  1.
         14    1    6    6    0    0 -0.93979099039E+02  0.44927215098E+02 -0.60271632254E+02  0.12034614812E+03  0.00000000000E+00 0. -1.
         -5    1    3    3    0  503  0.10410202082E+03 -0.37876013978E+02 -0.16299300709E+03  0.19713100602E+03  0.47000000000E+01 0.  1.
         11    1    4    4    0    0 -0.30716239606E+02 -0.95744887929E+01 -0.11922553091E+03  0.12349042648E+03  0.00000000000E+00 0. -1.
        -12    1    4    4    0    0  0.47843454356E+02  0.82383268079E+01 -0.22310713947E+03  0.22832796990E+03  0.00000000000E+00 0.  1.
</event>
<event>
12    1  0.8358445E-002  0.2096442E+03  0.7818608E-02  0.1141917E+00
         21   -1    0    0  503  502  0.00000000000E+00  0.00000000000E+00  0.13139568664E+03  0.13139568664E+03  0.00000000000E+00 0.  1.
         21   -1    0    0  501  503 -0.00000000000E+00 -0.00000000000E+00 -0.33395648408E+03  0.33395648408E+03  0.00000000000E+00 0.  1.
          6    2    1    2  501    0 -0.63230307003E+02  0.10185156031E+03 -0.10287336583E+03  0.23321371998E+03  0.17156310130E+03 0.  0.
         24    2    3    3    0    0 -0.89046649829E+02  0.77244708954E+02 -0.21791305248E+02  0.14450987993E+03  0.80698162966E+02 0.  0.
         -6    2    1    2    0  502  0.63230307003E+02 -0.10185156031E+03 -0.99687431602E+02  0.23213845074E+03  0.17198506980E+03 0.  0.
        -24    2    5    5    0    0 -0.14543915152E+02 -0.62425529816E+02 -0.10123032936E+03  0.14480167701E+03  0.81310970007E+02 0.  0.
          5    1    3    3  501    0  0.25816342827E+02  0.24606851357E+02 -0.81082060583E+02  0.88703840047E+02  0.47000000000E+01 0. -1.
        -11    1    4    4    0    0 -0.10147090981E+03  0.71937926643E+02 -0.30963765480E+02  0.12818020752E+03  0.00000000000E+00 0.  1.
         12    1    4    4    0    0  0.12424259976E+02  0.53067823114E+01  0.91724602320E+01  0.16329672414E+02  0.00000000000E+00 0. -1.
         -5    1    5    5    0  502  0.77774222154E+02 -0.39426030496E+02  0.15428977533E+01  0.87336773732E+02  0.47000000000E+01 0.  1.
         13    1    6    6    0    0 -0.44568975248E+02 -0.15931490318E+02 -0.56014603621E+02  0.73333769555E+02  0.00000000000E+00 0. -1.
        -14    1    6    6    0    0  0.30025060096E+02 -0.46494039498E+02 -0.45215725735E+02  0.71467907458E+02  0.00000000000E+00 0.  1.
</event>
<event>
12    1  0.8358445E-002  0.2023355E+03  0.7818608E-02  0.1148774E+00
         21   -1    0    0  503  502  0.00000000000E+00  0.00000000000E+00  0.20381327293E+03  0.20381327293E+03  0.00000000000E+00 0. -1.
         21   -1    0    0  501  503 -0.00000000000E+00 -0.00000000000E+00 -0.24131090395E+03  0.24131090395E+03  0.00000000000E+00 0.  1.
          6    2    1    2  501    0 -0.10344730423E+03  0.17359629962E+02 -0.11476788975E+03  0.22853621227E+03  0.16749456796E+03 0.  0.
         24    2    3    3    0    0 -0.11964508910E+03 -0.27611339266E+01 -0.40390718367E+02  0.14966120357E+03  0.80277609074E+02 0.  0.
         -6    2    1    2    0  502  0.10344730423E+03 -0.17359629962E+02  0.77270258726E+02  0.21658796460E+03  0.17302298120E+03 0.  0.
        -24    2    5    5    0    0  0.12772291677E+03 -0.48381830792E+02  0.42628858059E+02  0.16392109695E+03  0.79993508895E+02 0.  0.
          5    1    3    3  501    0  0.16197784870E+02  0.20120763888E+02 -0.74377171379E+02  0.78875008694E+02  0.47000000000E+01 0. -1.
        -13    1    4    4    0    0 -0.27975937573E+02 -0.44413556640E+01 -0.50008352102E+02  0.57473593965E+02  0.00000000000E+00 0.  1.
         14    1    4    4    0    0 -0.91669151527E+02  0.16802217374E+01  0.96176337350E+01  0.92187609609E+02  0.00000000000E+00 0. -1.
         -5    1    5    5    0  502 -0.24275612542E+02  0.31022200830E+02  0.34641400667E+02  0.52666867657E+02  0.47000000000E+01 0.  1.
         11    1    6    6    0    0  0.22796549942E+02 -0.26069302927E+02  0.44802640181E+02  0.56626564540E+02  0.00000000000E+00 0. -1.
        -12    1    6    6    0    0  0.10492636683E+03 -0.22312527864E+02 -0.21737821218E+01  0.10729453241E+03  0.00000000000E+00 0.  1.
</event>
<event>
12    1  0.8358445E-002  0.1769567E+03  0.7818608E-02  0.1170922E+00
         21   -1    0    0  503  502  0.00000000000E+00  0.00000000000E+00  0.19113613089E+03  0.19113613089E+03  0.00000000000E+00 0. -1.
         21   -1    0    0  501  503 -0.00000000000E+00 -0.00000000000E+00 -0.16861371282E+03  0.16861371282E+03  0.00000000000E+00 0. -1.
          6    2    1    2  501    0  0.38631532810E+02 -0.12544820162E+01  0.43167444453E+02  0.18159294032E+03  0.17210054811E+03 0.  0.
         24    2    3    3    0    0 -0.31181160129E+02 -0.24833476284E+02 -0.11971396538E+02  0.89440008453E+02  0.79165866923E+02 0.  0.
         -6    2    1    2    0  502 -0.38631532810E+02  0.12544820162E+01 -0.20645026388E+02  0.17815690339E+03  0.17268380370E+03 0.  0.
        -24    2    5    5    0    0  0.44730766144E+02 -0.14226929729E+02  0.48993261058E+00  0.90648483863E+02  0.77547795735E+02 0.  0.
          5    1    3    3  501    0  0.69812692939E+02  0.23578994268E+02  0.55138840990E+02  0.92152931868E+02  0.47000000000E+01 0. -1.
        -11    1    4    4    0    0 -0.21242168658E+02  0.27670317779E+02 -0.10525563828E+01  0.34899628798E+02  0.00000000000E+00 0.  1.
         12    1    4    4    0    0 -0.99389914709E+01 -0.52503794063E+02 -0.10918840155E+02  0.54540379654E+02  0.00000000000E+00 0. -1.
         -5    1    5    5    0  502 -0.83362298954E+02  0.15481411745E+02 -0.21134958999E+02  0.87508419528E+02  0.47000000000E+01 0.  1.
         13    1    6    6    0    0  0.14429574953E+02  0.27838839840E+01 -0.36830981733E+02  0.39654556596E+02  0.00000000000E+00 0. -1.
        -14    1    6    6    0    0  0.30301191190E+02 -0.17010813713E+02  0.37320914344E+02  0.50993927268E+02  0.00000000000E+00 0.  1.
</event>
<event>
12    1  0.8358445E-002  0.2779325E+03  0.7818608E-02  0.1096851E+00
         21   -1    0    0  503  502  0.00000000000E+00  0.00000000000E+00  0.70450074048E+03  0.70450074048E+03  0.00000000000E+00 0. -1.
         21   -1    0    0  501  503 -0.00000000000E+00 -0.00000000000E+00 -0.22854240566E+03  0.22854240566E+03  0.00000000000E+00 0.  1.
          6    2    1    2  501    0 -0.21825082205E+03  0.19922593054E+02 -0.98580550846E+02  0.29489759760E+03  0.17092728578E+03 0.  0.
         24    2    3    3    0    0 -0.49900162039E+02  0.13099753748E+02 -0.79193010668E+02  0.12523185982E+03  0.82157507599E+02 0.  0.
         -6    2    1    2    0  502  0.21825082205E+03 -0.19922593054E+02  0.57453888567E+03  0.63814554854E+03  0.17060034859E+03 0.  0.
        -24    2    5    5    0    0  0.80831878196E+02  0.22896083807E+02  0.36928018870E+03  0.38740538842E+03  0.81590771670E+02 0.  0.
          5    1    3    3  501    0 -0.16835066001E+03  0.68228393059E+01 -0.19387540178E+02  0.16966573778E+03  0.47000000000E+01 0. -1.
        -11    1    4    4    0    0 -0.70994258091E+02  0.59420063479E+01 -0.73240851495E+02  0.10217492084E+03  0.00000000000E+00 0.  1.
         12    1    4    4    0    0  0.21094096052E+02  0.71577473999E+01 -0.59521591731E+01  0.23056938975E+02  0.00000000000E+00 0. -1.
         -5    1    5    5    0  502  0.13741894385E+03 -0.42818676860E+02  0.20525869696E+03  0.25074016012E+03  0.47000000000E+01 0.  1.
         11    1    6    6    0    0  0.57739105746E+02 -0.23516188886E+02  0.15792397465E+03  0.16978456126E+03  0.00000000000E+00 0. -1.
        -12    1    6    6    0    0  0.23092772450E+02  0.46412272693E+02  0.21135621405E+03  0.21762082716E+03  0.00000000000E+00 0.  1.
</event>
<event>
12    1  0.8358445E-002  0.2055159E+03  0.7818608E-02  0.1145730E+00
         21   -1    0    0  501  502  0.00000000000E+00  0.00000000000E+00  0.50036562669E+03  0.50036562669E+03  0.00000000000E+00 0. -1.
         21   -1    0    0  502  503 -0.00000000000E+00 -0.00000000000E+00 -0.98712140208E+02  0.98712140208E+02  0.00000000000E+00 0. -1.
         -6    2    1    2    0  503  0.10542838935E+03 -0.20191771439E+02  0.81281592394E+02  0.21845336852E+03  0.17202419609E+03 0.  0.
        -24    2    3    3    0    0  0.35427065091E+02  0.49986335916E+02  0.63444730258E+02  0.11762978100E+03  0.77832004090E+02 0.  0.
          6    2    1    2  501    0 -0.10542838935E+03  0.20191771439E+02  0.32037189408E+03  0.38062439837E+03  0.17525389925E+03 0.  0.
         24    2    5    5    0    0 -0.14016679914E+02 -0.22355862253E+02  0.64996026964E+02  0.10602409746E+03  0.79500778788E+02 0.  0.
          5    1    5    5  501    0 -0.91411709439E+02  0.42547633692E+02  0.25537586712E+03  0.27460030091E+03  0.47000000000E+01 0. -1.
        -11    1    6    6    0    0 -0.31159641531E+02  0.11842839125E+02  0.33890362149E+01  0.33506143695E+02  0.00000000000E+00 0.  1.
         12    1    6    6    0    0  0.17142961617E+02 -0.34198701377E+02  0.61606990749E+02  0.72517953763E+02  0.00000000000E+00 0. -1.
         -5    1    3    3    0  503  0.70001324262E+02 -0.70178107355E+02  0.17836862136E+02  0.10082358752E+03  0.47000000000E+01 0.  1.
         11    1    4    4    0    0  0.79652371919E+01 -0.12410951675E+02  0.44490321948E+02  0.46870731507E+02  0.00000000000E+00 0. -1.
        -12    1    4    4    0    0  0.27461827899E+02  0.62397287591E+02  0.18954408310E+02  0.70759049490E+02  0.00000000000E+00 0.  1.
</event>
<event>
12    1  0.8358445E-002  0.2341273E+03  0.7818608E-02  0.1124043E+00
         21   -1    0    0  501  502  0.00000000000E+00  0.00000000000E+00  0.86966002960E+03  0.86966002960E+03  0.00000000000E+00 0.  1.
         21   -1    0    0  502  503 -0.00000000000E+00 -0.00000000000E+00 -0.74389249222E+02  0.74389249222E+02  0.00000000000E+00 0.  1.
         -6    2    1    2    0  503 -0.14141632774E+03  0.73544886040E+02  0.21089254651E+03  0.31510514912E+03  0.17148807775E+03 0.  0.
        -24    2    3    3    0    0 -0.12828436565E+03 -0.11536335635E+02  0.11772340166E+03  0.18816483928E+03  0.70407683757E+02 0.  0.
          6    2    1    2  501    0  0.14141632774E+03 -0.73544886040E+02  0.58437823386E+03  0.62894412970E+03  0.16930850558E+03 0.  0.
         24    2    5    5    0    0  0.10512051145E+03 -0.40742401057E+01  0.48317262456E+03  0.50084954636E+03  0.79545971664E+02 0.  0.
          5    1    5    5  501    0  0.36295816287E+02 -0.69470645934E+02  0.10120560931E+03  0.12809458334E+03  0.47000000000E+01 0. -1.
        -13    1    6    6    0    0  0.61714964917E+01 -0.27795623763E+02  0.76088153083E+02  0.81240944781E+02  0.00000000000E+00 0.  1.
         14    1    6    6    0    0  0.98949014962E+02  0.23721383658E+02  0.40708447147E+03  0.41960860158E+03  0.00000000000E+00 0. -1.
         -5    1    3    3    0  503 -0.13131962095E+02  0.85081221675E+02  0.93169144851E+02  0.12694030984E+03  0.47000000000E+01 0.  1.
         13    1    4    4    0    0 -0.14383567787E+02 -0.26039366405E+02  0.38552419342E+02  0.48695222170E+02  0.00000000000E+00 0. -1.
        -14    1    4    4    0    0 -0.11390079786E+03  0.14503030770E+02  0.79170982322E+02  0.13946961711E+03  0.00000000000E+00 0.  1.
</event>
<event>
12    1  0.8358445E-002  0.1901507E+03  0.7818608E-02  0.1158550E+00
         21   -1    0    0  501  502  0.00000000000E+00  0.00000000000E+00  0.27377554085E+03  0.27377554085E+03  0.00000000000E+00 0. -1.
         21   -1    0    0  502  503 -0.00000000000E+00 -0.00000000000E+00 -0.13526416137E+03  0.13526416137E+03  0.00000000000E+00 0.  1.
         -6    2    1    2    0  503  0.65502278200E+02  0.46373344970E+02  0.34422741195E+02  0.19226390113E+03  0.17128761483E+03 0.  0.
        -24    2    3    3    0    0  0.69371037040E+02  0.19407436464E+02  0.83331889980E+02  0.13608274458E+03  0.79908198047E+02 0.  0.
          6    2    1    2  501    0 -0.65502278200E+02 -0.46373344970E+02  0.10408863828E+03  0.21677580109E+03  0.17238407045E+03 0.  0.
         24    2    5    5    0    0 -0.10994189480E+03 -0.23798355010E+02  0.92397411338E+02  0.16536291863E+03  0.78447634143E+02 0.  0.
          5    1    5    5  501    0  0.44439616597E+02 -0.22574989960E+02  0.11691226945E+02  0.51412882457E+02  0.47000000000E+01 0. -1.
        -11    1    6    6    0    0 -0.62048349194E+02 -0.13400893905E+02  0.31652838415E+01  0.63557852520E+02  0.00000000000E+00 0.  1.
         12    1    6    6    0    0 -0.47893545603E+02 -0.10397461105E+02  0.89232127496E+02  0.10180506611E+03  0.00000000000E+00 0. -1.
         -5    1    3    3    0  503 -0.38687588393E+01  0.26965908506E+02 -0.48909148785E+02  0.56181156551E+02  0.47000000000E+01 0.  1.
         13    1    4    4    0    0  0.74975153552E+01 -0.24202674520E+02  0.26919519393E+01  0.25479968518E+02  0.00000000000E+00 0. -1.
        -14    1    4    4    0    0  0.61873521684E+02  0.43610110984E+02  0.80639938040E+02  0.11060277606E+03  0.00000000000E+00 0.  1.
</event>
<event>
12    1  0.8358445E-002  0.1778559E+03  0.7818608E-02  0.1170231E+00
         21   -1    0    0  503  502  0.00000000000E+00  0.00000000000E+00  0.14534052909E+03  0.14534052909E+03  0.00000000000E+00 0. -1.
         21   -1    0    0  501  503 -0.00000000000E+00 -0.00000000000E+00 -0.58059084247E+03  0.58059084247E+03  0.00000000000E+00 0. -1.
          6    2    1    2  501    0  0.43317496089E+02  0.15336157994E+02 -0.50494987499E+03  0.53490587551E+03  0.17040632675E+03 0.  0.
         24    2    3    3    0    0 -0.82347353117E+01 -0.44299894579E+02 -0.20183362720E+03  0.22167171230E+03  0.79820069158E+02 0.  0.
         -6    2    1    2    0  502 -0.43317496089E+02 -0.15336157994E+02  0.69699561599E+02  0.19102549605E+03  0.17181707728E+03 0.  0.
        -24    2    5    5    0    0  0.18592052965E+02 -0.55442688651E+02  0.58702041170E+02  0.11629691035E+03  0.81605671128E+02 0.  0.
          5    1    3    3  501    0  0.51552231401E+02  0.59636052573E+02 -0.30311624779E+03  0.31323416321E+03  0.47000000000E+01 0. -1.
        -13    1    4    4    0    0  0.22245705696E+02  0.11815455628E+02 -0.35736133209E+02  0.43721249186E+02  0.00000000000E+00 0.  1.
         14    1    4    4    0    0 -0.30480441008E+02 -0.56115350207E+02 -0.16609749399E+03  0.17795046311E+03  0.00000000000E+00 0. -1.
         -5    1    5    5    0  502 -0.61909549054E+02  0.40106530657E+02  0.10997520429E+02  0.74728585702E+02  0.47000000000E+01 0.  1.
         11    1    6    6    0    0 -0.22086626210E+01  0.19839423245E+02  0.22900249990E+02  0.30379308005E+02  0.00000000000E+00 0. -1.
        -12    1    6    6    0    0  0.20800715586E+02 -0.75282111896E+02  0.35801791180E+02  0.85917602341E+02  0.00000000000E+00 0.  1.
</event>
<event>
12    1  0.8358445E-002  0.1722130E+03  0.7818608E-02  0.1176090E+00
         21   -1    0    0  501  502  0.00000000000E+00  0.00000000000E+00  0.62517312590E+02  0.62517312590E+02  0.00000000000E+00 0. -1.
         21   -1    0    0  502  503 -0.00000000000E+00 -0.00000000000E+00 -0.12499980995E+04  0.12499980995E+04  0.00000000000E+00 0. -1.
         -6    2    1    2    0  503  0.20603195565E+02 -0.27078600412E+01 -0.11138935535E+04  0.11271273980E+04  0.17095466782E+03 0.  0.
        -24    2    3    3    0    0  0.17250491983E+02 -0.44979178391E+02 -0.10189614794E+04  0.10230490924E+04  0.77628880746E+02 0.  0.
          6    2    1    2  501    0 -0.20603195565E+02  0.27078600412E+01 -0.73587233361E+02  0.18538801412E+03  0.16888401550E+03 0.  0.
         24    2    5    5    0    0 -0.56745591112E+02  0.49876324261E+02 -0.71497058099E+02  0.12574243083E+03  0.70651396040E+02 0.  0.
          5    1    5    5  501    0  0.36142395548E+02 -0.47168464220E+02 -0.20901752620E+01  0.59645583285E+02  0.47000000000E+01 0. -1.
        -13    1    6    6    0    0 -0.41597743827E+02  0.37300823154E+01 -0.64256710964E+02  0.76636875651E+02  0.00000000000E+00 0.  1.
         14    1    6    6    0    0 -0.15147847286E+02  0.46146241945E+02 -0.72403471346E+01  0.49105555182E+02  0.00000000000E+00 0. -1.
         -5    1    3    3    0  503  0.33527035819E+01  0.42271318350E+02 -0.94932074197E+02  0.10407830556E+03  0.47000000000E+01 0.  1.
         11    1    4    4    0    0  0.43301858088E+02 -0.37798336619E+02 -0.48321260566E+03  0.48661914002E+03  0.00000000000E+00 0. -1.
        -12    1    4    4    0    0 -0.26051366105E+02 -0.71808417716E+01 -0.53574887369E+03  0.53642995239E+03  0.00000000000E+00 0.  1.
</event>
<event>
12    1  0.8358445E-002  0.2067175E+03  0.7818608E-02  0.1145821E+00
         21   -1    0    0  503  502  0.00000000000E+00  0.00000000000E+00  0.25703037074E+02  0.25703037074E+02  0.00000000000E+00 0.  1.
         21   -1    0    0  501  503 -0.00000000000E+00 -0.00000000000E+00 -0.21742941418E+04  0.21742941418E+04  0.00000000000E+00 0. -1.
          6    2    1    2  501    0  0.77003446813E+02 -0.89472883557E+02 -0.16550972848E+04  0.16679565755E+04  0.16969734194E+03 0.  0.
         24    2    3    3    0    0 -0.90305209797E+01 -0.33315424799E+02 -0.43831000821E+03  0.44683050900E+03  0.79689225366E+02 0.  0.
         -6    2    1    2    0  502 -0.77003446813E+02  0.89472883557E+02 -0.49349381988E+03  0.53204060333E+03  0.15998789212E+03 0.  0.
        -24    2    5    5    0    0 -0.22724224750E+02 -0.50203969669E+01 -0.15232506548E+03  0.17385989058E+03  0.80515471821E+02 0.  0.
          5    1    3    3  501    0  0.86033967793E+02 -0.56157458759E+02 -0.12167872766E+04  0.12211260665E+04  0.47000000000E+01 0. -1.
        -11    1    4    4    0    0  0.28651888070E+02 -0.17785393456E+02 -0.31844694726E+03  0.32022758959E+03  0.00000000000E+00 0.  1.
         12    1    4    4    0    0 -0.37682409050E+02 -0.15530031342E+02 -0.11986306095E+03  0.12660291942E+03  0.00000000000E+00 0. -1.
         -5    1    5    5    0  502 -0.54279222063E+02  0.94493280524E+02 -0.34116875440E+03  0.35818071275E+03  0.47000000000E+01 0.  1.
         13    1    6    6    0    0 -0.69666473063E+01  0.53264184853E+01 -0.15462114605E+03  0.15486963458E+03  0.00000000000E+00 0. -1.
        -14    1    6    6    0    0 -0.15757577444E+02 -0.10346815452E+02  0.22960805721E+01  0.18990255999E+02  0.00000000000E+00 0.  1.
</event>
<event>
12    1  0.8358445E-002  0.2408351E+03  0.7818608E-02  0.1119273E+00
         21   -1    0    0  501  502  0.00000000000E+00  0.00000000000E+00  0.86834088069E+03  0.86834088069E+03  0.00000000000E+00 0.  1.
         21   -1    0    0  502  503 -0.00000000000E+00 -0.00000000000E+00 -0.71161809363E+02  0.71161809363E+02  0.00000000000E+00 0. -1.
         -6    2    1    2    0  503  0.16831800727E+03 -0.29467875565E+01  0.28161162866E+03  0.37054909669E+03  0.17222627131E+03 0.  0.
        -24    2    3    3    0    0  0.14725179910E+03 -0.62282180206E+02  0.18991609811E+03  0.25921790487E+03  0.74589781993E+02 0.  0.
          6    2    1    2  501    0 -0.16831800727E+03  0.29467875565E+01  0.51556744267E+03  0.56895359337E+03  0.17192663650E+03 0.  0.
         24    2    5    5    0    0 -0.10220199510E+03  0.12711923876E+02  0.47030617335E+03  0.48809966673E+03  0.80290392692E+02 0.  0.
          5    1    5    5  501    0 -0.66116012174E+02 -0.97651363198E+01  0.45261269325E+02  0.80853926646E+02  0.47000000000E+01 0. -1.
        -13    1    6    6    0    0 -0.97765638626E+02 -0.14273831130E+02  0.30664368632E+03  0.32216798834E+03  0.00000000000E+00 0.  1.
         14    1    6    6    0    0 -0.44363564705E+01  0.26985755006E+02  0.16366248702E+03  0.16593167838E+03  0.00000000000E+00 0. -1.
         -5    1    3    3    0  503  0.21066208174E+02  0.59335392649E+02  0.91695530548E+02  0.11133119181E+03  0.47000000000E+01 0.  1.
         13    1    4    4    0    0  0.15334724731E+03 -0.47659775390E+02  0.17273739033E+03  0.23584960985E+03  0.00000000000E+00 0. -1.
        -14    1    4    4    0    0 -0.60954482112E+01 -0.14622404815E+02  0.17178707781E+02  0.23368295028E+02  0.00000000000E+00 0.  1.
</event>
<event>
12    1  0.8358445E-002  0.3193066E+03  0.7818608E-02  0.1076072E+00
         21   -1    0    0  501  502  0.00000000000E+00  0.00000000000E+00  0.58415053243E+03  0.58415053243E+03  0.00000000000E+00 0. -1.
         21   -1    0    0  502  503 -0.00000000000E+00 -0.00000000000E+00 -0.17720815462E+03  0.17720815462E+03  0.00000000000E+00 0. -1.
         -6    2    1    2    0  503  0.25950223247E+03  0.68186156011E+02  0.25399735094E+03  0.40731221854E+03  0.17145794983E+03 0.  0.
        -24    2    3    3    0    0  0.19816215034E+03 -0.16114022671E+02  0.14645268753E+03  0.25745538543E+03  0.72849064845E+02 0.  0.
          6    2    1    2  501    0 -0.25950223247E+03 -0.68186156011E+02  0.15294502687E+03  0.35404646851E+03  0.17310678811E+03 0.  0.
         24    2    5    5    0    0 -0.20672589608E+03  0.12551783347E+02  0.88282964441E+02  0.23782586426E+03  0.76642785210E+02 0.  0.
          5    1    5    5  501    0 -0.52776336387E+02 -0.80737939358E+02  0.64662062424E+02  0.11622060425E+03  0.47000000000E+01 0. -1.
        -13    1    6    6    0    0 -0.42536103006E+02 -0.15589453908E+02 -0.71173794022E+01  0.45858567593E+02  0.00000000000E+00 0.  1.
         14    1    6    6    0    0 -0.16418979308E+03  0.28141237255E+02  0.95400343843E+02  0.19196729667E+03  0.00000000000E+00 0. -1.
         -5    1    3    3    0  503  0.61340082131E+02  0.84300178683E+02  0.10754466341E+03  0.14985683311E+03  0.47000000000E+01 0.  1.
         11    1    4    4    0    0  0.65419987338E+02  0.27790415212E+02  0.38651814183E+02  0.80907630422E+02  0.00000000000E+00 0. -1.
        -12    1    4    4    0    0  0.13274216300E+03 -0.43904437883E+02  0.10780087334E+03  0.17654775501E+03  0.00000000000E+00 0.  1.
</event>
<event>
12    1  0.8358445E-002  0.2342905E+03  0.7818608E-02  0.1123753E+00
         21   -1    0    0  501  502  0.00000000000E+00  0.00000000000E+00  0.41862913909E+03  0.41862913909E+03  0.00000000000E+00 0.  1.
         21   -1    0    0  502  503 -0.00000000000E+00 -0.00000000000E+00 -0.15559643772E+03  0.15559643772E+03  0.00000000000E+00 0.  1.
         -6    2    1    2    0  503  0.39069117904E+02 -0.15410893448E+03  0.16779113113E+02  0.23432430865E+03  0.17131953575E+03 0.  0.
        -24    2    3    3    0    0 -0.63626988824E+01 -0.44157171963E+02 -0.43618259111E+02  0.10082010412E+03  0.79194703695E+02 0.  0.
          6    2    1    2  501    0 -0.39069117904E+02  0.15410893448E+03  0.24625358826E+03  0.33990126816E+03  0.17209323840E+03 0.  0.
         24    2    5    5    0    0 -0.72777130193E+02  0.56529712091E+02  0.84855452022E+02  0.14825215359E+03  0.79285145375E+02 0.  0.
          5    1    5    5  501    0  0.33708012289E+02  0.97579222387E+02  0.16139813624E+03  0.19164911457E+03  0.47000000000E+01 0. -1.
        -13    1    6    6    0    0 -0.42693736301E+02  0.45623243233E+01  0.76364895629E+02  0.87608031635E+02  0.00000000000E+00 0.  1.
         14    1    6    6    0    0 -0.30083393892E+02  0.51967387768E+02  0.84905563931E+01  0.60644121952E+02  0.00000000000E+00 0. -1.
         -5    1    3    3    0  503  0.45431816787E+02 -0.10995176251E+03  0.60397372225E+02  0.13350420453E+03  0.47000000000E+01 0.  1.
         13    1    4    4    0    0  0.31022822437E+02 -0.24813390825E+02 -0.43249386661E+02  0.58725031484E+02  0.00000000000E+00 0. -1.
        -14    1    4    4    0    0 -0.37385521320E+02 -0.19343781139E+02 -0.36887244983E+00  0.42095072633E+02  0.00000000000E+00 0.  1.
</event>
<event>
12    1  0.8358445E-002  0.2070900E+03  0.7818608E-02  0.1145210E+00
         21   -1    0    0  501  502  0.00000000000E+00  0.00000000000E+00  0.76193939439E+03  0.76193939439E+03  0.00000000000E+00 0. -1.
         21   -1    0    0  502  503 -0.00000000000E+00 -0.00000000000E+00 -0.67086713209E+02  0.67086713209E+02  0.00000000000E+00 0.  1.
         -6    2    1    2    0  503  0.10313481577E+03 -0.58541372248E+01  0.16380356719E+03  0.25902661939E+03  0.17202360240E+03 0.  0.
        -24    2    3    3    0    0  0.11266477442E+03  0.47831871159E+02  0.12960921776E+03  0.19449483543E+03  0.77771796860E+02 0.  0.
          6    2    1    2  501    0 -0.10313481577E+03  0.58541372248E+01  0.53104911399E+03  0.56999948821E+03  0.17948591572E+03 0.  0.
         24    2    5    5    0    0 -0.99293001443E+02  0.37385538134E+02  0.22532189956E+03  0.26259062623E+03  0.83229201394E+02 0.  0.
          5    1    5    5  501    0 -0.38418143291E+01 -0.31531400910E+02  0.30572721443E+03  0.30740886198E+03  0.47000000000E+01 0. -1.
        -11    1    6    6    0    0 -0.89037412284E+02 -0.79481273017E-01  0.11376737538E+03  0.14446689172E+03  0.00000000000E+00 0.  1.
         12    1    6    6    0    0 -0.10255589158E+02  0.37465019407E+02  0.11155452418E+03  0.11812373450E+03  0.00000000000E+00 0. -1.
         -5    1    3    3    0  503 -0.95299586485E+01 -0.53686008383E+02  0.34194349428E+02  0.64531783958E+02  0.47000000000E+01 0.  1.
         13    1    4    4    0    0 -0.61045324871E+01 -0.88179263391E+01  0.14720475970E+01  0.10825343687E+02  0.00000000000E+00 0. -1.
        -14    1    4    4    0    0  0.11876930691E+03  0.56649797498E+02  0.12813717017E+03  0.18366949175E+03  0.00000000000E+00 0.  1.
</event>
<event>
12    1  0.8358445E-002  0.2041516E+03  0.7818608E-02  0.1149298E+00
         21   -1    0    0  503  502  0.00000000000E+00  0.00000000000E+00  0.63653940385E+02  0.63653940385E+02  0.00000000000E+00 0.  1.
         21   -1    0    0  501  503 -0.00000000000E+00 -0.00000000000E+00 -0.89127052057E+03  0.89127052057E+03  0.00000000000E+00 0. -1.
          6    2    1    2  501    0  0.60240325306E+02 -0.55344900079E+02 -0.69196380734E+03  0.72145117643E+03  0.18704527408E+03 0.  0.
         24    2    3    3    0    0  0.43986531415E+02  0.46514570682E+02 -0.38242143385E+03  0.39514134118E+03  0.76105888137E+02 0.  0.
         -6    2    1    2    0  502 -0.60240325306E+02  0.55344900079E+02 -0.13565277285E+03  0.23347328452E+03  0.17151135544E+03 0.  0.
        -24    2    5    5    0    0  0.30436841587E+02  0.50213802012E+02 -0.72914248072E+02  0.12298849256E+03  0.79761234271E+02 0.  0.
          5    1    3    3  501    0  0.16253793891E+02 -0.10185947076E+03 -0.30954237349E+03  0.32630983525E+03  0.47000000000E+01 0. -1.
        -11    1    4    4    0    0 -0.21572107671E+02  0.70176423911E+01 -0.99176331165E+02  0.10173764199E+03  0.00000000000E+00 0.  1.
         12    1    4    4    0    0  0.65558639086E+02  0.39496928291E+02 -0.28324510268E+03  0.29340369919E+03  0.00000000000E+00 0. -1.
         -5    1    5    5    0  502 -0.90677166893E+02  0.51310980665E+01 -0.62738524775E+02  0.11048479196E+03  0.47000000000E+01 0.  1.
         11    1    6    6    0    0 -0.11781404847E+02  0.13165201912E+02 -0.63655033650E+02  0.66061239396E+02  0.00000000000E+00 0. -1.
        -12    1    6    6    0    0  0.42218246434E+02  0.37048600100E+02 -0.92592144228E+01  0.56927253167E+02  0.00000000000E+00 0.  1.
</event>
<event>
12    1  0.8358445E-002  0.1822316E+03  0.7818608E-02  0.1165913E+00
         21   -1    0    0  501  502  0.00000000000E+00  0.00000000000E+00  0.18244502954E+04  0.18244502954E+04  0.00000000000E+00 0.  1.
         21   -1    0    0  502  503 -0.00000000000E+00 -0.00000000000E+00 -0.33189550544E+02  0.33189550544E+02  0.00000000000E+00 0.  1.
         -6    2    1    2    0  503  0.26367919295E+02  0.47205016255E+02  0.27069616146E+03  0.32632001242E+03  0.17402516470E+03 0.  0.
        -24    2    3    3    0    0  0.62080107876E+02  0.68423203040E+02  0.25339818179E+03  0.28107753277E+03  0.79109205466E+02 0.  0.
          6    2    1    2  501    0 -0.26367919295E+02 -0.47205016255E+02  0.15205645834E+04  0.15313198336E+04  0.17291674165E+03 0.  0.
         24    2    5    5    0    0  0.84494812497E+01  0.18891487372E+02  0.11641622097E+04  0.11671416613E+04  0.80732428104E+02 0.  0.
          5    1    5    5  501    0 -0.34817400544E+02 -0.66096503626E+02  0.35640237373E+03  0.36417817229E+03  0.47000000000E+01 0. -1.
        -11    1    6    6    0    0  0.66201130628E+01 -0.78848822879E+01  0.10426470837E+04  0.10426979133E+04  0.00000000000E+00 0.  1.
         12    1    6    6    0    0  0.18293681869E+01  0.26776369660E+02  0.12151512600E+03  0.12444374796E+03  0.00000000000E+00 0. -1.
         -5    1    3    3    0  503 -0.35712188582E+02 -0.21218186785E+02  0.17297979677E+02  0.45242479647E+02  0.47000000000E+01 0.  1.
         11    1    4    4    0    0 -0.31214339740E+01 -0.12802091226E+02  0.10704461114E+02  0.16977113346E+02  0.00000000000E+00 0. -1.
        -12    1    4    4    0    0  0.65201541850E+02  0.81225294266E+02  0.24269372067E+03  0.26410041943E+03  0.00000000000E+00 0.  1.
</event>
<event>
12    1  0.8358445E-002  0.1991197E+03  0.7818608E-02  0.1150583E+00
         21   -1    0    0  503  502  0.00000000000E+00  0.00000000000E+00  0.12391596357E+04  0.12391596357E+04  0.00000000000E+00 0. -1.
         21   -1    0    0  501  503 -0.00000000000E+00 -0.00000000000E+00 -0.38127679968E+02  0.38127679968E+02  0.00000000000E+00 0. -1.
          6    2    1    2  501    0 -0.96965892133E+00 -0.10058010048E+03  0.34344729170E+03  0.39699460213E+03  0.17184695253E+03 0.  0.
         24    2    3    3    0    0 -0.39098378254E+02 -0.37447205384E+01  0.10767422462E+03  0.13923130139E+03  0.79050050766E+02 0.  0.
         -6    2    1    2    0  502  0.96965892133E+00  0.10058010048E+03  0.85758466407E+03  0.88029271358E+03  0.17130822712E+03 0.  0.
        -24    2    5    5    0    0 -0.44603838987E+02  0.37248815458E+01  0.43628109251E+03  0.44557824803E+03  0.78710902947E+02 0.  0.
          5    1    3    3  501    0  0.38128719332E+02 -0.96835379940E+02  0.23577306708E+03  0.25776330074E+03  0.47000000000E+01 0. -1.
        -13    1    4    4    0    0 -0.43213673905E+02 -0.35401964984E+02  0.75359311338E+02  0.93806964253E+02  0.00000000000E+00 0.  1.
         14    1    4    4    0    0  0.41152956512E+01  0.31657244446E+02  0.32314913284E+02  0.45424337141E+02  0.00000000000E+00 0. -1.
         -5    1    5    5    0  502  0.45573497908E+02  0.96855218932E+02  0.42130357156E+03  0.43471446555E+03  0.47000000000E+01 0.  1.
         11    1    6    6    0    0 -0.32952932508E+02  0.38931794281E+02  0.19983560820E+03  0.20624221360E+03  0.00000000000E+00 0. -1.
        -12    1    6    6    0    0 -0.11650906478E+02 -0.35206912735E+02  0.23644548431E+03  0.23933603443E+03  0.00000000000E+00 0.  1.
</event>
<event>
12    1  0.8358445E-002  0.2612311E+03  0.7818608E-02  0.1106711E+00
         21   -1    0    0  501  502  0.00000000000E+00  0.00000000000E+00  0.32570289943E+03  0.32570289943E+03  0.00000000000E+00 0. -1.
         21   -1    0    0  502  503 -0.00000000000E+00 -0.00000000000E+00 -0.20790499921E+03  0.20790499921E+03  0.00000000000E+00 0.  1.
         -6    2    1    2    0  503 -0.66781999546E+02  0.18480212771E+03  0.57191200523E+02  0.26741829113E+03  0.17213380593E+03 0.  0.
        -24    2    3    3    0    0 -0.78260532475E+02  0.18849338866E+03  0.86559233633E+02  0.23532540260E+03  0.78937162783E+02 0.  0.
          6    2    1    2  501    0  0.66781999546E+02 -0.18480212771E+03  0.60606699695E+02  0.26618960752E+03  0.16903275787E+03 0.  0.
         24    2    5    5    0    0  0.71973442860E+01 -0.23215189402E+02 -0.34790287037E+01  0.82369749071E+02  0.78625219476E+02 0.  0.
          5    1    5    5  501    0  0.59584655260E+02 -0.16158693831E+03  0.64085728399E+02  0.18381985845E+03  0.47000000000E+01 0. -1.
        -11    1    6    6    0    0  0.98802341433E+01 -0.26803226759E+02 -0.38010874825E+02  0.47548486794E+02  0.00000000000E+00 0.  1.
         12    1    6    6    0    0 -0.26828898573E+01  0.35880373569E+01  0.34531846121E+02  0.34821262278E+02  0.00000000000E+00 0. -1.
         -5    1    3    3    0  503  0.11478532929E+02 -0.36912609478E+01 -0.29368033110E+02  0.32092888532E+02  0.47000000000E+01 0.  1.
         13    1    4    4    0    0 -0.36075152780E+02  0.13427132931E+02  0.10958771241E+02  0.40022483856E+02  0.00000000000E+00 0. -1.
        -14    1    4    4    0    0 -0.42185379695E+02  0.17506625573E+03  0.75600462392E+02  0.19530291874E+03  0.00000000000E+00 0.  1.
</event>
<event>
12    1  0.8358445E-002  0.2137168E+03  0.7818608E-02  0.1139000E+00
         21   -1    0    0  501  502  0.00000000000E+00  0.00000000000E+00  0.41017931816E+03  0.41017931816E+03  0.00000000000E+00 0.  1.
         21   -1    0    0  502  503 -0.00000000000E+00 -0.00000000000E+00 -0.67254375336E+03  0.67254375336E+03  0.00000000000E+00 0. -1.
         -6    2    1    2    0  503 -0.10124658422E+03 -0.51201881048E+02 -0.62601568172E+03  0.66092088838E+03  0.17902034378E+03 0.  0.
        -24    2    3    3    0    0 -0.13509539485E+03 -0.35428729794E+02 -0.56382202138E+03  0.58822511361E+03  0.92776893051E+02 0.  0.
          6    2    1    2  501    0  0.10124658422E+03  0.51201881048E+02  0.36365124652E+03  0.42180218314E+03  0.18111418819E+03 0.  0.
         24    2    5    5    0    0  0.59935135323E+02 -0.34031472169E+02  0.11310026308E+03  0.15390435632E+03  0.78386987703E+02 0.  0.
          5    1    5    5  501    0  0.41311448894E+02  0.85233353216E+02  0.25055098345E+03  0.26789782682E+03  0.47000000000E+01 0. -1.
        -11    1    6    6    0    0  0.31314580438E+02 -0.46863132017E+02  0.10841534862E+03  0.12219101401E+03  0.00000000000E+00 0.  1.
         12    1    6    6    0    0  0.28620554885E+02  0.12831659848E+02  0.46849144589E+01  0.31713342301E+02  0.00000000000E+00 0. -1.
         -5    1    3    3    0  503  0.33848810633E+02 -0.15773151253E+02 -0.62193660339E+02  0.72695774761E+02  0.47000000000E+01 0.  1.
         13    1    4    4    0    0 -0.61583493688E+02  0.11143276805E+02 -0.37662676077E+03  0.38179106359E+03  0.00000000000E+00 0. -1.
        -14    1    4    4    0    0 -0.73511901162E+02 -0.46572006599E+02 -0.18719526062E+03  0.20643405002E+03  0.00000000000E+00 0.  1.
</event>
<event>
12    1  0.8358445E-002  0.1873206E+03  0.7818608E-02  0.1160978E+00
         21   -1    0    0  501  502  0.00000000000E+00  0.00000000000E+00  0.16383178266E+03  0.16383178266E+03  0.00000000000E+00 0.  1.
         21   -1    0    0  502  503 -0.00000000000E+00 -0.00000000000E+00 -0.32624149464E+03  0.32624149464E+03  0.00000000000E+00 0.  1.
         -6    2    1    2    0  503 -0.44094350556E+02 -0.59525845137E+02 -0.22511434662E+03  0.29285743319E+03  0.17205048425E+03 0.  0.
        -24    2    3    3    0    0 -0.89017070137E+02 -0.23792498225E+02 -0.18560885404E+03  0.22301692374E+03  0.82436520005E+02 0.  0.
          6    2    1    2  501    0  0.44094350556E+02  0.59525845137E+02  0.62704634634E+02  0.19721584411E+03  0.17168162386E+03 0.  0.
         24    2    5    5    0    0 -0.27894439141E-01 -0.29500024876E+02  0.50536640148E+02  0.97003429083E+02  0.77365761230E+02 0.  0.
          5    1    5    5  501    0  0.44122244996E+02  0.89025870012E+02  0.12167994486E+02  0.10021241502E+03  0.47000000000E+01 0. -1.
        -13    1    6    6    0    0 -0.87016553324E+01  0.19591372929E+02  0.40973771789E+02  0.46242736439E+02  0.00000000000E+00 0.  1.
         14    1    6    6    0    0  0.86737608933E+01 -0.49091397805E+02  0.95628683597E+01  0.50760692644E+02  0.00000000000E+00 0. -1.
         -5    1    3    3    0  503  0.44922719580E+02 -0.35733346912E+02 -0.39505492584E+02  0.69840509451E+02  0.47000000000E+01 0.  1.
         11    1    4    4    0    0 -0.84491279988E+02 -0.12254109433E+02 -0.81030794448E+02  0.11770696343E+03  0.00000000000E+00 0. -1.
        -12    1    4    4    0    0 -0.45257901485E+01 -0.11538388792E+02 -0.10457805959E+03  0.10530996031E+03  0.00000000000E+00 0.  1.
</event>
<event>
12    1  0.8358445E-002  0.1863985E+03  0.7818608E-02  0.1162768E+00
         21   -1    0    0  503  502  0.00000000000E+00  0.00000000000E+00  0.17068027957E+03  0.17068027957E+03  0.00000000000E+00 0.  1.
         21   -1    0    0  501  503 -0.00000000000E+00 -0.00000000000E+00 -0.23113428550E+03  0.23113428550E+03  0.00000000000E+00 0.  1.
          6    2    1    2  501    0 -0.62405560911E+02 -0.26006445211E+02 -0.10500775035E+03  0.21016530905E+03  0.16903266036E+03 0.  0.
         24    2    3    3    0    0 -0.13529904920E+02  0.35449001331E+02 -0.94248452282E+02  0.13077101358E+03  0.82332236773E+02 0.  0.
         -6    2    1    2    0  502  0.62405560911E+02  0.26006445211E+02  0.44553744428E+02  0.19164925602E+03  0.17370553234E+03 0.  0.
        -24    2    5    5    0    0  0.70958015134E+01 -0.31900289973E+01  0.85365100386E+02  0.11682105033E+03  0.79368953333E+02 0.  0.
          5    1    3    3  501    0 -0.48875655991E+02 -0.61455446542E+02 -0.10759298070E+02  0.79394295470E+02  0.47000000000E+01 0. -1.
        -11    1    4    4    0    0 -0.22203512543E+02 -0.20633968840E+02 -0.51361535442E+02  0.59638611338E+02  0.00000000000E+00 0.  1.
         12    1    4    4    0    0  0.86736076228E+01  0.56082970171E+02 -0.42886916840E+02  0.71132402240E+02  0.00000000000E+00 0. -1.
         -5    1    5    5    0  502  0.55309759397E+02  0.29196474208E+02 -0.40811355958E+02  0.74828205684E+02  0.47000000000E+01 0.  1.
         13    1    6    6    0    0 -0.14093212059E+02 -0.31263437735E+02  0.13583267697E+02  0.36885313154E+02  0.00000000000E+00 0. -1.
        -14    1    6    6    0    0  0.21189013573E+02  0.28073408738E+02  0.71781832688E+02  0.79935737180E+02  0.00000000000E+00 0.  1.
</event>
<event>
12    1  0.8358445E-002  0.1763321E+03  0.7818608E-02  0.1173158E+00
         21   -1    0    0  501  502  0.00000000000E+00  0.00000000000E+00  0.10826540200E+03  0.10826540200E+03  0.00000000000E+00 0. -1.
         21   -1    0    0  502  503 -0.00000000000E+00 -0.00000000000E+00 -0.89202939416E+03  0.89202939416E+03  0.00000000000E+00 0. -1.
         -6    2    1    2    0  503  0.38102177771E+02  0.67000556251E+01 -0.80505010663E+03  0.82268253809E+03  0.16493701098E+03 0.  0.
        -24    2    3    3    0    0  0.47591175388E+02 -0.25016281886E+01 -0.80304890699E+03  0.80851190434E+03  0.80825579666E+02 0.  0.
          6    2    1    2  501    0 -0.38102177771E+02 -0.67000556251E+01  0.21286114470E+02  0.17761225808E+03  0.17203589409E+03 0.  0.
         24    2    5    5    0    0  0.24404907334E+02 -0.12540232507E+02 -0.36000593230E+02  0.92494103531E+02  0.80661388172E+02 0.  0.
          5    1    5    5  501    0 -0.62507085105E+02  0.58401768818E+01  0.57286707700E+02  0.85118154547E+02  0.47000000000E+01 0. -1.
        -13    1    6    6    0    0  0.77894276583E+01 -0.38626131199E+02 -0.45451804775E+02  0.60154133291E+02  0.00000000000E+00 0.  1.
         14    1    6    6    0    0  0.16615479676E+02  0.26085898692E+02  0.94512115454E+01  0.32339970240E+02  0.00000000000E+00 0. -1.
         -5    1    3    3    0  503 -0.94889976168E+01  0.92016838136E+01 -0.20011996446E+01  0.14170633747E+02  0.47000000000E+01 0.  1.
         13    1    4    4    0    0  0.38987587657E+02 -0.22007383371E+02 -0.19435548819E+03  0.19944526243E+03  0.00000000000E+00 0. -1.
        -14    1    4    4    0    0  0.86035877303E+01  0.19505755183E+02 -0.60869341880E+03  0.60906664191E+03  0.00000000000E+00 0.  1.
</event>
<event>
12    1  0.8358445E-002  0.2501629E+03  0.7818608E-02  0.1113592E+00
         21   -1    0    0  501  502  0.00000000000E+00  0.00000000000E+00  0.32760871529E+03  0.32760871529E+03  0.00000000000E+00 0.  1.
         21   -1    0    0  502  503 -0.00000000000E+00 -0.00000000000E+00 -0.21394384292E+03  0.21394384292E+03  0.00000000000E+00 0. -1.
         -6    2    1    2    0  503 -0.18118681494E+02  0.17842774651E+03  0.14875881710E+03  0.28894009039E+03  0.17085796096E+03 0.  0.
        -24    2    3    3    0    0  0.38837815216E+02  0.54577713917E+02  0.97837644875E+02  0.14334500506E+03  0.80551120251E+02 0.  0.
          6    2    1    2  501    0  0.18118681494E+02 -0.17842774651E+03 -0.35093944731E+02  0.25261246782E+03  0.17440391795E+03 0.  0.
         24    2    5    5    0    0  0.42789523758E+02 -0.11326678912E+03 -0.84016535210E+02  0.16734752376E+03  0.79284971207E+02 0.  0.
          5    1    5    5  501    0 -0.24670842264E+02 -0.65160957391E+02  0.48922590480E+02  0.85264944059E+02  0.47000000000E+01 0. -1.
        -11    1    6    6    0    0  0.25341408720E+02  0.37783785362E+01 -0.86265156953E+01  0.27034790795E+02  0.00000000000E+00 0.  1.
         12    1    6    6    0    0  0.17448115038E+02 -0.11704516766E+03 -0.75390019515E+02  0.14031273297E+03  0.00000000000E+00 0. -1.
         -5    1    3    3    0  503 -0.56956496710E+02  0.12385003259E+03  0.50921172224E+02  0.14559508533E+03  0.47000000000E+01 0.  1.
         13    1    4    4    0    0  0.53901989494E+02  0.21409835114E+02  0.27617524678E+02  0.64238097577E+02  0.00000000000E+00 0. -1.
        -14    1    4    4    0    0 -0.15064174278E+02  0.33167878803E+02  0.70220120197E+02  0.79106907483E+02  0.00000000000E+00 0.  1.
</event>
<event>
12    1  0.8358445E-002  0.1918201E+03  0.7818608E-02  0.1157203E+00
         21   -1    0    0  503  502  0.00000000000E+00  0.00000000000E+00  0.12216622236E+03  0.12216622236E+03  0.00000000000E+00 0. -1.
         21   -1    0    0  501  503 -0.00000000000E+00 -0.00000000000E+00 -0.40962490773E+03  0.40962490773E+03  0.00000000000E+00 0.  1.
          6    2    1    2  501    0 -0.66652749458E+01  0.83840359819E+02 -0.28171447082E+03  0.33988505353E+03  0.17054376188E+03 0.  0.
         24    2    3    3    0    0 -0.57635331003E+02  0.12268092322E+02 -0.17834466002E+03  0.20413549046E+03  0.79950880145E+02 0.  0.
         -6    2    1    2    0  502  0.66652749458E+01 -0.83840359819E+02 -0.57442145503E+01  0.19190607656E+03  0.17239870764E+03 0.  0.
        -24    2    5    5    0    0  0.48814318811E+02 -0.80576349827E+02 -0.48005642050E+02  0.13194513999E+03  0.78927767140E+02 0.  0.
          5    1    3    3  501    0  0.50970056057E+02  0.71572267497E+02 -0.10336981080E+03  0.13574956307E+03  0.47000000000E+01 0. -1.
        -11    1    4    4    0    0  0.25053266010E+01  0.76007140931E+01 -0.11982661397E+03  0.12009356740E+03  0.00000000000E+00 0.  1.
         12    1    4    4    0    0 -0.60140657604E+02  0.46673782285E+01 -0.58518046053E+02  0.84041923053E+02  0.00000000000E+00 0. -1.
         -5    1    5    5    0  502 -0.42149043866E+02 -0.32640099918E+01  0.42261427500E+02  0.59960936570E+02  0.47000000000E+01 0.  1.
         11    1    6    6    0    0  0.37334574063E+02 -0.49264989900E+02  0.12306614611E+02  0.63026680172E+02  0.00000000000E+00 0. -1.
        -12    1    6    6    0    0  0.11479744749E+02 -0.31311359927E+02 -0.60312256662E+02  0.68918459817E+02  0.00000000000E+00 0.  1.
</event>
<event>
12    1  0.8358445E-002  0.1866955E+03  0.7818608E-02  0.1161507E+00
         21   -1    0    0  501  502  0.00000000000E+00  0.00000000000E+00  0.47150106528E+02  0.47150106528E+02  0.00000000000E+00 0.  1.
         21   -1    0    0  502  503 -0.00000000000E+00 -0.00000000000E+00 -0.14174235931E+04  0.14174235931E+04  0.00000000000E+00 0. -1.
         -6    2    1    2    0  503 -0.71345254856E+02 -0.47734755153E+01 -0.11919892902E+04  0.12065213140E+04  0.17245950738E+03 0.  0.
        -24    2    3    3    0    0 -0.92782775311E+02  0.35926228154E+02 -0.61283437660E+03  0.62552343352E+03  0.76251265365E+02 0.  0.
          6    2    1    2  501    0  0.71345254856E+02  0.47734755153E+01 -0.17828419645E+03  0.25805238572E+03  0.17231612697E+03 0.  0.
         24    2    5    5    0    0  0.18697082331E+02  0.66413543681E+02 -0.13349742878E+03  0.16532012255E+03  0.68911825972E+02 0.  0.
          5    1    5    5  501    0  0.52648172525E+02 -0.61640068165E+02 -0.44786767671E+02  0.92732263167E+02  0.47000000000E+01 0. -1.
        -11    1    6    6    0    0 -0.76502678713E+01 -0.67086722182E+01  0.74312080974E+00  0.10202211033E+02  0.00000000000E+00 0.  1.
         12    1    6    6    0    0  0.26347350202E+02  0.73122215899E+02 -0.13424054959E+03  0.15511791152E+03  0.00000000000E+00 0. -1.
         -5    1    3    3    0  503  0.21437520455E+02 -0.40699703669E+02 -0.57915491357E+03  0.58099788043E+03  0.47000000000E+01 0.  1.
         11    1    4    4    0    0 -0.32271982739E+02 -0.23952635661E+02 -0.18972795212E+03  0.19393789067E+03  0.00000000000E+00 0. -1.
        -12    1    4    4    0    0 -0.60510792572E+02  0.59878863815E+02 -0.42310642449E+03  0.43158554284E+03  0.00000000000E+00 0.  1.
</event>
<event>
12    1  0.8358445E-002  0.1958388E+03  0.7818608E-02  0.1153807E+00
         21   -1    0    0  501  502  0.00000000000E+00  0.00000000000E+00  0.73942397001E+03  0.73942397001E+03  0.00000000000E+00 0.  1.
         21   -1    0    0  502  503 -0.00000000000E+00 -0.00000000000E+00 -0.20241571081E+03  0.20241571081E+03  0.00000000000E+00 0. -1.
         -6    2    1    2    0  503 -0.43498280806E+02 -0.79176326945E+02 -0.13804333735E+03  0.23960133065E+03  0.17375800264E+03 0.  0.
        -24    2    3    3    0    0 -0.73515886848E+01  0.16735937853E+02 -0.10291756522E+03  0.13115016303E+03  0.79209864033E+02 0.  0.
          6    2    1    2  501    0  0.43498280806E+02  0.79176326945E+02  0.67505159655E+03  0.70223835017E+03  0.17112291272E+03 0.  0.
         24    2    5    5    0    0  0.79524200553E+02  0.51222229121E+02  0.30967821050E+03  0.33400051980E+03  0.81902002041E+02 0.  0.
          5    1    5    5  501    0 -0.36025919747E+02  0.27954097824E+02  0.36537338605E+03  0.36823783037E+03  0.47000000000E+01 0. -1.
        -11    1    6    6    0    0  0.74096026343E+02  0.63342523075E+02  0.30453974085E+03  0.31976077011E+03  0.00000000000E+00 0.  1.
         12    1    6    6    0    0  0.54281742103E+01 -0.12120293954E+02  0.51384696573E+01  0.14239749689E+02  0.00000000000E+00 0. -1.
         -5    1    3    3    0  503 -0.36146692122E+02 -0.95912264798E+02 -0.35125772124E+02  0.10845116762E+03  0.47000000000E+01 0.  1.
         13    1    4    4    0    0 -0.70715932782E+00 -0.12163349822E+02 -0.10067785807E+03  0.10141241669E+03  0.00000000000E+00 0. -1.
        -14    1    4    4    0    0 -0.66444293570E+01  0.28899287675E+02 -0.22397071560E+01  0.29737746346E+02  0.00000000000E+00 0.  1.
</event>
<event>
12    1  0.8358445E-002  0.2124238E+03  0.7818608E-02  0.1140743E+00
         21   -1    0    0  503  502  0.00000000000E+00  0.00000000000E+00  0.35141163023E+03  0.35141163023E+03  0.00000000000E+00 0.  1.
         21   -1    0    0  501  503 -0.00000000000E+00 -0.00000000000E+00 -0.14519343939E+03  0.14519343939E+03  0.00000000000E+00 0.  1.
          6    2    1    2  501    0  0.11328433088E+03 -0.46966439138E+02  0.11951325606E+02  0.21275968628E+03  0.17344931217E+03 0.  0.
         24    2    3    3    0    0  0.11291621575E+03 -0.68186808639E+02 -0.37963957180E+02  0.15831645854E+03  0.78888062147E+02 0.  0.
         -6    2    1    2    0  502 -0.11328433088E+03  0.46966439138E+02  0.19426686523E+03  0.28384538334E+03  0.16670153177E+03 0.  0.
        -24    2    5    5    0    0 -0.51930783174E+02  0.28436215723E+02  0.21402589060E+02  0.99422567592E+02  0.76950318533E+02 0.  0.
          5    1    3    3  501    0  0.36811512923E+00  0.21220369500E+02  0.49915282786E+02  0.54443227734E+02  0.47000000000E+01 0. -1.
        -11    1    4    4    0    0  0.70037110307E+02 -0.77376023899E+02 -0.45443646840E+02  0.11383044818E+03  0.00000000000E+00 0.  1.
         12    1    4    4    0    0  0.42879105441E+02  0.91892152609E+01  0.74796896599E+01  0.44486010363E+02  0.00000000000E+00 0. -1.
         -5    1    5    5    0  502 -0.61353547703E+02  0.18530223415E+02  0.17286427617E+03  0.18442281575E+03  0.47000000000E+01 0.  1.
         13    1    6    6    0    0 -0.47681691718E+02 -0.17487342723E+02  0.14274915417E+02  0.52755322867E+02  0.00000000000E+00 0. -1.
        -14    1    6    6    0    0 -0.42490914558E+01  0.45923558447E+02  0.71276736428E+01  0.46667244724E+02  0.00000000000E+00 0.  1.
</event>
<event>
12    1  0.8358445E-002  0.2495599E+03  0.7818608E-02  0.1113921E+00
         21   -1    0    0  503  502  0.00000000000E+00  0.00000000000E+00  0.20159710746E+03  0.20159710746E+03  0.00000000000E+00 0. -1.
         21   -1    0    0  501  503 -0.00000000000E+00 -0.00000000000E+00 -0.37722327463E+03  0.37722327463E+03  0.00000000000E+00 0. -1.
          6    2    1    2  501    0  0.17780549244E+03 -0.22488594790E+02 -0.21298765440E+03  0.32647932522E+03  0.17060034827E+03 0.  0.
         24    2    3    3    0    0  0.90870435407E+02 -0.10661568546E+02 -0.31214570300E+02  0.12458547490E+03  0.78588078503E+02 0.  0.
         -6    2    1    2    0  502 -0.17780549244E+03  0.22488594790E+02  0.37361487231E+02  0.25234105688E+03  0.17366519001E+03 0.  0.
        -24    2    5    5    0    0 -0.12687127560E+03  0.82026122220E+02  0.31980773621E+02  0.17366416258E+03  0.79447254104E+02 0.  0.
          5    1    3    3  501    0  0.86935057031E+02 -0.11827026244E+02 -0.18177308410E+03  0.20189385031E+03  0.47000000000E+01 0. -1.
        -13    1    4    4    0    0  0.89805256848E+02  0.16991297741E+02 -0.15323926479E+02  0.92674220144E+02  0.00000000000E+00 0.  1.
         14    1    4    4    0    0  0.10651785585E+01 -0.27652866287E+02 -0.15890643821E+02  0.31911254759E+02  0.00000000000E+00 0. -1.
         -5    1    5    5    0  502 -0.50934216839E+02 -0.59537527430E+02  0.53807136108E+01  0.78676894298E+02  0.47000000000E+01 0.  1.
         13    1    6    6    0    0 -0.87803478285E+01  0.34473966597E+02  0.29693048144E+02  0.46338169892E+02  0.00000000000E+00 0. -1.
        -14    1    6    6    0    0 -0.11809092777E+03  0.47552155623E+02  0.22877254771E+01  0.12732599269E+03  0.00000000000E+00 0.  1.
</event>
<event>
12    1  0.8358445E-002  0.1743893E+03  0.7818608E-02  0.1173810E+00
         21   -1    0    0  503  502  0.00000000000E+00  0.00000000000E+00  0.75955581428E+02  0.75955581428E+02  0.00000000000E+00 0. -1.
         21   -1    0    0  501  503 -0.00000000000E+00 -0.00000000000E+00 -0.62948559386E+03  0.62948559386E+03  0.00000000000E+00 0. -1.
          6    2    1    2  501    0 -0.14518505965E+02  0.12834342883E+02 -0.49240818236E+03  0.52237671746E+03  0.17330928862E+03 0.  0.
         24    2    3    3    0    0 -0.24083918539E+02 -0.57600287803E+02 -0.32841706926E+03  0.34358155675E+03  0.79326455061E+02 0.  0.
         -6    2    1    2    0  502  0.14518505965E+02 -0.12834342883E+02 -0.61121830077E+02  0.18306445783E+03  0.17146781108E+03 0.  0.
        -24    2    5    5    0    0  0.72681997429E+02 -0.77456788956E+01 -0.50187390917E+02  0.12347806509E+03  0.85938292156E+02 0.  0.
          5    1    3    3  501    0  0.95654125738E+01  0.70434630686E+02 -0.16399111310E+03  0.17879516071E+03  0.47000000000E+01 0. -1.
        -13    1    4    4    0    0  0.16871978103E+01  0.19186572732E+02 -0.80353497687E+02  0.82629630280E+02  0.00000000000E+00 0.  1.
         14    1    4    4    0    0 -0.25771116349E+02 -0.76786860535E+02 -0.24806357157E+03  0.26095192647E+03  0.00000000000E+00 0. -1.
         -5    1    5    5    0  502 -0.58163491464E+02 -0.50886639874E+01 -0.10934439160E+02  0.59586392743E+02  0.47000000000E+01 0.  1.
         11    1    6    6    0    0  0.82597465580E+01  0.34155147734E+02 -0.89425881427E+01  0.36259721629E+02  0.00000000000E+00 0. -1.
        -12    1    6    6    0    0  0.64422250871E+02 -0.41900826630E+02 -0.41244802774E+02  0.87218343457E+02  0.00000000000E+00 0.  1.
</event>
<event>
12    1  0.8358445E-002  0.1765963E+03  0.7818608E-02  0.1171642E+00
         21   -1    0    0  501  502  0.00000000000E+00  0.00000000000E+00  0.21621135197E+03  0.21621135197E+03  0.00000000000E+00 0.  1.
         21   -1    0    0  502  503 -0.00000000000E+00 -0.00000000000E+00 -0.23600674540E+03  0.23600674540E+03  0.00000000000E+00 0.  1.
         -6    2    1    2    0  503 -0.16308042678E+01 -0.32070322349E+02 -0.15218001560E+03  0.23312016033E+03  0.17365220099E+03 0.  0.
        -24    2    3    3    0    0  0.63842865117E+02 -0.19706622639E+02 -0.99820962957E+02  0.14824835791E+03  0.86885491169E+02 0.  0.
          6    2    1    2  501    0  0.16308042678E+01  0.32070322349E+02  0.13238462216E+03  0.21909793704E+03  0.17160143569E+03 0.  0.
         24    2    5    5    0    0  0.56421542083E+02  0.14525713440E+02  0.12767188236E+03  0.16118301523E+03  0.79280944056E+02 0.  0.
          5    1    5    5  501    0 -0.54790737815E+02  0.17544608908E+02  0.47127398017E+01  0.57914921812E+02  0.47000000000E+01 0. -1.
        -11    1    6    6    0    0  0.27585624407E+02  0.28687168699E+02  0.12652302946E+02  0.41761239107E+02  0.00000000000E+00 0.  1.
         12    1    6    6    0    0  0.28835917676E+02 -0.14161455259E+02  0.11501957941E+03  0.11942177612E+03  0.00000000000E+00 0. -1.
         -5    1    3    3    0  503 -0.65473669385E+02 -0.12363699709E+02 -0.52359052639E+02  0.84871802423E+02  0.47000000000E+01 0.  1.
         13    1    4    4    0    0  0.59730947377E+02  0.23238154506E+02 -0.74299438347E+02  0.98123414321E+02  0.00000000000E+00 0. -1.
        -14    1    4    4    0    0  0.41119177401E+01 -0.42944777145E+02 -0.25521524610E+02  0.50124943590E+02  0.00000000000E+00 0.  1.
</event>
<event>
12    1  0.8358445E-002  0.2287591E+03  0.7818608E-02  0.1127708E+00
         21   -1    0    0  503  502  0.00000000000E+00  0.00000000000E+00  0.45944675033E+02  0.45944675033E+02  0.00000000000E+00 0.  1.
         21   -1    0    0  501  503 -0.00000000000E+00 -0.00000000000E+00 -0.12423976473E+04  0.12423976473E+04  0.00000000000E+00 0.  1.
          6    2    1    2  501    0 -0.13740493887E+03  0.60568220747E+02 -0.79013161071E+03  0.82258049829E+03  0.17257487460E+03 0.  0.
         24    2    3    3    0    0 -0.52626594734E+02  0.11724649809E+02 -0.60933432965E+03  0.61695265754E+03  0.80219888215E+02 0.  0.
         -6    2    1    2    0  502  0.13740493887E+03 -0.60568220747E+02 -0.40632136156E+03  0.46576182404E+03  0.17113854411E+03 0.  0.
        -24    2    5    5    0    0  0.18591018267E+02 -0.51669451601E+02 -0.22237580773E+03  0.24654961500E+03  0.91215977766E+02 0.  0.
          5    1    3    3  501    0 -0.84778344138E+02  0.48843570938E+02 -0.18079728105E+03  0.20562784075E+03  0.47000000000E+01 0. -1.
        -11    1    4    4    0    0 -0.53092049845E+02  0.39656555912E+02 -0.48580668064E+03  0.49030555691E+03  0.00000000000E+00 0.  1.
         12    1    4    4    0    0  0.46545511100E+00 -0.27931906102E+02 -0.12352764902E+03  0.12664710063E+03  0.00000000000E+00 0. -1.
         -5    1    5    5    0  502  0.11881392061E+03 -0.88987691461E+01 -0.18394555383E+03  0.21921220905E+03  0.47000000000E+01 0.  1.
         11    1    6    6    0    0  0.30971133020E+02 -0.37523301624E+02 -0.22249320910E+03  0.22775082292E+03  0.00000000000E+00 0. -1.
        -12    1    6    6    0    0 -0.12380114753E+02 -0.14146149977E+02  0.11740136317E+00  0.18798792077E+02  0.00000000000E+00 0.  1.
</event>
<event>
12    1  0.8358445E-002  0.2901984E+03  0.7818608E-02  0.1090269E+00
         21   -1    0    0  503  502  0.00000000000E+00  0.00000000000E+00  0.12704996015E+03  0.12704996015E+03  0.00000000000E+00 0. -1.
         21   -1    0    0  501  503 -0.00000000000E+00 -0.00000000000E+00 -0.77133974219E+03  0.77133974219E+03  0.00000000000E+00 0.  1.
          6    2    1    2  501    0  0.16323359174E+03  0.16971171488E+03 -0.15328361451E+03  0.32803705289E+03  0.16930791460E+03 0.  0.
         24    2    3    3    0    0  0.18699315893E+03  0.13465854214E+03 -0.13305546172E+03  0.28087234026E+03  0.89923029156E+02 0.  0.
         -6    2    1    2    0  502 -0.16323359174E+03 -0.16971171488E+03 -0.49100616753E+03  0.57035264945E+03  0.16961077955E+03 0.  0.
        -24    2    5    5    0    0 -0.79427888357E+02 -0.80012431628E+02 -0.38164218963E+03  0.40587794927E+03  0.79845914964E+02 0.  0.
          5    1    3    3  501    0 -0.23759567182E+02  0.35053172742E+02 -0.20228152796E+02  0.47164712630E+02  0.47000000000E+01 0. -1.
        -11    1    4    4    0    0  0.10081902508E+03  0.10799563795E+03 -0.11872998773E+03  0.18953718269E+03  0.00000000000E+00 0.  1.
         12    1    4    4    0    0  0.86174133843E+02  0.26662904195E+02 -0.14325473986E+02  0.91335157571E+02  0.00000000000E+00 0. -1.
         -5    1    5    5    0  502 -0.83805703387E+02 -0.89699283255E+02 -0.10936397791E+03  0.16447470018E+03  0.47000000000E+01 0.  1.
         13    1    6    6    0    0 -0.44073441395E+02  0.31767145442E+01 -0.17188169931E+03  0.17747078156E+03  0.00000000000E+00 0. -1.
        -14    1    6    6    0    0 -0.35354446962E+02 -0.83189146172E+02 -0.20976049032E+03  0.22840716770E+03  0.00000000000E+00 0.  1.
</event>
<event>
12    1  0.8358445E-002  0.2163170E+03  0.7818608E-02  0.1136841E+00
         21   -1    0    0  501  502  0.00000000000E+00  0.00000000000E+00  0.16886494786E+03  0.16886494786E+03  0.00000000000E+00 0.  1.
         21   -1    0    0  502  503 -0.00000000000E+00 -0.00000000000E+00 -0.29007598906E+03  0.29007598906E+03  0.00000000000E+00 0.  1.
         -6    2    1    2    0  503 -0.12545805317E+03  0.37149341212E+02 -0.11148526390E+03  0.24335574792E+03  0.17225927935E+03 0.  0.
        -24    2    3    3    0    0 -0.10596119576E+03  0.22325448301E+02 -0.14717454526E+03  0.19981622503E+03  0.80870120332E+02 0.  0.
          6    2    1    2  501    0  0.12545805317E+03 -0.37149341212E+02 -0.97257772889E+01  0.21558518899E+03  0.17106310623E+03 0.  0.
         24    2    5    5    0    0  0.14759008009E+03 -0.50204043522E+02 -0.35812365388E+02  0.17866836429E+03  0.79602645410E+02 0.  0.
          5    1    5    5  501    0 -0.22132026915E+02  0.13054702310E+02  0.26086588099E+02  0.36916824706E+02  0.47000000000E+01 0. -1.
        -11    1    6    6    0    0  0.14871667053E+03 -0.45963587127E+02 -0.13850635709E+02  0.15627264490E+03  0.00000000000E+00 0.  1.
         12    1    6    6    0    0 -0.11265904389E+01 -0.42404563949E+01 -0.21961729679E+02  0.22395719389E+02  0.00000000000E+00 0. -1.
         -5    1    3    3    0  503 -0.19496857410E+02  0.14823892911E+02  0.35689281360E+02  0.43539522895E+02  0.47000000000E+01 0.  1.
         11    1    4    4    0    0 -0.95581755889E+01  0.25660149525E+02 -0.73509936765E+02  0.78444329288E+02  0.00000000000E+00 0. -1.
        -12    1    4    4    0    0 -0.96403020174E+02 -0.33347012238E+01 -0.73664608498E+02  0.12137189574E+03  0.00000000000E+00 0.  1.
</event>
<event>
12    1  0.8358445E-002  0.1778940E+03  0.7818608E-02  0.1170708E+00
         21   -1    0    0  501  502  0.00000000000E+00  0.00000000000E+00  0.12458320690E+04  0.12458320690E+04  0.00000000000E+00 0.  1.
         21   -1    0    0  502  503 -0.00000000000E+00 -0.00000000000E+00 -0.33270005858E+02  0.33270005858E+02  0.00000000000E+00 0.  1.
         -6    2    1    2    0  503  0.24756592283E+02 -0.21209094176E+02  0.92235341298E+03  0.93870915203E+03  0.17139527158E+03 0.  0.
        -24    2    3    3    0    0  0.79998829981E+02 -0.32866634784E+02  0.66043734770E+03  0.67073579825E+03  0.78923965581E+02 0.  0.
          6    2    1    2  501    0 -0.24756592283E+02  0.21209094176E+02  0.29020865020E+03  0.34039292288E+03  0.17488157923E+03 0.  0.
         24    2    5    5    0    0  0.52089433352E+01  0.77923715828E+02  0.20670003289E+03  0.23498770099E+03  0.79969228100E+02 0.  0.
          5    1    5    5  501    0 -0.29965535618E+02 -0.56714621652E+02  0.83508617317E+02  0.10540522188E+03  0.47000000000E+01 0. -1.
        -11    1    6    6    0    0 -0.26342323420E+02  0.16636405241E+02  0.12130887408E+03  0.12524588182E+03  0.00000000000E+00 0.  1.
         12    1    6    6    0    0  0.31551266755E+02  0.61287310587E+02  0.85391158811E+02  0.10974181917E+03  0.00000000000E+00 0. -1.
         -5    1    3    3    0  503 -0.55242237697E+02  0.11657540608E+02  0.26191606528E+03  0.26797335377E+03  0.47000000000E+01 0.  1.
         13    1    4    4    0    0 -0.68306964105E+01  0.15593974792E+02  0.74469751268E+02  0.76390930856E+02  0.00000000000E+00 0. -1.
        -14    1    4    4    0    0  0.86829526391E+02 -0.48460609576E+02  0.58596759643E+03  0.59434486740E+03  0.00000000000E+00 0.  1.
</event>
<event>
12    1  0.8358445E-002  0.2268275E+03  0.7818608E-02  0.1128976E+00
         21   -1    0    0  503  502  0.00000000000E+00  0.00000000000E+00  0.40951086637E+03  0.40951086637E+03  0.00000000000E+00 0. -1.
         21   -1    0    0  501  503 -0.00000000000E+00 -0.00000000000E+00 -0.12602702103E+03  0.12602702103E+03  0.00000000000E+00 0.  1.
          6    2    1    2  501    0 -0.34481998668E+01 -0.14785549377E+03  0.12274541117E+03  0.25790918616E+03  0.17198132230E+03 0.  0.
         24    2    3    3    0    0  0.48157978694E+02 -0.92103091151E+02  0.24232318240E+02  0.13341642516E+03  0.80066016152E+02 0.  0.
         -6    2    1    2    0  502  0.34481998668E+01  0.14785549377E+03  0.16073843417E+03  0.27762870124E+03  0.17137010945E+03 0.  0.
        -24    2    5    5    0    0 -0.69746446167E+01  0.53941970502E+02  0.15461346388E+03  0.18282368660E+03  0.80998736518E+02 0.  0.
          5    1    3    3  501    0 -0.51606178561E+02 -0.55752402624E+02  0.98513092929E+02  0.12449276100E+03  0.47000000000E+01 0. -1.
        -11    1    4    4    0    0  0.22593143988E+02 -0.53737541850E+02 -0.27215712943E+02  0.64334039127E+02  0.00000000000E+00 0.  1.
         12    1    4    4    0    0  0.25564834706E+02 -0.38365549301E+02  0.51448031184E+02  0.69082386029E+02  0.00000000000E+00 0. -1.
         -5    1    5    5    0  502  0.10422844483E+02  0.93913523272E+02  0.61249702813E+01  0.94805014643E+02  0.47000000000E+01 0.  1.
         13    1    6    6    0    0  0.61592983862E+01  0.70002524359E+02  0.14227860619E+03  0.15868677372E+03  0.00000000000E+00 0. -1.
        -14    1    6    6    0    0 -0.13133943003E+02 -0.16060553857E+02  0.12334857691E+02  0.24136912877E+02  0.00000000000E+00 0.  1.
</event>
<event>
12    1  0.8358445E-002  0.3166424E+03  0.7818608E-02  0.1077234E+00
         21   -1    0    0  501  502  0.00000000000E+00  0.00000000000E+00  0.17831023945E+03  0.17831023945E+03  0.00000000000E+00 0.  1.
         21   -1    0    0  502  503 -0.00000000000E+00 -0.00000000000E+00 -0.62811608100E+03  0.62811608100E+03  0.00000000000E+00 0.  1.
         -6    2    1    2    0  503  0.69684793272E+02 -0.25584882215E+03 -0.35593886371E+03  0.47639785115E+03  0.17305446447E+03 0.  0.
        -24    2    3    3    0    0  0.59020758916E+02 -0.51784527219E+02 -0.75543205502E+02  0.12941114645E+03  0.69823933479E+02 0.  0.
          6    2    1    2  501    0 -0.69684793272E+02  0.25584882215E+03 -0.93866977847E+02  0.33002846929E+03  0.17260704158E+03 0.  0.
         24    2    5    5    0    0 -0.81485221616E+02  0.26888941277E+03 -0.75192243409E+02  0.30394892138E+03  0.88259366065E+02 0.  0.
          5    1    5    5  501    0  0.11800428344E+02 -0.13040590619E+02 -0.18674734438E+02  0.26079547909E+02  0.47000000000E+01 0. -1.
        -11    1    6    6    0    0 -0.38896099087E+02  0.16542913630E+03 -0.87933288368E+02  0.19134254327E+03  0.00000000000E+00 0.  1.
         12    1    6    6    0    0 -0.42589122529E+02  0.10346027647E+03  0.12741044959E+02  0.11260637811E+03  0.00000000000E+00 0. -1.
         -5    1    3    3    0  503  0.10664034356E+02 -0.20406429494E+03 -0.28039565821E+03  0.34698670470E+03  0.47000000000E+01 0.  1.
         13    1    4    4    0    0  0.30291239909E+02 -0.51484568999E+02 -0.13796209450E+02  0.61307058773E+02  0.00000000000E+00 0. -1.
        -14    1    4    4    0    0  0.28729519007E+02 -0.29995822034E+00 -0.61746996052E+02  0.68104087680E+02  0.00000000000E+00 0.  1.
</event>
<event>
12    1  0.8358445E-002  0.2583621E+03  0.7818608E-02  0.1108140E+00
         21   -1    0    0  501  502  0.00000000000E+00  0.00000000000E+00  0.87317774094E+02  0.87317774094E+02  0.00000000000E+00 0. -1.
         21   -1    0    0  502  503 -0.00000000000E+00 -0.00000000000E+00 -0.76571887033E+03  0.76571887033E+03  0.00000000000E+00 0.  1.
         -6    2    1    2    0  503 -0.18283749770E+03  0.62755537437E+02 -0.35753534506E+03  0.44108299203E+03  0.17133264386E+03 0.  0.
        -24    2    3    3    0    0 -0.14675122081E+03 -0.19987969044E+02 -0.24120442883E+03  0.29376130553E+03  0.78617354458E+02 0.  0.
          6    2    1    2  501    0  0.18283749770E+03 -0.62755537437E+02 -0.32086575118E+03  0.41195365240E+03  0.17141520760E+03 0.  0.
         24    2    5    5    0    0  0.52638674461E+02 -0.51235636230E+02 -0.72474045071E+02  0.13123142071E+03  0.81075755341E+02 0.  0.
          5    1    5    5  501    0  0.13019882324E+03 -0.11519901207E+02 -0.24839170611E+03  0.28072223168E+03  0.47000000000E+01 0. -1.
        -13    1    6    6    0    0  0.18243652953E+02 -0.13772781293E+02 -0.76858099505E+02  0.80185334302E+02  0.00000000000E+00 0.  1.
         14    1    6    6    0    0  0.34395021508E+02 -0.37462854936E+02  0.43840544333E+01  0.51046086410E+02  0.00000000000E+00 0. -1.
         -5    1    3    3    0  503 -0.36086276887E+02  0.82743506480E+02 -0.11633091622E+03  0.14732168650E+03  0.47000000000E+01 0.  1.
         11    1    4    4    0    0 -0.52711059805E+02  0.26361989009E+02 -0.58057845954E+02  0.82729219548E+02  0.00000000000E+00 0. -1.
        -12    1    4    4    0    0 -0.94040161008E+02 -0.46349958053E+02 -0.18314658288E+03  0.21103208598E+03  0.00000000000E+00 0.  1.
</event>
<event>
12    1  0.8358445E-002  0.1990227E+03  0.7818608E-02  0.1150769E+00
         21   -1    0    0  503  502  0.00000000000E+00  0.00000000000E+00  0.34346944471E+03  0.34346944471E+03  0.00000000000E+00 0.  1.
         21   -1    0    0  501  503 -0.00000000000E+00 -0.00000000000E+00 -0.12212166095E+03  0.12212166095E+03  0.00000000000E+00 0. -1.
          6    2    1    2  501    0  0.46735229554E+02 -0.88852914854E+02  0.53813587113E+02  0.20616966633E+03  0.17184588152E+03 0.  0.
         24    2    3    3    0    0  0.21764912735E+02  0.23055034808E+02  0.32934566507E+02  0.89529495627E+02  0.76977911507E+02 0.  0.
         -6    2    1    2    0  502 -0.46735229554E+02  0.88852914854E+02  0.16753419665E+03  0.25942143933E+03  0.17074177573E+03 0.  0.
        -24    2    5    5    0    0 -0.80029743064E+02  0.24996349545E+02  0.59452784544E+02  0.12946041746E+03  0.78713333271E+02 0.  0.
          5    1    3    3  501    0  0.24970316819E+02 -0.11190794966E+03  0.20879020607E+02  0.11664017070E+03  0.47000000000E+01 0. -1.
        -11    1    4    4    0    0  0.10252303781E+02 -0.27651268323E+02  0.20935214184E+02  0.36166083084E+02  0.00000000000E+00 0.  1.
         12    1    4    4    0    0  0.11512608954E+02  0.50706303131E+02  0.11999352323E+02  0.53363412543E+02  0.00000000000E+00 0. -1.
         -5    1    5    5    0  502  0.33294513510E+02  0.63856565309E+02  0.10808141211E+03  0.12996102187E+03  0.47000000000E+01 0.  1.
         13    1    6    6    0    0 -0.14664409556E+02  0.23762620210E+02 -0.13908437520E+02  0.31195378842E+02  0.00000000000E+00 0. -1.
        -14    1    6    6    0    0 -0.65365333508E+02  0.12337293354E+01  0.73361222064E+02  0.98265038622E+02  0.00000000000E+00 0.  1.
</event>
<event>
12    1  0.8358445E-002  0.1771202E+03  0.7818608E-02  0.1170977E+00
         21   -1    0    0  501  502  0.00000000000E+00  0.00000000000E+00  0.46747196979E+02  0.46747196979E+02  0.00000000000E+00 0. -1.
         21   -1    0    0  502  503 -0.00000000000E+00 -0.00000000000E+00 -0.83148987791E+03  0.83148987791E+03  0.00000000000E+00 0. -1.
         -6    2    1    2    0  503  0.29824970853E+02 -0.22461782499E+02 -0.58976251703E+03  0.61578518240E+03  0.17314012769E+03 0.  0.
        -24    2    3    3    0    0  0.34794026549E+02 -0.75378654604E+02 -0.30810236769E+03  0.32911565735E+03  0.80606954320E+02 0.  0.
          6    2    1    2  501    0 -0.29824970853E+02  0.22461782499E+02 -0.19498016391E+03  0.26245189249E+03  0.17166732652E+03 0.  0.
         24    2    5    5    0    0 -0.53866004248E+01  0.61011557446E+02 -0.19187314432E+03  0.21646208201E+03  0.79303870192E+02 0.  0.
          5    1    5    5  501    0 -0.24438370428E+02 -0.38549774947E+02 -0.31070195818E+01  0.45989810483E+02  0.47000000000E+01 0. -1.
        -11    1    6    6    0    0 -0.12575157768E+02 -0.88651121126E+01 -0.98084292378E+02  0.99283700661E+02  0.00000000000E+00 0.  1.
         12    1    6    6    0    0  0.71885573435E+01  0.69876669559E+02 -0.93788851947E+02  0.11717838135E+03  0.00000000000E+00 0. -1.
         -5    1    3    3    0  503 -0.49690556964E+01  0.52916872105E+02 -0.28166014933E+03  0.28666952505E+03  0.47000000000E+01 0.  1.
         13    1    4    4    0    0  0.23412031443E+02 -0.25042203076E+02 -0.24596321183E+03  0.24834076734E+03  0.00000000000E+00 0. -1.
        -14    1    4    4    0    0  0.11381995106E+02 -0.50336451529E+02 -0.62139155866E+02  0.80774890014E+02  0.00000000000E+00 0.  1.
</event>
<event>
12    1  0.8358445E-002  0.2584162E+03  0.7818608E-02  0.1108263E+00
         21   -1    0    0  503  502  0.00000000000E+00  0.00000000000E+00  0.11332941248E+03  0.11332941248E+03  0.00000000000E+00 0.  1.
         21   -1    0    0  501  503 -0.00000000000E+00 -0.00000000000E+00 -0.60257638126E+03  0.60257638126E+03  0.00000000000E+00 0.  1.
          6    2    1    2  501    0 -0.18849076786E+03  0.40878116856E+02 -0.30209080228E+03  0.39683470331E+03  0.17035004821E+03 0.  0.
         24    2    3    3    0    0 -0.94093430284E+02  0.12304722031E+02 -0.68482426459E+02  0.14321636903E+03  0.82559710614E+02 0.  0.
         -6    2    1    2    0  502  0.18849076786E+03 -0.40878116856E+02 -0.18715616650E+03  0.31907109042E+03  0.17198587174E+03 0.  0.
        -24    2    5    5    0    0  0.54979251734E+02  0.22820412997E+02 -0.10102709016E+03  0.14783109674E+03  0.90022612985E+02 0.  0.
          5    1    3    3  501    0 -0.94397337577E+02  0.28573394825E+02 -0.23360837582E+03  0.25361833429E+03  0.47000000000E+01 0. -1.
        -13    1    4    4    0    0 -0.85692251011E+02  0.64208447409E+01 -0.86851073891E+02  0.12217814112E+03  0.00000000000E+00 0.  1.
         14    1    4    4    0    0 -0.84011792729E+01  0.58838772905E+01  0.18368647432E+02  0.21038227911E+02  0.00000000000E+00 0. -1.
         -5    1    5    5    0  502  0.13351151613E+03 -0.63698529853E+02 -0.86129076341E+02  0.17123999368E+03  0.47000000000E+01 0.  1.
         11    1    6    6    0    0  0.26618047959E+02  0.66986182071E+01  0.12171317582E+02  0.30025538042E+02  0.00000000000E+00 0. -1.
        -12    1    6    6    0    0  0.28361203775E+02  0.16121794790E+02 -0.11319840774E+03  0.11780555870E+03  0.00000000000E+00 0.  1.
</event>
<event>
12    1  0.8358445E-002  0.2281924E+03  0.7818608E-02  0.1130133E+00
         21   -1    0    0  501  502  0.00000000000E+00  0.00000000000E+00  0.13295966771E+03  0.13295966771E+03  0.00000000000E+00 0. -1.
         21   -1    0    0  502  503 -0.00000000000E+00 -0.00000000000E+00 -0.88762331519E+03  0.88762331519E+03  0.00000000000E+00 0. -1.
         -6    2    1    2    0  503 -0.65104571425E+01  0.13080025508E+03 -0.76222577712E+03  0.79226531498E+03  0.17188688497E+03 0.  0.
        -24    2    3    3    0    0  0.50324252250E+02  0.87637768891E+02 -0.32996723171E+03  0.35412980570E+03  0.79477269602E+02 0.  0.
          6    2    1    2  501    0  0.65104571425E+01 -0.13080025508E+03  0.75621296446E+01  0.22831766793E+03  0.18687075454E+03 0.  0.
         24    2    5    5    0    0 -0.47616228576E+02 -0.19111012021E+02  0.36084322190E+02  0.10088223098E+03  0.79010190579E+02 0.  0.
          5    1    5    5  501    0  0.54126685718E+02 -0.11168924306E+03 -0.28522192546E+02  0.12743543695E+03  0.47000000000E+01 0. -1.
        -11    1    6    6    0    0 -0.50186031924E+02 -0.22275302416E+01 -0.10451976996E+02  0.51311241599E+02  0.00000000000E+00 0.  1.
         12    1    6    6    0    0  0.25698033486E+01 -0.16883481780E+02  0.46536299187E+02  0.49570989381E+02  0.00000000000E+00 0. -1.
         -5    1    3    3    0  503 -0.56834709392E+02  0.43162486193E+02 -0.43225854541E+03  0.43813550927E+03  0.47000000000E+01 0.  1.
         11    1    4    4    0    0  0.71926878368E+02  0.64898515890E+02 -0.23801770701E+03  0.25697805752E+03  0.00000000000E+00 0. -1.
        -12    1    4    4    0    0 -0.21602626118E+02  0.22739253002E+02 -0.91949524700E+02  0.97151748182E+02  0.00000000000E+00 0.  1.
</event>
<event>
12    1  0.8358445E-002  0.1897996E+03  0.7818608E-02  0.1162457E+00
         21   -1    0    0  503  502  0.00000000000E+00  0.00000000000E+00  0.13840072269E+04  0.13840072269E+04  0.00000000000E+00 0.  1.
         21   -1    0    0  501  503 -0.00000000000E+00 -0.00000000000E+00 -0.12426676305E+03  0.12426676305E+03  0.00000000000E+00 0.  1.
          6    2    1    2  501    0  0.19928044022E+02  0.10020435946E+02 -0.53225778340E+02  0.18166015970E+03  0.17224951108E+03 0.  0.
         24    2    3    3    0    0  0.25232513788E+02  0.72366207602E+02 -0.40939100279E+02  0.11772124275E+03  0.79427534950E+02 0.  0.
         -6    2    1    2    0  502 -0.19928044022E+02 -0.10020435946E+02  0.13129662422E+04  0.13266138302E+04  0.18848439029E+03 0.  0.
        -24    2    5    5    0    0 -0.54477021716E+02  0.16225576986E+02  0.12103024544E+04  0.12150592321E+04  0.91136661157E+02 0.  0.
          5    1    3    3  501    0 -0.53044697658E+01 -0.62345771656E+02 -0.12286678062E+02  0.63938916950E+02  0.47000000000E+01 0. -1.
        -13    1    4    4    0    0 -0.28374214868E+02  0.22885982127E+02 -0.21100557484E+02  0.42120040045E+02  0.00000000000E+00 0.  1.
         14    1    4    4    0    0  0.53606728656E+02  0.49480225475E+02 -0.19838542795E+02  0.75601202705E+02  0.00000000000E+00 0. -1.
         -5    1    5    5    0  502  0.34548977694E+02 -0.26246012932E+02  0.10266378774E+03  0.11155459815E+03  0.47000000000E+01 0.  1.
         11    1    6    6    0    0  0.18175343876E+02 -0.11645231264E+02  0.11584260464E+03  0.11783659697E+03  0.00000000000E+00 0. -1.
        -12    1    6    6    0    0 -0.72652365592E+02  0.27870808250E+02  0.10944598498E+04  0.10972226351E+04  0.00000000000E+00 0.  1.
</event>
<event>
12    1  0.8358445E-002  0.1748253E+03  0.7818608E-02  0.1173086E+00
         21   -1    0    0  503  502  0.00000000000E+00  0.00000000000E+00  0.18382162458E+03  0.18382162458E+03  0.00000000000E+00 0. -1.
         21   -1    0    0  501  503 -0.00000000000E+00 -0.00000000000E+00 -0.28143156249E+03  0.28143156249E+03  0.00000000000E+00 0. -1.
          6    2    1    2  501    0  0.32305964314E+02 -0.46081320915E+01 -0.19810691134E+03  0.26421625553E+03  0.17175264526E+03 0.  0.
         24    2    3    3    0    0 -0.24411128029E+02 -0.49807453231E+02 -0.14361154486E+03  0.17337770555E+03  0.79742506817E+02 0.  0.
         -6    2    1    2    0  502 -0.32305964314E+02  0.46081320915E+01  0.10049697342E+03  0.20103693154E+03  0.17103010251E+03 0.  0.
        -24    2    5    5    0    0 -0.44278602626E+02 -0.31930404565E+01  0.13565011585E+03  0.16280035503E+03  0.78308438303E+02 0.  0.
          5    1    3    3  501    0  0.56717092343E+02  0.45199321140E+02 -0.54495366475E+02  0.90838549981E+02  0.47000000000E+01 0. -1.
        -11    1    4    4    0    0 -0.17644814142E+02 -0.18752940577E+01  0.38645971588E+01  0.18160157079E+02  0.00000000000E+00 0.  1.
         12    1    4    4    0    0 -0.67663138872E+01 -0.47932159174E+02 -0.14747614202E+03  0.15521754847E+03  0.00000000000E+00 0. -1.
         -5    1    5    5    0  502  0.11972638312E+02  0.78011725481E+01 -0.35153142426E+02  0.38236576517E+02  0.47000000000E+01 0.  1.
         11    1    6    6    0    0  0.21240864429E+02  0.87010855708E+01  0.42403385603E+02  0.48217531277E+02  0.00000000000E+00 0. -1.
        -12    1    6    6    0    0 -0.65519467055E+02 -0.11894126027E+02  0.93246730243E+02  0.11458282375E+03  0.00000000000E+00 0.  1.
</event>
<event>
12    1  0.8358445E-002  0.2949011E+03  0.7818608E-02  0.1087938E+00
         21   -1    0    0  503  502  0.00000000000E+00  0.00000000000E+00  0.62168922025E+03  0.62168922025E+03  0.00000000000E+00 0.  1.
         21   -1    0    0  501  503 -0.00000000000E+00 -0.00000000000E+00 -0.14692962508E+03  0.14692962508E+03  0.00000000000E+00 0. -1.
          6    2    1    2  501    0  0.20130753074E+01  0.23881867830E+03  0.15098808234E+03  0.33130661915E+03  0.17299786503E+03 0.  0.
         24    2    3    3    0    0 -0.27411564080E+02  0.41364052901E+02  0.70012974586E+02  0.11582298504E+03  0.77786686102E+02 0.  0.
         -6    2    1    2    0  502 -0.20130753074E+01 -0.23881867830E+03  0.32377151282E+03  0.43731222618E+03  0.17139304850E+03 0.  0.
        -24    2    5    5    0    0  0.16944210447E+02 -0.78887515702E+02  0.59444720640E+02  0.12775108760E+03  0.79223223678E+02 0.  0.
          5    1    3    3  501    0  0.29424639388E+02  0.19745462540E+03  0.80975107757E+02  0.21548363411E+03  0.47000000000E+01 0. -1.
        -11    1    4    4    0    0 -0.68806315662E+01  0.57842704194E+01 -0.17207104075E+02  0.19413534085E+02  0.00000000000E+00 0.  1.
         12    1    4    4    0    0 -0.20530932514E+02  0.35579782482E+02  0.87220078660E+02  0.96409450952E+02  0.00000000000E+00 0. -1.
         -5    1    5    5    0  502 -0.18957285755E+02 -0.15993116260E+03  0.26432679218E+03  0.30956113858E+03  0.47000000000E+01 0.  1.
         13    1    6    6    0    0 -0.26358157047E+02 -0.26611961758E+02 -0.98190160146E-01  0.37456088862E+02  0.00000000000E+00 0. -1.
        -14    1    6    6    0    0  0.43302367494E+02 -0.52275553944E+02  0.59542910800E+02  0.90294998739E+02  0.00000000000E+00 0.  1.
</event>
<event>
12    1  0.8358445E-002  0.1765316E+03  0.7818608E-02  0.1171750E+00
         21   -1    0    0  501  502  0.00000000000E+00  0.00000000000E+00  0.30199573208E+02  0.30199573208E+02  0.00000000000E+00 0.  1.
         21   -1    0    0  502  503 -0.00000000000E+00 -0.00000000000E+00 -0.14304742777E+04  0.14304742777E+04  0.00000000000E+00 0.  1.
         -6    2    1    2    0  503 -0.12595440404E+02 -0.45584616136E+02 -0.10948693294E+04  0.11090095876E+04  0.17007884823E+03 0.  0.
        -24    2    3    3    0    0  0.32039912757E+02  0.24783987899E+02 -0.67596223002E+03  0.68186874071E+03  0.79870151346E+02 0.  0.
          6    2    1    2  501    0  0.12595440404E+02  0.45584616136E+02 -0.30540537508E+03  0.35166426328E+03  0.16780556783E+03 0.  0.
         24    2    5    5    0    0 -0.18811288437E+02  0.59938076897E+02 -0.99516515852E+02  0.14284683870E+03  0.80964466068E+02 0.  0.
          5    1    5    5  501    0  0.31406728841E+02 -0.14353460761E+02 -0.20588885923E+03  0.20881742458E+03  0.47000000000E+01 0. -1.
        -11    1    6    6    0    0  0.22951048246E+02  0.17743145850E+02 -0.25132528686E+01  0.29118486915E+02  0.00000000000E+00 0.  1.
         12    1    6    6    0    0 -0.41762336683E+02  0.42194931048E+02 -0.97003262983E+02  0.11372835179E+03  0.00000000000E+00 0. -1.
         -5    1    3    3    0  503 -0.44635353161E+02 -0.70368604036E+02 -0.41890709935E+03  0.42714084687E+03  0.47000000000E+01 0.  1.
         13    1    4    4    0    0 -0.16188418036E+02  0.88221583446E+00 -0.34145896605E+02  0.37799278276E+02  0.00000000000E+00 0. -1.
        -14    1    4    4    0    0  0.48228330792E+02  0.23901772065E+02 -0.64181633341E+03  0.64406946243E+03  0.00000000000E+00 0.  1.
</event>
<event>
12    1  0.8358445E-002  0.1797059E+03  0.7818608E-02  0.1168789E+00
         21   -1    0    0  501  502  0.00000000000E+00  0.00000000000E+00  0.59089836842E+03  0.59089836842E+03  0.00000000000E+00 0.  1.
         21   -1    0    0  502  503 -0.00000000000E+00 -0.00000000000E+00 -0.10040491338E+03  0.10040491338E+03  0.00000000000E+00 0.  1.
         -6    2    1    2    0  503  0.33153872703E+02  0.30021547569E+02  0.10775964735E+02  0.18002873422E+03  0.17405100153E+03 0.  0.
        -24    2    3    3    0    0  0.42006189078E+01  0.20445780862E+02 -0.60950891741E+02  0.10194660980E+03  0.79009017788E+02 0.  0.
          6    2    1    2  501    0 -0.33153872703E+02 -0.30021547569E+02  0.47971749031E+03  0.51127454757E+03  0.17109155414E+03 0.  0.
         24    2    5    5    0    0 -0.55592110122E+02 -0.76727358139E+02  0.36360338648E+03  0.38403665092E+03  0.79367224908E+02 0.  0.
          5    1    5    5  501    0  0.22438237418E+02  0.46705810570E+02  0.11611410382E+03  0.12723789666E+03  0.47000000000E+01 0. -1.
        -13    1    6    6    0    0 -0.20334075556E+02  0.14926200443E+02  0.82816601485E+02  0.86572833903E+02  0.00000000000E+00 0.  1.
         14    1    6    6    0    0 -0.35258034566E+02 -0.91653558582E+02  0.28078678500E+03  0.29746381701E+03  0.00000000000E+00 0. -1.
         -5    1    3    3    0  503  0.28953253796E+02  0.95757667063E+01  0.71726856476E+02  0.78082124416E+02  0.47000000000E+01 0.  1.
         11    1    4    4    0    0  0.13648003166E+02  0.38945424465E+02 -0.68395184631E+02  0.79880631932E+02  0.00000000000E+00 0. -1.
        -12    1    4    4    0    0 -0.94473842585E+01 -0.18499643602E+02  0.74442928895E+01  0.22065977870E+02  0.00000000000E+00 0.  1.
</event>
<event>
12    1  0.8358445E-002  0.1833699E+03  0.7818608E-02  0.1164985E+00
         21   -1    0    0  501  502  0.00000000000E+00  0.00000000000E+00  0.15698422283E+03  0.15698422283E+03  0.00000000000E+00 0.  1.
         21   -1    0    0  502  503 -0.00000000000E+00 -0.00000000000E+00 -0.44686426056E+03  0.44686426056E+03  0.00000000000E+00 0.  1.
         -6    2    1    2    0  503 -0.51681400325E+02 -0.40687812544E+02 -0.36405030576E+03  0.40762376053E+03  0.17116670179E+03 0.  0.
        -24    2    3    3    0    0 -0.89843590900E+02 -0.36660128759E+01 -0.30543849982E+03  0.32834955139E+03  0.80221195768E+02 0.  0.
          6    2    1    2  501    0  0.51681400325E+02  0.40687812544E+02  0.74170268021E+02  0.19622472286E+03  0.16934121758E+03 0.  0.
         24    2    5    5    0    0  0.17767113009E+02  0.88478252409E+02  0.63819951594E+02  0.13653113797E+03  0.80147950440E+02 0.  0.
          5    1    5    5  501    0  0.33914287317E+02 -0.47790439864E+02  0.10350316427E+02  0.59693584888E+02  0.47000000000E+01 0. -1.
        -11    1    6    6    0    0  0.19479760040E+02  0.57072342675E+02 -0.53539527382E+01  0.60542366650E+02  0.00000000000E+00 0.  1.
         12    1    6    6    0    0 -0.17126470314E+01  0.31405909733E+02  0.69173904332E+02  0.75988771319E+02  0.00000000000E+00 0. -1.
         -5    1    3    3    0  503  0.38162190574E+02 -0.37021799668E+02 -0.58611805936E+02  0.79274209142E+02  0.47000000000E+01 0.  1.
         13    1    4    4    0    0 -0.25709978839E+02  0.22469962696E+02 -0.33888573674E+02  0.48107563451E+02  0.00000000000E+00 0. -1.
        -14    1    4    4    0    0 -0.64133612061E+02 -0.26135975572E+02 -0.27154992615E+03  0.28024198794E+03  0.00000000000E+00 0.  1.
</event>
<event>
12    1  0.8358445E-002  0.2156831E+03  0.7818608E-02  0.1137310E+00
         21   -1    0    0  503  502  0.00000000000E+00  0.00000000000E+00  0.40454688217E+03  0.40454688217E+03  0.00000000000E+00 0. -1.
         21   -1    0    0  501  503 -0.00000000000E+00 -0.00000000000E+00 -0.11599346656E+03  0.11599346656E+03  0.00000000000E+00 0. -1.
          6    2    1    2  501    0 -0.85472428300E+02  0.97096028455E+02  0.17324767585E+03  0.27597011922E+03  0.17149803140E+03 0.  0.
         24    2    3    3    0    0 -0.11139512072E+03  0.33115751849E+02  0.95527447954E+02  0.17191251209E+03  0.83203921543E+02 0.  0.
         -6    2    1    2    0  502  0.85472428300E+02 -0.97096028455E+02  0.11530573977E+03  0.24457022951E+03  0.17258623583E+03 0.  0.
        -24    2    5    5    0    0  0.87066924237E+02 -0.88115876904E+02  0.20741030769E+02  0.14945051690E+03  0.80995120747E+02 0.  0.
          5    1    3    3  501    0  0.25922692419E+02  0.63980276606E+02  0.77720227894E+02  0.10405760713E+03  0.47000000000E+01 0. -1.
        -11    1    4    4    0    0 -0.19113537840E+02 -0.23817733318E+02  0.39297951177E+02  0.49768872962E+02  0.00000000000E+00 0.  1.
         12    1    4    4    0    0 -0.92281582879E+02  0.56933485167E+02  0.56229496777E+02  0.12214363913E+03  0.00000000000E+00 0. -1.
         -5    1    5    5    0  502 -0.15944959374E+01 -0.89801515511E+01  0.94564709002E+02  0.95119712615E+02  0.47000000000E+01 0.  1.
         13    1    6    6    0    0  0.52657053696E+01  0.38081635400E+01  0.25492894069E+02  0.26308124422E+02  0.00000000000E+00 0. -1.
        -14    1    6    6    0    0  0.81801218868E+02 -0.91924040444E+02 -0.47518633002E+01  0.12314239248E+03  0.00000000000E+00 0.  1.
</event>
<event>
12    1  0.8358445E-002  0.1958354E+03  0.7818608E-02  0.1153358E+00
         21   -1    0    0  503  502  0.00000000000E+00  0.00000000000E+00  0.11821753018E+04  0.11821753018E+04  0.00000000000E+00 0. -1.
         21   -1    0    0  501  503 -0.00000000000E+00 -0.00000000000E+00 -0.34443781934E+02  0.34443781934E+02  0.00000000000E+00 0. -1.
          6    2    1    2  501    0  0.64178745295E+02 -0.68058644078E+02  0.42596917304E+03  0.46882962901E+03  0.17204823241E+03 0.  0.
         24    2    3    3    0    0  0.11947821269E+02 -0.80497673982E+02  0.15327041623E+03  0.19085570783E+03  0.79444664833E+02 0.  0.
         -6    2    1    2    0  502 -0.64178745295E+02  0.68058644078E+02  0.72176234682E+03  0.74778945472E+03  0.17174775958E+03 0.  0.
        -24    2    5    5    0    0 -0.89676946658E+02  0.82402589425E+02  0.68649603940E+03  0.70172743696E+03  0.79450878971E+02 0.  0.
          5    1    3    3  501    0  0.52230924026E+02  0.12439029904E+02  0.27269875681E+03  0.27797392118E+03  0.47000000000E+01 0. -1.
        -13    1    4    4    0    0 -0.16373254145E+02 -0.68013024376E+02  0.58608262957E+02  0.91262168629E+02  0.00000000000E+00 0.  1.
         14    1    4    4    0    0  0.28321075415E+02 -0.12484649606E+02  0.94662153269E+02  0.99593539198E+02  0.00000000000E+00 0. -1.
         -5    1    5    5    0  502  0.25498201363E+02 -0.14343945347E+02  0.35266307429E+02  0.46062017764E+02  0.47000000000E+01 0.  1.
         13    1    6    6    0    0 -0.67850317668E+02  0.95721127052E+02  0.60649133264E+03  0.61773613812E+03  0.00000000000E+00 0. -1.
        -14    1    6    6    0    0 -0.21826628990E+02 -0.13318537627E+02  0.80004706754E+02  0.83991298838E+02  0.00000000000E+00 0.  1.
</event>
<event>
12    1  0.8358445E-002  0.2768410E+03  0.7818608E-02  0.1098091E+00
         21   -1    0    0  501  502  0.00000000000E+00  0.00000000000E+00  0.15636503457E+03  0.15636503457E+03  0.00000000000E+00 0. -1.
         21   -1    0    0  502  503 -0.00000000000E+00 -0.00000000000E+00 -0.56566665898E+03  0.56566665898E+03  0.00000000000E+00 0.  1.
         -6    2    1    2    0  503 -0.13041768822E+03  0.16595133309E+03 -0.34518586429E+03  0.44248639095E+03  0.17914325808E+03 0.  0.
        -24    2    3    3    0    0 -0.56931512496E+02  0.17313448036E+02 -0.71739381333E+02  0.12266064474E+03  0.79737960448E+02 0.  0.
          6    2    1    2  501    0  0.13041768822E+03 -0.16595133309E+03 -0.64115760122E+02  0.27954530260E+03  0.17171525022E+03 0.  0.
         24    2    5    5    0    0  0.12923249661E+03 -0.63560198926E+02 -0.66706427255E+02  0.17700677038E+03  0.78362696830E+02 0.  0.
          5    1    5    5  501    0  0.11851916040E+01 -0.10239113416E+03  0.25906671336E+01  0.10253853222E+03  0.47000000000E+01 0. -1.
        -13    1    6    6    0    0 -0.51906942248E+01  0.43810309318E+01  0.66232739523E+01  0.94870699590E+01  0.00000000000E+00 0.  1.
         14    1    6    6    0    0  0.13442319084E+03 -0.67941229858E+02 -0.73329701208E+02  0.16751970042E+03  0.00000000000E+00 0. -1.
         -5    1    3    3    0  503 -0.73486175720E+02  0.14863788505E+03 -0.27344648296E+03  0.31982574621E+03  0.47000000000E+01 0.  1.
         11    1    4    4    0    0 -0.11587783966E+02 -0.21809650097E+02 -0.55288067847E+02  0.60553348552E+02  0.00000000000E+00 0. -1.
        -12    1    4    4    0    0 -0.45343728531E+02  0.39123098133E+02 -0.16451313486E+02  0.62107296190E+02  0.00000000000E+00 0.  1.
</event>
<event>
12    1  0.8358445E-002  0.2048919E+03  0.7818608E-02  0.1146125E+00
         21   -1    0    0  501  502  0.00000000000E+00  0.00000000000E+00  0.10755660721E+03  0.10755660721E+03  0.00000000000E+00 0. -1.
         21   -1    0    0  502  503 -0.00000000000E+00 -0.00000000000E+00 -0.38791935311E+03  0.38791935311E+03  0.00000000000E+00 0. -1.
         -6    2    1    2    0  503 -0.29366997833E+02 -0.10209472608E+03 -0.15759672363E+03  0.25849068880E+03  0.17519975812E+03 0.  0.
        -24    2    3    3    0    0 -0.41787022558E+02  0.11462733854E+02 -0.60897602898E+02  0.10874970019E+03  0.78996390625E+02 0.  0.
          6    2    1    2  501    0  0.29366997833E+02  0.10209472608E+03 -0.12276602228E+03  0.23698527151E+03  0.17264057760E+03 0.  0.
         24    2    5    5    0    0  0.75084609591E+02  0.35440566383E+02 -0.97567614986E+02  0.15219183569E+03  0.82153411450E+02 0.  0.
          5    1    5    5  501    0 -0.45717611758E+02  0.66654159693E+02 -0.25198407294E+02  0.84793435827E+02  0.47000000000E+01 0. -1.
        -13    1    6    6    0    0  0.24285622515E+02 -0.21467445903E+02 -0.57548454721E+02  0.66048976793E+02  0.00000000000E+00 0.  1.
         14    1    6    6    0    0  0.50798987076E+02  0.56908012286E+02 -0.40019160265E+02  0.86142858895E+02  0.00000000000E+00 0. -1.
         -5    1    3    3    0  503  0.12420024725E+02 -0.11355745993E+03 -0.96699120730E+02  0.14974098861E+03  0.47000000000E+01 0.  1.
         13    1    4    4    0    0 -0.22694137845E+01 -0.23400843191E+02  0.53367196314E+01  0.24108717871E+02  0.00000000000E+00 0. -1.
        -14    1    4    4    0    0 -0.39517608774E+02  0.34863577045E+02 -0.66234322529E+02  0.84640982322E+02  0.00000000000E+00 0.  1.
</event>
<event>
12    1  0.8358445E-002  0.1835023E+03  0.7818608E-02  0.1164790E+00
         21   -1    0    0  501  502  0.00000000000E+00  0.00000000000E+00  0.23606820264E+03  0.23606820264E+03  0.00000000000E+00 0. -1.
         21   -1    0    0  502  503 -0.00000000000E+00 -0.00000000000E+00 -0.26270864043E+03  0.26270864043E+03  0.00000000000E+00 0. -1.
         -6    2    1    2    0  503 -0.58513105588E+02 -0.25216995646E+02 -0.18271107628E+03  0.25895256527E+03  0.17208548245E+03 0.  0.
        -24    2    3    3    0    0  0.35670811153E+02 -0.15200624740E+02 -0.10178416029E+03  0.13428423092E+03  0.78541540775E+02 0.  0.
          6    2    1    2  501    0  0.58513105588E+02  0.25216995646E+02  0.15607063849E+03  0.23982427779E+03  0.17058124054E+03 0.  0.
         24    2    5    5    0    0  0.23598307203E+02 -0.19262640934E+02  0.16171972138E+03  0.18280249814E+03  0.79596203470E+02 0.  0.
          5    1    5    5  501    0  0.34914798385E+02  0.44479636581E+02 -0.56490828863E+01  0.57021779646E+02  0.47000000000E+01 0. -1.
        -11    1    6    6    0    0 -0.24862662783E+01 -0.45892706331E+02  0.10843601057E+03  0.11777389525E+03  0.00000000000E+00 0.  1.
         12    1    6    6    0    0  0.26084573481E+02  0.26630065397E+02  0.53283710806E+02  0.65028602892E+02  0.00000000000E+00 0. -1.
         -5    1    3    3    0  503 -0.94183916740E+02 -0.10016370906E+02 -0.80926915992E+02  0.12466833435E+03  0.47000000000E+01 0.  1.
         11    1    4    4    0    0  0.48158716275E+02  0.33151089741E+01 -0.10099308803E+03  0.11193683813E+03  0.00000000000E+00 0. -1.
        -12    1    4    4    0    0 -0.12487905123E+02 -0.18515733714E+02 -0.79107226296E+00  0.22347392793E+02  0.00000000000E+00 0.  1.
</event>
<event>
12    1  0.8358445E-002  0.1817553E+03  0.7818608E-02  0.1166646E+00
         21   -1    0    0  501  502  0.00000000000E+00  0.00000000000E+00  0.54872327965E+02  0.54872327965E+02  0.00000000000E+00 0.  1.
         21   -1    0    0  502  503 -0.00000000000E+00 -0.00000000000E+00 -0.92518927480E+03  0.92518927480E+03  0.00000000000E+00 0.  1.
         -6    2    1    2    0  503  0.37371451666E+02  0.43205381395E+02 -0.72972209606E+03  0.75201684340E+03  0.17254467506E+03 0.  0.
        -24    2    3    3    0    0  0.11928795659E+02  0.86073271793E+02 -0.35448337462E+03  0.37345222164E+03  0.79102431621E+02 0.  0.
          6    2    1    2  501    0 -0.37371451666E+02 -0.43205381395E+02 -0.14059485077E+03  0.22804475937E+03  0.17021800677E+03 0.  0.
         24    2    5    5    0    0  0.27059084493E+02  0.12091372228E+02 -0.10671825415E+03  0.13650930859E+03  0.79797307133E+02 0.  0.
          5    1    5    5  501    0 -0.64430536159E+02 -0.55296753623E+02 -0.33876596623E+02  0.91535450781E+02  0.47000000000E+01 0. -1.
        -13    1    6    6    0    0 -0.69860362188E+01 -0.16413741078E+02  0.30526372291E+01  0.18097905743E+02  0.00000000000E+00 0.  1.
         14    1    6    6    0    0  0.34045120712E+02  0.28505113306E+02 -0.10977089138E+03  0.11841140284E+03  0.00000000000E+00 0. -1.
         -5    1    3    3    0  503  0.25442656008E+02 -0.42867890398E+02 -0.37523872144E+03  0.37856462175E+03  0.47000000000E+01 0.  1.
         11    1    4    4    0    0 -0.33839998395E+02  0.41935691938E+02 -0.16732430289E+03  0.17578728648E+03  0.00000000000E+00 0. -1.
        -12    1    4    4    0    0  0.45768794054E+02  0.44137579855E+02 -0.18715907172E+03  0.19766493516E+03  0.00000000000E+00 0.  1.
</event>
<event>
12    1  0.8358445E-002  0.2050465E+03  0.7818608E-02  0.1146419E+00
         21   -1    0    0  503  502  0.00000000000E+00  0.00000000000E+00  0.75486979233E+02  0.75486979233E+02  0.00000000000E+00 0. -1.
         21   -1    0    0  501  503 -0.00000000000E+00 -0.00000000000E+00 -0.57963757147E+03  0.57963757147E+03  0.00000000000E+00 0. -1.
          6    2    1    2  501    0  0.26605795076E+02 -0.10001552834E+03 -0.32898785946E+03  0.38544689942E+03  0.17212009286E+03 0.  0.
         24    2    3    3    0    0 -0.49629537914E+02 -0.49183382384E+02 -0.13913780228E+03  0.17458944220E+03  0.78993981844E+02 0.  0.
         -6    2    1    2    0  502 -0.26605795076E+02  0.10001552834E+03 -0.17516273279E+03  0.26967765128E+03  0.17701152054E+03 0.  0.
        -24    2    5    5    0    0 -0.45587188842E+02  0.64930099115E+02 -0.19467665733E+03  0.22502158894E+03  0.80259610150E+02 0.  0.
          5    1    3    3  501    0  0.76235332991E+02 -0.50832145951E+02 -0.18985005717E+03  0.21085745722E+03  0.47000000000E+01 0. -1.
        -13    1    4    4    0    0 -0.52791299698E+02 -0.31658677752E+02 -0.38978834078E+02  0.72859746822E+02  0.00000000000E+00 0.  1.
         14    1    4    4    0    0  0.31617617843E+01 -0.17524704632E+02 -0.10015896820E+03  0.10172969538E+03  0.00000000000E+00 0. -1.
         -5    1    5    5    0  502  0.18981393766E+02  0.35085429220E+02  0.19513924546E+02  0.44656062344E+02  0.47000000000E+01 0.  1.
         11    1    6    6    0    0 -0.40624339719E+02  0.11664445944E+02 -0.29884618127E+02  0.51763758339E+02  0.00000000000E+00 0. -1.
        -12    1    6    6    0    0 -0.49628491231E+01  0.53265653171E+02 -0.16479203921E+03  0.17325783060E+03  0.00000000000E+00 0.  1.
</event>
<event>
12    1  0.8358445E-002  0.1814572E+03  0.7818608E-02  0.1166539E+00
         21   -1    0    0  501  502  0.00000000000E+00  0.00000000000E+00  0.10730156407E+03  0.10730156407E+03  0.00000000000E+00 0.  1.
         21   -1    0    0  502  503 -0.00000000000E+00 -0.00000000000E+00 -0.40673868978E+03  0.40673868978E+03  0.00000000000E+00 0.  1.
         -6    2    1    2    0  503 -0.44590878030E+02 -0.38418635063E+02 -0.21555608200E+02  0.18215947442E+03  0.17103535293E+03 0.  0.
        -24    2    3    3    0    0 -0.21124805209E+02  0.44042245520E+02  0.82441534544E-01  0.93611472765E+02  0.79856898582E+02 0.  0.
          6    2    1    2  501    0  0.44590878030E+02  0.38418635063E+02 -0.27788151751E+03  0.33188077944E+03  0.17164607791E+03 0.  0.
         24    2    5    5    0    0  0.56092860039E+02 -0.28177386887E+02 -0.22049260131E+03  0.24309506306E+03  0.80856962429E+02 0.  0.
          5    1    5    5  501    0 -0.11501982010E+02  0.66596021950E+02 -0.57388916201E+02  0.88785716377E+02  0.47000000000E+01 0. -1.
        -11    1    6    6    0    0  0.60229602006E+02  0.88474645723E+01 -0.10097974092E+03  0.11791009568E+03  0.00000000000E+00 0.  1.
         12    1    6    6    0    0 -0.41367419665E+01 -0.37024851459E+02 -0.11951286039E+03  0.12518496738E+03  0.00000000000E+00 0. -1.
         -5    1    3    3    0  503 -0.23466072820E+02 -0.82460880584E+02 -0.21638049734E+02  0.88548001652E+02  0.47000000000E+01 0.  1.
         13    1    4    4    0    0  0.21350159602E+02  0.46324302317E+02 -0.17270055629E+01  0.51036779370E+02  0.00000000000E+00 0. -1.
        -14    1    4    4    0    0 -0.42474964811E+02 -0.22820567968E+01  0.18094470975E+01  0.42574693396E+02  0.00000000000E+00 0.  1.
</event>
<event>
12    1  0.8358445E-002  0.1774495E+03  0.7818608E-02  0.1170495E+00
         21   -1    0    0  503  502  0.00000000000E+00  0.00000000000E+00  0.25047834145E+03  0.25047834145E+03  0.00000000000E+00 0. -1.
         21   -1    0    0  501  503 -0.00000000000E+00 -0.00000000000E+00 -0.24523907030E+03  0.24523907030E+03  0.00000000000E+00 0. -1.
          6    2    1    2  501    0 -0.40708308505E+02 -0.10798964864E+02 -0.17083058541E+03  0.24631571334E+03  0.17237911040E+03 0.  0.
         24    2    3    3    0    0 -0.20226260060E+02 -0.20468963454E+02 -0.19513184517E+03  0.21276479073E+03  0.79776808129E+02 0.  0.
         -6    2    1    2    0  502  0.40708308505E+02  0.10798964864E+02  0.17606985656E+03  0.24940169841E+03  0.17154249840E+03 0.  0.
        -24    2    5    5    0    0  0.38378610366E+02 -0.39257680963E+02  0.39570620703E+02  0.10391896172E+03  0.78862115965E+02 0.  0.
          5    1    3    3  501    0 -0.20482048445E+02  0.96699985899E+01  0.24301259766E+02  0.33550922602E+02  0.47000000000E+01 0. -1.
        -13    1    4    4    0    0  0.21366011063E+01  0.20128193537E+02 -0.11303781718E+02  0.23183716710E+02  0.00000000000E+00 0.  1.
         14    1    4    4    0    0 -0.22362861166E+02 -0.40597156991E+02 -0.18382806345E+03  0.18958107402E+03  0.00000000000E+00 0. -1.
         -5    1    5    5    0  502  0.23296981391E+01  0.50056645827E+02  0.13649923586E+03  0.14548273669E+03  0.47000000000E+01 0.  1.
         11    1    6    6    0    0  0.43045574679E+02 -0.60494263312E+02  0.32576703368E+02  0.81078474304E+02  0.00000000000E+00 0. -1.
        -12    1    6    6    0    0 -0.46669643139E+01  0.21236582350E+02  0.69939173348E+01  0.22840487418E+02  0.00000000000E+00 0.  1.
</event>
<event>
12    1  0.8358445E-002  0.3413107E+03  0.7818608E-02  0.1066272E+00
         21   -1    0    0  503  502  0.00000000000E+00  0.00000000000E+00  0.11053636253E+04  0.11053636253E+04  0.00000000000E+00 0.  1.
         21   -1    0    0  501  503 -0.00000000000E+00 -0.00000000000E+00 -0.23931677732E+03  0.23931677732E+03  0.00000000000E+00 0. -1.
          6    2    1    2  501    0 -0.23380503488E+03  0.18044029275E+03 -0.70036297039E+02  0.34842229433E+03  0.17108336770E+03 0.  0.
         24    2    3    3    0    0 -0.80440858727E+02  0.13462885323E+03 -0.50936515519E+01  0.17562502664E+03  0.78883108603E+02 0.  0.
         -6    2    1    2    0  502  0.23380503488E+03 -0.18044029275E+03  0.93608314501E+03  0.99625810829E+03  0.17045547916E+03 0.  0.
        -24    2    5    5    0    0  0.71003137207E+02 -0.95822067531E+02  0.27404629720E+03  0.30925040834E+03  0.79442607787E+02 0.  0.
          5    1    3    3  501    0 -0.15336417615E+03  0.45811439520E+02 -0.64942645487E+02  0.17279726769E+03  0.47000000000E+01 0. -1.
        -11    1    4    4    0    0 -0.35680058577E+02  0.92525648850E+01  0.17146745839E+02  0.40653258539E+02  0.00000000000E+00 0.  1.
         12    1    4    4    0    0 -0.44760800150E+02  0.12537628834E+03 -0.22240397391E+02  0.13497176810E+03  0.00000000000E+00 0. -1.
         -5    1    5    5    0  502  0.16280189767E+03 -0.84618225219E+02  0.66203684782E+03  0.68700769995E+03  0.47000000000E+01 0.  1.
         11    1    6    6    0    0  0.55128549337E+02 -0.10485551973E+02  0.96753404616E+02  0.11184956440E+03  0.00000000000E+00 0. -1.
        -12    1    6    6    0    0  0.15874587870E+02 -0.85336515558E+02  0.17729289258E+03  0.19740084394E+03  0.00000000000E+00 0.  1.
</event>
<event>
12    1  0.8358445E-002  0.1944967E+03  0.7818608E-02  0.1154684E+00
         21   -1    0    0  503  502  0.00000000000E+00  0.00000000000E+00  0.19861224528E+03  0.19861224528E+03  0.00000000000E+00 0.  1.
         21   -1    0    0  501  503 -0.00000000000E+00 -0.00000000000E+00 -0.32411989112E+03  0.32411989112E+03  0.00000000000E+00 0.  1.
          6    2    1    2  501    0  0.58786277184E+02 -0.67735043612E+02 -0.23129158280E+03  0.30219985514E+03  0.17258358455E+03 0.  0.
         24    2    3    3    0    0  0.10641624330E+03 -0.36746911828E+02 -0.15977686454E+03  0.21073771591E+03  0.78784428029E+02 0.  0.
         -6    2    1    2    0  502 -0.58786277184E+02  0.67735043612E+02  0.10578393696E+03  0.22053228126E+03  0.17146539955E+03 0.  0.
        -24    2    5    5    0    0  0.20214300011E+02  0.43559349646E+02  0.10112240323E+03  0.13765058683E+03  0.80099367991E+02 0.  0.
          5    1    3    3  501    0 -0.47629966118E+02 -0.30988131784E+02 -0.71514718261E+02  0.91462139226E+02  0.47000000000E+01 0. -1.
        -11    1    4    4    0    0  0.84944558277E+02 -0.49247480614E+02 -0.78386811272E+02  0.12563990015E+03  0.00000000000E+00 0.  1.
         12    1    4    4    0    0  0.21471685025E+02  0.12500568786E+02 -0.81390053263E+02  0.85097815765E+02  0.00000000000E+00 0. -1.
         -5    1    5    5    0  502 -0.79000577195E+02  0.24175693965E+02  0.46615337309E+01  0.82881694436E+02  0.47000000000E+01 0.  1.
         13    1    6    6    0    0  0.95012961560E+01 -0.23262983379E+02  0.20811639759E+02  0.32627678033E+02  0.00000000000E+00 0. -1.
        -14    1    6    6    0    0  0.10713003855E+02  0.66822333026E+02  0.80310763468E+02  0.10502290879E+03  0.00000000000E+00 0.  1.
</event>
<event>
12    1  0.8358445E-002  0.2058305E+03  0.7818608E-02  0.1145453E+00
         21   -1    0    0  503  502  0.00000000000E+00  0.00000000000E+00  0.26840341495E+04  0.26840341495E+04  0.00000000000E+00 0.  1.
         21   -1    0    0  501  503 -0.00000000000E+00 -0.00000000000E+00 -0.86719390972E+02  0.86719390972E+02  0.00000000000E+00 0.  1.
          6    2    1    2  501    0  0.81566889324E+02  0.71349677452E+02  0.42395232303E+02  0.20755632354E+03  0.17186720982E+03 0.  0.
         24    2    3    3    0    0 -0.20070961635E+02  0.26474720684E+02  0.41997023326E+02  0.96352622780E+02  0.80101957605E+02 0.  0.
         -6    2    1    2    0  502 -0.81566889324E+02 -0.71349677452E+02  0.25549195263E+04  0.25631972170E+04  0.17499215267E+03 0.  0.
        -24    2    5    5    0    0 -0.82576411401E+02  0.56342006895E+01  0.10856640869E+04  0.10919184627E+04  0.82272788291E+02 0.  0.
          5    1    3    3  501    0  0.10163785096E+03  0.44874956768E+02  0.39820897708E+00  0.11120370076E+03  0.47000000000E+01 0. -1.
        -13    1    4    4    0    0 -0.10458558656E+02  0.40877854866E+02 -0.84360512661E+01  0.43029611067E+02  0.00000000000E+00 0.  1.
         14    1    4    4    0    0 -0.96124029791E+01 -0.14403134182E+02  0.50433074592E+02  0.53323011713E+02  0.00000000000E+00 0. -1.
         -5    1    5    5    0  502  0.10095220776E+01 -0.76983878141E+02  0.14692554394E+04  0.14712787543E+04  0.47000000000E+01 0.  1.
         11    1    6    6    0    0 -0.52342944567E+02  0.32282134654E+02  0.36630728830E+03  0.37143364081E+03  0.00000000000E+00 0. -1.
        -12    1    6    6    0    0 -0.30233466835E+02 -0.26647933965E+02  0.71935679857E+03  0.72048482188E+03  0.00000000000E+00 0.  1.
</event>
<event>
12    1  0.8358445E-002  0.2209542E+03  0.7818608E-02  0.1133202E+00
         21   -1    0    0  501  502  0.00000000000E+00  0.00000000000E+00  0.63935481121E+03  0.63935481121E+03  0.00000000000E+00 0. -1.
         21   -1    0    0  502  503 -0.00000000000E+00 -0.00000000000E+00 -0.86264058519E+02  0.86264058519E+02  0.00000000000E+00 0. -1.
         -6    2    1    2    0  503 -0.50929520434E+02 -0.12907276929E+03  0.15319585204E+03  0.26874174246E+03  0.17175435725E+03 0.  0.
        -24    2    3    3    0    0  0.12672341948E+02 -0.11597711191E+03  0.63319901210E+02  0.15776215119E+03  0.85253784218E+02 0.  0.
          6    2    1    2  501    0  0.50929520434E+02  0.12907276929E+03  0.39989490065E+03  0.45687712727E+03  0.17195110359E+03 0.  0.
         24    2    5    5    0    0 -0.30192715168E+01  0.68816935038E+02  0.34052690716E+03  0.35643865672E+03  0.79655853240E+02 0.  0.
          5    1    5    5  501    0  0.53948791951E+02  0.60255834255E+02  0.59367993498E+02  0.10043847055E+03  0.47000000000E+01 0. -1.
        -11    1    6    6    0    0  0.11610614607E+02 -0.31471099266E+01  0.50982482285E+01  0.13065328448E+02  0.00000000000E+00 0.  1.
         12    1    6    6    0    0 -0.14629886124E+02  0.71964044965E+02  0.33542865893E+03  0.34337332827E+03  0.00000000000E+00 0. -1.
         -5    1    3    3    0  503 -0.63601862382E+02 -0.13095657388E+02  0.89875950828E+02  0.11097959127E+03  0.47000000000E+01 0.  1.
         11    1    4    4    0    0  0.94441739145E+01 -0.71793893669E+02  0.82252025191E+02  0.10958536051E+03  0.00000000000E+00 0. -1.
        -12    1    4    4    0    0  0.32281680330E+01 -0.44183218236E+02 -0.18932123981E+02  0.48176790688E+02  0.00000000000E+00 0.  1.
</event>
<event>
12    1  0.8358445E-002  0.2125598E+03  0.7818608E-02  0.1140129E+00
         21   -1    0    0  503  502  0.00000000000E+00  0.00000000000E+00  0.40672952262E+03  0.40672952262E+03  0.00000000000E+00 0. -1.
         21   -1    0    0  501  503 -0.00000000000E+00 -0.00000000000E+00 -0.12105944403E+03  0.12105944403E+03  0.00000000000E+00 0. -1.
          6    2    1    2  501    0  0.95167551033E+02 -0.72779523312E+02  0.22326706532E+03  0.30625836597E+03  0.17202407531E+03 0.  0.
         24    2    3    3    0    0  0.60943572883E+02 -0.10227256612E+03  0.21749436459E+03  0.26047043822E+03  0.79795073149E+02 0.  0.
         -6    2    1    2    0  502 -0.95167551033E+02  0.72779523312E+02  0.62403013270E+02  0.22153060069E+03  0.17557889734E+03 0.  0.
        -24    2    5    5    0    0 -0.10176742099E+02  0.98524214773E+02  0.46992400377E+02  0.13127649423E+03  0.72212500779E+02 0.  0.
          5    1    3    3  501    0  0.34223978150E+02  0.29493042805E+02  0.57727007256E+01  0.45787927754E+02  0.47000000000E+01 0. -1.
        -13    1    4    4    0    0  0.65714322346E+02 -0.10621617685E+03  0.22063080847E+03  0.25353146162E+03  0.00000000000E+00 0.  1.
         14    1    4    4    0    0 -0.47707494628E+01  0.39436107341E+01 -0.31364438723E+01  0.69389765977E+01  0.00000000000E+00 0. -1.
         -5    1    5    5    0  502 -0.84990808935E+02 -0.25744691461E+02  0.15410612893E+02  0.90254106452E+02  0.47000000000E+01 0.  1.
         13    1    6    6    0    0 -0.38623034487E+02  0.76406430515E+02  0.40311320611E+02  0.94629192042E+02  0.00000000000E+00 0. -1.
        -14    1    6    6    0    0  0.28446292388E+02  0.22117784258E+02  0.66810797658E+01  0.36647302192E+02  0.00000000000E+00 0.  1.
</event>
<event>
12    1  0.8358445E-002  0.1989978E+03  0.7818608E-02  0.1150873E+00
         21   -1    0    0  501  502  0.00000000000E+00  0.00000000000E+00  0.57954618846E+03  0.57954618846E+03  0.00000000000E+00 0.  1.
         21   -1    0    0  502  503 -0.00000000000E+00 -0.00000000000E+00 -0.94531080460E+02  0.94531080460E+02  0.00000000000E+00 0. -1.
         -6    2    1    2    0  503  0.52427032173E+02  0.84463345671E+02  0.64104224022E+02  0.20906812685E+03  0.17238758558E+03 0.  0.
        -24    2    3    3    0    0  0.61900920739E+02  0.67358190919E+02  0.10686378210E+03  0.16181550056E+03  0.79972110292E+02 0.  0.
          6    2    1    2  501    0 -0.52427032173E+02 -0.84463345671E+02  0.42091088397E+03  0.46500914207E+03  0.17083582614E+03 0.  0.
         24    2    5    5    0    0 -0.10153147395E+03 -0.54049117208E+02  0.29260250403E+03  0.32422064162E+03  0.79201337172E+02 0.  0.
          5    1    5    5  501    0  0.49104441779E+02 -0.30414228463E+02  0.12830837994E+03  0.14078850045E+03  0.47000000000E+01 0. -1.
        -11    1    6    6    0    0 -0.43944338844E+02 -0.46327105017E+02  0.23047758955E+03  0.23915941307E+03  0.00000000000E+00 0.  1.
         12    1    6    6    0    0 -0.57587135109E+02 -0.77220121915E+01  0.62124914487E+02  0.85061228550E+02  0.00000000000E+00 0. -1.
         -5    1    3    3    0  503 -0.94738885653E+01  0.17105154753E+02 -0.42759558082E+02  0.47252626287E+02  0.47000000000E+01 0.  1.
         13    1    4    4    0    0  0.13551738278E+02  0.46624427379E+01 -0.12206748628E+02  0.18825320574E+02  0.00000000000E+00 0. -1.
        -14    1    4    4    0    0  0.48349182461E+02  0.62695748181E+02  0.11907053073E+03  0.14299017999E+03  0.00000000000E+00 0.  1.
</event>
<event>
12    1  0.8358445E-002  0.1907292E+03  0.7818608E-02  0.1157927E+00
         21   -1    0    0  501  502  0.00000000000E+00  0.00000000000E+00  0.16785945199E+03  0.16785945199E+03  0.00000000000E+00 0.  1.
         21   -1    0    0  502  503 -0.00000000000E+00 -0.00000000000E+00 -0.73254935759E+03  0.73254935759E+03  0.00000000000E+00 0. -1.
         -6    2    1    2    0  503  0.27852285136E+02  0.75776092787E+02 -0.66047630942E+03  0.68746386955E+03  0.17280003065E+03 0.  0.
        -24    2    3    3    0    0  0.43520141941E+02  0.39384966271E+02 -0.62870512229E+03  0.63646098573E+03  0.79795220615E+02 0.  0.
          6    2    1    2  501    0 -0.27852285136E+02 -0.75776092787E+02  0.95786403831E+02  0.21294494003E+03  0.17219972794E+03 0.  0.
         24    2    5    5    0    0  0.24888261089E+02 -0.60494381686E+01 -0.19722099683E+00  0.83028359817E+02  0.78978784465E+02 0.  0.
          5    1    5    5  501    0 -0.52740546225E+02 -0.69726654618E+02  0.95983624827E+02  0.12991658022E+03  0.47000000000E+01 0. -1.
        -11    1    6    6    0    0 -0.28656760160E+02  0.14298510803E+01  0.31216789515E+01  0.28861726498E+02  0.00000000000E+00 0.  1.
         12    1    6    6    0    0  0.53545021249E+02 -0.74792892489E+01 -0.33188999484E+01  0.54166633319E+02  0.00000000000E+00 0. -1.
         -5    1    3    3    0  503 -0.15667856806E+02  0.36391126516E+02 -0.31771187131E+02  0.51002883817E+02  0.47000000000E+01 0.  1.
         13    1    4    4    0    0  0.33066403218E+02 -0.27523447274E+01 -0.88525741529E+02  0.94539776478E+02  0.00000000000E+00 0. -1.
        -14    1    4    4    0    0  0.10453738723E+02  0.42137310998E+02 -0.54017938077E+03  0.54192120925E+03  0.00000000000E+00 0.  1.
</event>
<event>
12    1  0.8358445E-002  0.1844532E+03  0.7818608E-02  0.1167863E+00
         21   -1    0    0  501  502  0.00000000000E+00  0.00000000000E+00  0.52459978382E+03  0.52459978382E+03  0.00000000000E+00 0. -1.
         21   -1    0    0  502  503 -0.00000000000E+00 -0.00000000000E+00 -0.21093468863E+03  0.21093468863E+03  0.00000000000E+00 0. -1.
         -6    2    1    2    0  503 -0.41006385669E+02  0.63152261936E+00 -0.15747755035E+03  0.22957166037E+03  0.16193222624E+03 0.  0.
        -24    2    3    3    0    0 -0.83364485404E+02  0.23821255083E+02 -0.12702265525E+03  0.17228673268E+03  0.77658700031E+02 0.  0.
          6    2    1    2  501    0  0.41006385669E+02 -0.63152261936E+00  0.47114264554E+03  0.50596281208E+03  0.17983618177E+03 0.  0.
         24    2    5    5    0    0  0.26044394737E+02 -0.51768867597E+02  0.14290688110E+03  0.17339748574E+03  0.79284205526E+02 0.  0.
          5    1    5    5  501    0  0.14961990932E+02  0.51137344977E+02  0.32823576444E+03  0.33256532634E+03  0.47000000000E+01 0. -1.
        -11    1    6    6    0    0  0.21040736530E+02  0.16541664865E+02  0.61086420339E+02  0.66692503477E+02  0.00000000000E+00 0.  1.
         12    1    6    6    0    0  0.50036582070E+01 -0.68310532461E+02  0.81820460760E+02  0.10670498226E+03  0.00000000000E+00 0. -1.
         -5    1    3    3    0  503  0.42358099736E+02 -0.23189732464E+02 -0.30454895095E+02  0.57284927688E+02  0.47000000000E+01 0.  1.
         11    1    4    4    0    0  0.23587526921E+01  0.18047631476E+02 -0.61779743380E+02  0.64405103899E+02  0.00000000000E+00 0. -1.
        -12    1    4    4    0    0 -0.85723238097E+02  0.57736236073E+01 -0.65242911873E+02  0.10788162878E+03  0.00000000000E+00 0.  1.
</event>
<event>
12    1  0.8358445E-002  0.1971117E+03  0.7818608E-02  0.1153186E+00
         21   -1    0    0  503  502  0.00000000000E+00  0.00000000000E+00  0.10636733451E+04  0.10636733451E+04  0.00000000000E+00 0. -1.
         21   -1    0    0  501  503 -0.00000000000E+00 -0.00000000000E+00 -0.44950269035E+02  0.44950269035E+02  0.00000000000E+00 0. -1.
          6    2    1    2  501    0 -0.64923497153E+02  0.53039940147E+02  0.25309312651E+03  0.31802748330E+03  0.17336970242E+03 0.  0.
         24    2    3    3    0    0  0.24780709960E+01  0.77547610404E+02  0.10938295101E+03  0.15734673824E+03  0.82301842927E+02 0.  0.
         -6    2    1    2    0  502  0.64923497153E+02 -0.53039940147E+02  0.76562994955E+03  0.79059613083E+03  0.17839486174E+03 0.  0.
        -24    2    5    5    0    0  0.33118050511E+01  0.35540108648E+02  0.37036133522E+03  0.38083791782E+03  0.81215353541E+02 0.  0.
          5    1    3    3  501    0 -0.67401568149E+02 -0.24507670257E+02  0.14371017550E+03  0.16068074506E+03  0.47000000000E+01 0. -1.
        -13    1    4    4    0    0  0.23259233534E+02  0.29228070458E+02  0.96088978243E+02  0.10309395611E+03  0.00000000000E+00 0.  1.
         14    1    4    4    0    0 -0.20781162538E+02  0.48319539946E+02  0.13293972767E+02  0.54252782131E+02  0.00000000000E+00 0. -1.
         -5    1    5    5    0  502  0.61611692102E+02 -0.88580048795E+02  0.39526861433E+03  0.40975821300E+03  0.47000000000E+01 0.  1.
         13    1    6    6    0    0  0.38040191546E+02  0.33608589560E+02  0.26697094445E+03  0.27175370954E+03  0.00000000000E+00 0. -1.
        -14    1    6    6    0    0 -0.34728386495E+02  0.19315190883E+01  0.10339039077E+03  0.10908420829E+03  0.00000000000E+00 0.  1.
</event>
<event>
12    1  0.8358445E-002  0.2025784E+03  0.7818608E-02  0.1148987E+00
         21   -1    0    0  503  502  0.00000000000E+00  0.00000000000E+00  0.71858628911E+02  0.71858628911E+02  0.00000000000E+00 0.  1.
         21   -1    0    0  501  503 -0.00000000000E+00 -0.00000000000E+00 -0.56094513130E+03  0.56094513130E+03  0.00000000000E+00 0.  1.
          6    2    1    2  501    0  0.78725523020E+02 -0.73949970464E+02 -0.28740508561E+03  0.35162438008E+03  0.17138178237E+03 0.  0.
         24    2    3    3    0    0  0.78507062447E+02 -0.59001831976E+02 -0.95005399082E+02  0.15858753400E+03  0.80494751725E+02 0.  0.
         -6    2    1    2    0  502 -0.78725523020E+02  0.73949970464E+02 -0.20168141678E+03  0.28117938013E+03  0.16346297388E+03 0.  0.
        -24    2    5    5    0    0 -0.21070007600E+02  0.71514565815E+02 -0.51953550019E+02  0.12064709759E+03  0.79361656058E+02 0.  0.
          5    1    3    3  501    0  0.21846057349E+00 -0.14948138488E+02 -0.19239968653E+03  0.19303684608E+03  0.47000000000E+01 0. -1.
        -13    1    4    4    0    0 -0.81711853108E+01 -0.33608606546E+02 -0.39809312280E+02  0.52736022296E+02  0.00000000000E+00 0.  1.
         14    1    4    4    0    0  0.86678247757E+02 -0.25393225430E+02 -0.55196086802E+02  0.10585151171E+03  0.00000000000E+00 0. -1.
         -5    1    5    5    0  502 -0.57655515420E+02  0.24354046493E+01 -0.14972786676E+03  0.16053228255E+03  0.47000000000E+01 0.  1.
         13    1    6    6    0    0 -0.23453497656E+02  0.93702166984E+01  0.14913111503E+02  0.29330332558E+02  0.00000000000E+00 0. -1.
        -14    1    6    6    0    0  0.23834900561E+01  0.62144349116E+02 -0.66866661522E+02  0.91316765027E+02  0.00000000000E+00 0.  1.
</event>
<event>
12    1  0.8358445E-002  0.1801562E+03  0.7818608E-02  0.1168742E+00
         21   -1    0    0  501  502  0.00000000000E+00  0.00000000000E+00  0.37526853165E+03  0.37526853165E+03  0.00000000000E+00 0. -1.
         21   -1    0    0  502  503 -0.00000000000E+00 -0.00000000000E+00 -0.93855337847E+02  0.93855337847E+02  0.00000000000E+00 0. -1.
         -6    2    1    2    0  503 -0.53151496317E+02  0.30173766046E+01  0.67704829200E+02  0.19245828100E+03  0.17211060371E+03 0.  0.
        -24    2    3    3    0    0 -0.67718056875E+02  0.42492213472E+01 -0.17491347941E+02  0.10588934473E+03  0.79390269970E+02 0.  0.
          6    2    1    2  501    0  0.53151496317E+02 -0.30173766046E+01  0.21370836460E+03  0.27666558849E+03  0.16744669788E+03 0.  0.
         24    2    5    5    0    0  0.23887033206E+02  0.21728936773E+02  0.22085963811E+03  0.23739703186E+03  0.80843267751E+02 0.  0.
          5    1    5    5  501    0  0.29264463111E+02 -0.24746313377E+02 -0.71512735103E+01  0.39268556629E+02  0.47000000000E+01 0. -1.
        -11    1    6    6    0    0 -0.15532031713E+02 -0.22694367728E+02  0.63310084645E+02  0.69024960365E+02  0.00000000000E+00 0.  1.
         12    1    6    6    0    0  0.39419064919E+02  0.44423304501E+02  0.15754955347E+03  0.16837207149E+03  0.00000000000E+00 0. -1.
         -5    1    3    3    0  503  0.14566560558E+02 -0.12318447427E+01  0.85196177141E+02  0.86568936273E+02  0.47000000000E+01 0.  1.
         13    1    4    4    0    0 -0.56358033583E+02  0.72254795410E+00 -0.47436663104E+02  0.73668086926E+02  0.00000000000E+00 0. -1.
        -14    1    4    4    0    0 -0.11360023292E+02  0.35266733931E+01  0.29945315162E+02  0.32221257806E+02  0.00000000000E+00 0.  1.
</event>
<event>
12    1  0.8358445E-002  0.1751553E+03  0.7818608E-02  0.1172609E+00
         21   -1    0    0  503  502  0.00000000000E+00  0.00000000000E+00  0.53806014854E+03  0.53806014854E+03  0.00000000000E+00 0. -1.
         21   -1    0    0  501  503 -0.00000000000E+00 -0.00000000000E+00 -0.11613478994E+03  0.11613478994E+03  0.00000000000E+00 0.  1.
          6    2    1    2  501    0 -0.28326001729E+02 -0.83547037183E+01 -0.22533982908E+02  0.17646753661E+03  0.17251332599E+03 0.  0.
         24    2    3    3    0    0 -0.56438359252E+02 -0.45607654478E+02 -0.54070612927E+02  0.11994554073E+03  0.78727092009E+02 0.  0.
         -6    2    1    2    0  502  0.28326001729E+02  0.83547037183E+01  0.44445934151E+03  0.47772740187E+03  0.17264762031E+03 0.  0.
        -24    2    5    5    0    0  0.11473611726E+02  0.68209717360E+02  0.33896350393E+03  0.35517909527E+03  0.80447022360E+02 0.  0.
          5    1    3    3  501    0  0.28112357523E+02  0.37252950760E+02  0.31536630020E+02  0.56521995885E+02  0.47000000000E+01 0. -1.
        -11    1    4    4    0    0 -0.17513191639E+02 -0.62298050333E+02 -0.32977948819E+02  0.72631288471E+02  0.00000000000E+00 0.  1.
         12    1    4    4    0    0 -0.38925167613E+02  0.16690395855E+02 -0.21092664108E+02  0.47314252257E+02  0.00000000000E+00 0. -1.
         -5    1    5    5    0  502  0.16852390003E+02 -0.59855013642E+02  0.10549583757E+03  0.12254830661E+03  0.47000000000E+01 0.  1.
         11    1    6    6    0    0  0.11272049697E+02  0.15129169045E+02  0.25595842568E+03  0.25665281323E+03  0.00000000000E+00 0. -1.
        -12    1    6    6    0    0  0.20156202936E+00  0.53080548314E+02  0.83005078252E+02  0.98526282038E+02  0.00000000000E+00 0.  1.
</event>
<event>
12    1  0.8358445E-002  0.2151202E+03  0.7818608E-02  0.1138071E+00
         21   -1    0    0  503  502  0.00000000000E+00  0.00000000000E+00  0.92516711302E+02  0.92516711302E+02  0.00000000000E+00 0.  1.
         21   -1    0    0  501  503 -0.00000000000E+00 -0.00000000000E+00 -0.12623886748E+04  0.12623886748E+04  0.00000000000E+00 0. -1.
          6    2    1    2  501    0 -0.78070452698E+01  0.12809913825E+03 -0.11147606157E+04  0.11353272445E+04  0.17264525081E+03 0.  0.
         24    2    3    3    0    0 -0.24825321674E+02  0.13015784129E+03 -0.57361914642E+03  0.59389392473E+03  0.78190206846E+02 0.  0.
         -6    2    1    2    0  502  0.78070452698E+01 -0.12809913825E+03 -0.55111347834E+02  0.21957814163E+03  0.16943128532E+03 0.  0.
        -24    2    5    5    0    0 -0.45603831929E+02 -0.23990720853E+02 -0.27072313464E+02  0.99164015280E+02  0.80282797638E+02 0.  0.
          5    1    3    3  501    0  0.17018276404E+02 -0.20587030392E+01 -0.54114146926E+03  0.54143331975E+03  0.47000000000E+01 0. -1.
        -11    1    4    4    0    0 -0.16446065800E+02  0.17517654451E+02 -0.28883566283E+02  0.37571288226E+02  0.00000000000E+00 0.  1.
         12    1    4    4    0    0 -0.83792558745E+01  0.11264018684E+03 -0.54473558013E+03  0.55632263650E+03  0.00000000000E+00 0. -1.
         -5    1    5    5    0  502  0.53410877199E+02 -0.10410841740E+03 -0.28039034370E+02  0.12041412635E+03  0.47000000000E+01 0.  1.
         11    1    6    6    0    0  0.82241837653E+00 -0.57352111175E+01 -0.45586175831E+02  0.45952893765E+02  0.00000000000E+00 0. -1.
        -12    1    6    6    0    0 -0.46426250306E+02 -0.18255509736E+02  0.18513862366E+02  0.53211121515E+02  0.00000000000E+00 0.  1.
</event>
<event>
12    1  0.8358445E-002  0.2093202E+03  0.7818608E-02  0.1142107E+00
         21   -1    0    0  503  502  0.00000000000E+00  0.00000000000E+00  0.23304913560E+02  0.23304913560E+02  0.00000000000E+00 0. -1.
         21   -1    0    0  501  503 -0.00000000000E+00 -0.00000000000E+00 -0.24975559030E+04  0.24975559030E+04  0.00000000000E+00 0.  1.
          6    2    1    2  501    0  0.11823445092E+03  0.34085390537E+01 -0.18639068350E+04  0.18756235286E+04  0.17269605583E+03 0.  0.
         24    2    3    3    0    0  0.34723492950E+02  0.55426737533E+02 -0.11952231170E+04  0.11997241441E+04  0.80634226456E+02 0.  0.
         -6    2    1    2    0  502 -0.11823445092E+03 -0.34085390537E+01 -0.61034415445E+03  0.64523728804E+03  0.17268516868E+03 0.  0.
        -24    2    5    5    0    0 -0.56064333237E+02 -0.68492483623E+02 -0.38818720749E+03  0.40549400355E+03  0.76822191358E+02 0.  0.
          5    1    3    3  501    0  0.83510957967E+02 -0.52018198480E+02 -0.66868371805E+03  0.67589938442E+03  0.47000000000E+01 0. -1.
        -13    1    4    4    0    0 -0.19093167206E+02 -0.41444609541E+00 -0.46548909498E+03  0.46588069110E+03  0.00000000000E+00 0.  1.
         14    1    4    4    0    0  0.53816660157E+02  0.55841183629E+02 -0.72973402200E+03  0.73384345304E+03  0.00000000000E+00 0. -1.
         -5    1    5    5    0  502 -0.62170117680E+02  0.65083944569E+02 -0.22215694697E+03  0.23974328449E+03  0.47000000000E+01 0.  1.
         13    1    6    6    0    0  0.17373504746E+02 -0.15571155478E+02 -0.46563168645E+02  0.52080977567E+02  0.00000000000E+00 0. -1.
        -14    1    6    6    0    0 -0.73437837983E+02 -0.52921328144E+02 -0.34162403884E+03  0.35341302598E+03  0.00000000000E+00 0.  1.
</event>
<event>
12    1  0.8358445E-002  0.2903787E+03  0.7818608E-02  0.1090315E+00
         21   -1    0    0  503  502  0.00000000000E+00  0.00000000000E+00  0.49595296662E+03  0.49595296662E+03  0.00000000000E+00 0.  1.
         21   -1    0    0  501  503 -0.00000000000E+00 -0.00000000000E+00 -0.21630743120E+03  0.21630743120E+03  0.00000000000E+00 0. -1.
          6    2    1    2  501    0  0.22764736456E+03 -0.46554586907E+02 -0.25988808538E+02  0.29153936760E+03  0.17415261277E+03 0.  0.
         24    2    3    3    0    0  0.18481579015E+03 -0.58424811940E+02 -0.76668394779E+02  0.22396750606E+03  0.81933302612E+02 0.  0.
         -6    2    1    2    0  502 -0.22764736456E+03  0.46554586907E+02  0.30563434396E+03  0.42072103022E+03  0.17205574942E+03 0.  0.
        -24    2    5    5    0    0 -0.15007441624E+03  0.65406431499E+01  0.28507308714E+03  0.33092385160E+03  0.75357946667E+02 0.  0.
          5    1    3    3  501    0  0.42831574416E+02  0.11870225033E+02  0.50679586241E+02  0.67571861532E+02  0.47000000000E+01 0. -1.
        -11    1    4    4    0    0  0.70463232445E+02 -0.61961793678E+02 -0.18560944189E+02  0.95649566918E+02  0.00000000000E+00 0.  1.
         12    1    4    4    0    0  0.11435255770E+03  0.35369817377E+01 -0.58107450590E+02  0.12831793915E+03  0.00000000000E+00 0. -1.
         -5    1    5    5    0  502 -0.77572948322E+02  0.40013943757E+02  0.20561256823E+02  0.89797178622E+02  0.47000000000E+01 0.  1.
         11    1    6    6    0    0 -0.46354919270E+02  0.18542504565E+02  0.38151509607E+02  0.62834231923E+02  0.00000000000E+00 0. -1.
        -12    1    6    6    0    0 -0.10371949697E+03 -0.12001861415E+02  0.24692157753E+03  0.26808961968E+03  0.00000000000E+00 0.  1.
</event>
<event>
12    1  0.8358445E-002  0.2124796E+03  0.7818608E-02  0.1140142E+00
         21   -1    0    0  503  502  0.00000000000E+00  0.00000000000E+00  0.29692842935E+03  0.29692842935E+03  0.00000000000E+00 0. -1.
         21   -1    0    0  501  503 -0.00000000000E+00 -0.00000000000E+00 -0.16725309709E+03  0.16725309709E+03  0.00000000000E+00 0.  1.
          6    2    1    2  501    0 -0.16517050314E+02 -0.12219090261E+03  0.13944006995E+03  0.25414779239E+03  0.17304374488E+03 0.  0.
         24    2    3    3    0    0  0.27593098453E+02 -0.29579276416E+02  0.11698401284E+03  0.14903364953E+03  0.83002751494E+02 0.  0.
         -6    2    1    2    0  502  0.16517050314E+02  0.12219090261E+03 -0.97647376835E+01  0.21003373405E+03  0.16975096378E+03 0.  0.
        -24    2    5    5    0    0  0.61532323519E+02  0.31340941929E+02 -0.23208044653E+02  0.10764768676E+03  0.79252316368E+02 0.  0.
          5    1    3    3  501    0 -0.44110148768E+02 -0.92611626189E+02  0.22456057106E+02  0.10511414287E+03  0.47000000000E+01 0. -1.
        -13    1    4    4    0    0 -0.66660268410E+01  0.10974040145E+02  0.87243634962E+02  0.88183429919E+02  0.00000000000E+00 0.  1.
         14    1    4    4    0    0  0.34259125294E+02 -0.40553316560E+02  0.29740377879E+02  0.60850219608E+02  0.00000000000E+00 0. -1.
         -5    1    5    5    0  502 -0.45015273205E+02  0.90849960676E+02  0.13443306970E+02  0.10238604729E+03  0.47000000000E+01 0.  1.
         13    1    6    6    0    0  0.40415471403E+02  0.50048584195E+02  0.88596623172E+01  0.64936620832E+02  0.00000000000E+00 0. -1.
        -14    1    6    6    0    0  0.21116852116E+02 -0.18707642266E+02 -0.32067706970E+02  0.42711065929E+02  0.00000000000E+00 0.  1.
</event>
<event>
12    1  0.8358445E-002  0.2056628E+03  0.7818608E-02  0.1145698E+00
         21   -1    0    0  501  502  0.00000000000E+00  0.00000000000E+00  0.17550832200E+03  0.17550832200E+03  0.00000000000E+00 0.  1.
         21   -1    0    0  502  503 -0.00000000000E+00 -0.00000000000E+00 -0.30188615636E+03  0.30188615636E+03  0.00000000000E+00 0.  1.
         -6    2    1    2    0  503  0.88203883382E+02 -0.74039110085E+02 -0.17398228929E+03  0.26938269597E+03  0.17039801946E+03 0.  0.
        -24    2    3    3    0    0  0.78779686953E+02  0.38323138895E+01 -0.51712366885E+02  0.12403897208E+03  0.80564086285E+02 0.  0.
          6    2    1    2  501    0 -0.88203883382E+02  0.74039110085E+02  0.47604454930E+02  0.20801178239E+03  0.16655630465E+03 0.  0.
         24    2    5    5    0    0 -0.25680997944E+02  0.34857437977E+02  0.93300344803E+02  0.12109504646E+03  0.63910103269E+02 0.  0.
          5    1    5    5  501    0 -0.62522885438E+02  0.39181672108E+02 -0.45695889873E+02  0.86916735925E+02  0.47000000000E+01 0. -1.
        -11    1    6    6    0    0 -0.11773967472E+02  0.51632964855E+02  0.51054759072E+02  0.73560708218E+02  0.00000000000E+00 0.  1.
         12    1    6    6    0    0 -0.13907030472E+02 -0.16775526878E+02  0.42245585731E+02  0.47534338245E+02  0.00000000000E+00 0. -1.
         -5    1    3    3    0  503  0.94241964292E+01 -0.77871423974E+02 -0.12226992240E+03  0.14534372389E+03  0.47000000000E+01 0.  1.
         11    1    4    4    0    0  0.36172481976E+02 -0.32638310861E+02 -0.14728649880E+01  0.48742969948E+02  0.00000000000E+00 0. -1.
        -12    1    4    4    0    0  0.42607204977E+02  0.36470624750E+02 -0.50239501897E+02  0.75296002128E+02  0.00000000000E+00 0.  1.
</event>
<event>
12    1  0.8358445E-002  0.2090312E+03  0.7818608E-02  0.1142483E+00
         21   -1    0    0  501  502  0.00000000000E+00  0.00000000000E+00  0.96641822597E+03  0.96641822597E+03  0.00000000000E+00 0.  1.
         21   -1    0    0  502  503 -0.00000000000E+00 -0.00000000000E+00 -0.69862956955E+02  0.69862956955E+02  0.00000000000E+00 0.  1.
         -6    2    1    2    0  503 -0.29932097589E+02 -0.11542686676E+03  0.14001584078E+03  0.25159187700E+03  0.17168210409E+03 0.  0.
        -24    2    3    3    0    0  0.23270586373E+02 -0.39975718050E+02  0.86349756592E+01  0.90948099829E+02  0.77829402118E+02 0.  0.
          6    2    1    2  501    0  0.29932097589E+02  0.11542686676E+03  0.75653942824E+03  0.78468930593E+03  0.17078087810E+03 0.  0.
         24    2    5    5    0    0  0.20520569760E+02  0.13835180901E+03  0.73142203385E+03  0.74909291097E+03  0.81238419646E+02 0.  0.
          5    1    5    5  501    0  0.94115278283E+01 -0.22924942249E+02  0.25117394386E+02  0.35596394956E+02  0.47000000000E+01 0. -1.
        -13    1    6    6    0    0  0.19444498287E+02  0.49843283156E+02  0.12118589811E+03  0.13247061293E+03  0.00000000000E+00 0.  1.
         14    1    6    6    0    0  0.10760714736E+01  0.88508525856E+02  0.61023613574E+03  0.61662229804E+03  0.00000000000E+00 0. -1.
         -5    1    3    3    0  503 -0.53202683962E+02 -0.75451148712E+02  0.13138086512E+03  0.16064377717E+03  0.47000000000E+01 0.  1.
         13    1    4    4    0    0  0.33945146203E+02 -0.57256308425E+02  0.17441236845E+02  0.68809552737E+02  0.00000000000E+00 0. -1.
        -14    1    4    4    0    0 -0.10674559830E+02  0.17280590375E+02 -0.88062611861E+01  0.22138547092E+02  0.00000000000E+00 0.  1.
</event>
<event>
12    1  0.8358445E-002  0.2129708E+03  0.7818608E-02  0.1141188E+00
         21   -1    0    0  501  502  0.00000000000E+00  0.00000000000E+00  0.20239085654E+03  0.20239085654E+03  0.00000000000E+00 0. -1.
         21   -1    0    0  502  503 -0.00000000000E+00 -0.00000000000E+00 -0.11171552712E+04  0.11171552712E+04  0.00000000000E+00 0. -1.
         -6    2    1    2    0  503 -0.78949808983E+02  0.71431380509E+02 -0.10485418235E+04  0.10680447449E+04  0.17304365642E+03 0.  0.
        -24    2    3    3    0    0  0.12697382482E+02  0.40365865180E+02 -0.30383324099E+03  0.31706056610E+03  0.80138240889E+02 0.  0.
          6    2    1    2  501    0  0.78949808983E+02 -0.71431380509E+02  0.13377740890E+03  0.25150138277E+03  0.18444792204E+03 0.  0.
         24    2    5    5    0    0  0.58229968917E+01 -0.54685945187E+02  0.14872275684E+03  0.17486331341E+03  0.73717434025E+02 0.  0.
          5    1    5    5  501    0  0.73126812091E+02 -0.16745435322E+02 -0.14945347941E+02  0.76638069364E+02  0.47000000000E+01 0. -1.
        -13    1    6    6    0    0 -0.25767120916E+00 -0.63492938423E+02  0.66488322799E+02  0.91935394124E+02  0.00000000000E+00 0.  1.
         14    1    6    6    0    0  0.60806681009E+01  0.88069932358E+01  0.82234434040E+02  0.82927919281E+02  0.00000000000E+00 0. -1.
         -5    1    3    3    0  503 -0.91647191465E+02  0.31065515330E+02 -0.74470858256E+03  0.75098417885E+03  0.47000000000E+01 0.  1.
         13    1    4    4    0    0 -0.21822187540E+02  0.50130731511E+02 -0.17706870173E+03  0.18531762798E+03  0.00000000000E+00 0. -1.
        -14    1    4    4    0    0  0.34519570023E+02 -0.97648663308E+01 -0.12676453926E+03  0.13174293811E+03  0.00000000000E+00 0.  1.
</event>
<event>
12    1  0.8358445E-002  0.2400965E+03  0.7818608E-02  0.1121279E+00
         21   -1    0    0  503  502  0.00000000000E+00  0.00000000000E+00  0.15777861792E+03  0.15777861792E+03  0.00000000000E+00 0.  1.
         21   -1    0    0  501  503 -0.00000000000E+00 -0.00000000000E+00 -0.35368802052E+03  0.35368802052E+03  0.00000000000E+00 0.  1.
          6    2    1    2  501    0  0.16297728608E+03 -0.35177181157E+02 -0.11944665441E+03  0.26816758697E+03  0.17276377398E+03 0.  0.
         24    2    3    3    0    0  0.95823170382E+02  0.43172983610E+02 -0.76695580118E+02  0.15637238167E+03  0.86741704187E+02 0.  0.
         -6    2    1    2    0  502 -0.16297728608E+03  0.35177181157E+02 -0.76462748187E+02  0.24329905147E+03  0.15984006611E+03 0.  0.
        -24    2    5    5    0    0 -0.60699866498E+02 -0.15218218088E+02  0.76198664459E+01  0.10155158975E+03  0.79615294142E+02 0.  0.
          5    1    3    3  501    0  0.67154115698E+02 -0.78350164766E+02 -0.42751074292E+02  0.11179520530E+03  0.47000000000E+01 0. -1.
        -11    1    4    4    0    0  0.14492776939E+02 -0.18107923431E+02  0.73560041459E+01  0.24332042071E+02  0.00000000000E+00 0.  1.
         12    1    4    4    0    0  0.81330393443E+02  0.61280907040E+02 -0.84051584264E+02  0.13204033960E+03  0.00000000000E+00 0. -1.
         -5    1    5    5    0  502 -0.10227741958E+03  0.50395399245E+02 -0.84082614633E+02  0.14174746172E+03  0.47000000000E+01 0.  1.
         13    1    6    6    0    0 -0.18415499927E+02  0.32594164576E+02  0.30035330024E+01  0.37557042115E+02  0.00000000000E+00 0. -1.
        -14    1    6    6    0    0 -0.42284366571E+02 -0.47812382664E+02  0.46163334435E+01  0.63994547634E+02  0.00000000000E+00 0.  1.
</event>
<event>
12    1  0.8358445E-002  0.2101739E+03  0.7818608E-02  0.1142436E+00
         21   -1    0    0  503  502  0.00000000000E+00  0.00000000000E+00  0.40240194145E+03  0.40240194145E+03  0.00000000000E+00 0. -1.
         21   -1    0    0  501  503 -0.00000000000E+00 -0.00000000000E+00 -0.11180759796E+03  0.11180759796E+03  0.00000000000E+00 0.  1.
          6    2    1    2  501    0 -0.95636443302E+02 -0.55996467925E+02  0.19938475719E+03  0.28970218120E+03  0.17858090236E+03 0.  0.
         24    2    3    3    0    0 -0.12017691233E+03  0.72093312390E+01  0.13921247674E+03  0.19892772994E+03  0.75482867886E+02 0.  0.
         -6    2    1    2    0  502  0.95636443302E+02  0.55996467925E+02  0.91209586296E+02  0.22450735821E+03  0.17263380767E+03 0.  0.
        -24    2    5    5    0    0  0.75896886983E+02  0.87832154418E+02  0.11473386519E+03  0.18002542125E+03  0.75963594381E+02 0.  0.
          5    1    3    3  501    0  0.24540469028E+02 -0.63205799164E+02  0.60172280449E+02  0.90774451265E+02  0.47000000000E+01 0. -1.
        -13    1    4    4    0    0  0.86663473445E+01  0.91398790366E+01  0.18361366818E+02  0.22266179657E+02  0.00000000000E+00 0.  1.
         14    1    4    4    0    0 -0.12884325967E+03 -0.19305477976E+01  0.12085110992E+03  0.17666155028E+03  0.00000000000E+00 0. -1.
         -5    1    5    5    0  502  0.19739556319E+02 -0.31835686493E+02 -0.23524278894E+02  0.44481936959E+02  0.47000000000E+01 0.  1.
         13    1    6    6    0    0  0.47417173937E+01  0.53708532934E+02  0.73006422289E+02  0.90758074512E+02  0.00000000000E+00 0. -1.
        -14    1    6    6    0    0  0.71155169589E+02  0.34123621484E+02  0.41727442902E+02  0.89267346738E+02  0.00000000000E+00 0.  1.
</event>
<event>
12    1  0.8358445E-002  0.2348370E+03  0.7818608E-02  0.1123457E+00
         21   -1    0    0  503  502  0.00000000000E+00  0.00000000000E+00  0.13558307799E+03  0.13558307799E+03  0.00000000000E+00 0.  1.
         21   -1    0    0  501  503 -0.00000000000E+00 -0.00000000000E+00 -0.40756919328E+03  0.40756919328E+03  0.00000000000E+00 0.  1.
          6    2    1    2  501    0  0.13303093349E+03 -0.86152857797E+02 -0.15736463382E+03  0.28183542469E+03  0.17189541722E+03 0.  0.
         24    2    3    3    0    0  0.12854813197E+03 -0.20270729456E+02 -0.15201646015E+03  0.21541823335E+03  0.79752657612E+02 0.  0.
         -6    2    1    2    0  502 -0.13303093349E+03  0.86152857797E+02 -0.11462148147E+03  0.26131684657E+03  0.17328839003E+03 0.  0.
        -24    2    5    5    0    0 -0.79742243689E+02  0.73416644503E+01 -0.11864689662E+03  0.16597964175E+03  0.84020413774E+02 0.  0.
          5    1    3    3  501    0  0.44828015147E+01 -0.65882128341E+02 -0.53481736720E+01  0.66417191342E+02  0.47000000000E+01 0. -1.
        -13    1    4    4    0    0  0.64543974785E+02 -0.44714598912E+02 -0.51968380205E+02  0.94159612245E+02  0.00000000000E+00 0.  1.
         14    1    4    4    0    0  0.64004157187E+02  0.24443869456E+02 -0.10004807995E+03  0.12125862110E+03  0.00000000000E+00 0. -1.
         -5    1    5    5    0  502 -0.53288689798E+02  0.78811193347E+02  0.40254151555E+01  0.95337204827E+02  0.47000000000E+01 0.  1.
         13    1    6    6    0    0 -0.71223415250E+02  0.15637843505E+02 -0.13030896309E+03  0.14932428768E+03  0.00000000000E+00 0. -1.
        -14    1    6    6    0    0 -0.85188284388E+01 -0.82961790552E+01  0.11662066466E+02  0.16655354068E+02  0.00000000000E+00 0.  1.
</event>
<event>
12    1  0.8358445E-002  0.2482035E+03  0.7818608E-02  0.1114849E+00
         21   -1    0    0  501  502  0.00000000000E+00  0.00000000000E+00  0.13522892527E+03  0.13522892527E+03  0.00000000000E+00 0.  1.
         21   -1    0    0  502  503 -0.00000000000E+00 -0.00000000000E+00 -0.54698029580E+03  0.54698029580E+03  0.00000000000E+00 0.  1.
         -6    2    1    2    0  503  0.32336801548E+02 -0.17533728418E+03 -0.34792837278E+03  0.42593130477E+03  0.16903991198E+03 0.  0.
        -24    2    3    3    0    0 -0.27419937415E+02 -0.15928606505E+03 -0.28409554144E+03  0.33690754477E+03  0.81685455095E+02 0.  0.
          6    2    1    2  501    0 -0.32336801548E+02  0.17533728418E+03 -0.63822997755E+02  0.25627791630E+03  0.17267357466E+03 0.  0.
         24    2    5    5    0    0 -0.21838607173E+02  0.20223492657E+03 -0.51254833906E+02  0.22443856967E+03  0.79810546098E+02 0.  0.
          5    1    5    5  501    0 -0.10498194375E+02 -0.26897642393E+02 -0.12568163849E+02  0.31839346632E+02  0.47000000000E+01 0. -1.
        -13    1    6    6    0    0 -0.19937372579E+02  0.14800378972E+03 -0.72692752608E+02  0.16609291640E+03  0.00000000000E+00 0.  1.
         14    1    6    6    0    0 -0.19012345935E+01  0.54231136857E+02  0.21437918702E+02  0.58345653275E+02  0.00000000000E+00 0. -1.
         -5    1    3    3    0  503  0.59756738963E+02 -0.16051219131E+02 -0.63832831339E+02  0.89023759996E+02  0.47000000000E+01 0.  1.
         11    1    4    4    0    0 -0.47938158415E+02 -0.15177295282E+03 -0.25303879900E+03  0.29893432396E+03  0.00000000000E+00 0. -1.
        -12    1    4    4    0    0  0.20518220999E+02 -0.75131122260E+01 -0.31056742437E+02  0.37973220816E+02  0.00000000000E+00 0.  1.
</event>
<event>
12    1  0.8358445E-002  0.2330926E+03  0.7818608E-02  0.1124851E+00
         21   -1    0    0  503  502  0.00000000000E+00  0.00000000000E+00  0.40623179610E+03  0.40623179610E+03  0.00000000000E+00 0. -1.
         21   -1    0    0  501  503 -0.00000000000E+00 -0.00000000000E+00 -0.13631992472E+03  0.13631992472E+03  0.00000000000E+00 0. -1.
          6    2    1    2  501    0 -0.41649422962E+02 -0.15056822379E+03  0.89121922026E+02  0.24756499715E+03  0.17011833053E+03 0.  0.
         24    2    3    3    0    0  0.39255568742E+01 -0.69278908173E+02  0.10887601075E+03  0.15218499064E+03  0.80568657337E+02 0.  0.
         -6    2    1    2    0  502  0.41649422962E+02  0.15056822379E+03  0.18078994936E+03  0.29498672367E+03  0.17299334351E+03 0.  0.
        -24    2    5    5    0    0  0.57653752219E+02  0.22398794798E+02  0.10320179514E+03  0.14423675597E+03  0.79548539275E+02 0.  0.
          5    1    3    3  501    0 -0.45574979836E+02 -0.81289315618E+02 -0.19754088725E+02  0.95380006511E+02  0.47000000000E+01 0. -1.
        -13    1    4    4    0    0 -0.42474655367E+01 -0.21352894265E+02 -0.98457694201E+01  0.23894062703E+02  0.00000000000E+00 0.  1.
         14    1    4    4    0    0  0.81730224110E+01 -0.47926013908E+02  0.11872178017E+03  0.12829092794E+03  0.00000000000E+00 0. -1.
         -5    1    5    5    0  502 -0.16004329257E+02  0.12816942899E+03  0.77588154228E+02  0.15074996769E+03  0.47000000000E+01 0.  1.
         13    1    6    6    0    0  0.65742178028E+02  0.39904288389E+02  0.97395431400E+02  0.12409776896E+03  0.00000000000E+00 0. -1.
        -14    1    6    6    0    0 -0.80884258089E+01 -0.17505493592E+02  0.58063637358E+01  0.20138987010E+02  0.00000000000E+00 0.  1.
</event>
<event>
12    1  0.8358445E-002  0.1722803E+03  0.7818608E-02  0.1176117E+00
         21   -1    0    0  503  502  0.00000000000E+00  0.00000000000E+00  0.94514154925E+02  0.94514154925E+02  0.00000000000E+00 0. -1.
         21   -1    0    0  501  503 -0.00000000000E+00 -0.00000000000E+00 -0.35323200447E+03  0.35323200447E+03  0.00000000000E+00 0. -1.
          6    2    1    2  501    0 -0.43561773081E+01 -0.11073789065E+02 -0.20881973627E+03  0.27071417953E+03  0.17186878615E+03 0.  0.
         24    2    3    3    0    0 -0.33097902194E+02 -0.64593113678E+02 -0.10743304050E+03  0.15242742229E+03  0.80153099827E+02 0.  0.
         -6    2    1    2    0  502  0.43561773081E+01  0.11073789065E+02 -0.49898113273E+02  0.17703197987E+03  0.16943699449E+03 0.  0.
        -24    2    5    5    0    0 -0.23070233889E+02  0.54426793597E+02 -0.70304709535E+02  0.12162250230E+03  0.79716807079E+02 0.  0.
          5    1    3    3  501    0  0.28741724886E+02  0.53519324613E+02 -0.10138669578E+03  0.11828675723E+03  0.47000000000E+01 0. -1.
        -11    1    4    4    0    0 -0.54934215433E+02 -0.41359386614E+02 -0.44580354329E+02  0.81949831473E+02  0.00000000000E+00 0.  1.
         12    1    4    4    0    0  0.21836313239E+02 -0.23233727064E+02 -0.62852686167E+02  0.70477590819E+02  0.00000000000E+00 0. -1.
         -5    1    5    5    0  502  0.27426411197E+02 -0.43353004532E+02  0.20406596263E+02  0.55409477566E+02  0.47000000000E+01 0.  1.
         11    1    6    6    0    0 -0.40767523450E+02  0.14773833932E+02 -0.56344670382E+01  0.43726472029E+02  0.00000000000E+00 0. -1.
        -12    1    6    6    0    0  0.17697289561E+02  0.39652959665E+02 -0.64670242497E+02  0.77896030275E+02  0.00000000000E+00 0.  1.
</event>
<event>
12    1  0.8358445E-002  0.1920643E+03  0.7818608E-02  0.1157424E+00
         21   -1    0    0  503  502  0.00000000000E+00  0.00000000000E+00  0.21080662380E+04  0.21080662380E+04  0.00000000000E+00 0.  1.
         21   -1    0    0  501  503 -0.00000000000E+00 -0.00000000000E+00 -0.47051180413E+02  0.47051180413E+02  0.00000000000E+00 0.  1.
          6    2    1    2  501    0 -0.64371034658E+02  0.46276970378E+02  0.17538462981E+03  0.26009320190E+03  0.17493860984E+03 0.  0.
         24    2    3    3    0    0 -0.81697482616E+02  0.83447139360E+02  0.14031447554E+03  0.20592833339E+03  0.95291252020E+02 0.  0.
         -6    2    1    2    0  502  0.64371034658E+02 -0.46276970378E+02  0.18856304278E+04  0.18950242165E+04  0.17096632100E+03 0.  0.
        -24    2    5    5    0    0  0.55667155778E+02 -0.96553175683E+02  0.12592439528E+04  0.12665454497E+04  0.77593140599E+02 0.  0.
          5    1    3    3  501    0  0.17326447958E+02 -0.37170168981E+02  0.35070154268E+02  0.54164868516E+02  0.47000000000E+01 0. -1.
        -13    1    4    4    0    0  0.10795322336E+02  0.43115814189E+02  0.19546851650E+02  0.48555039150E+02  0.00000000000E+00 0.  1.
         14    1    4    4    0    0 -0.92492804951E+02  0.40331325171E+02  0.12076762389E+03  0.15737329424E+03  0.00000000000E+00 0. -1.
         -5    1    5    5    0  502  0.87038788798E+01  0.50276205305E+02  0.62638647501E+03  0.62847876687E+03  0.47000000000E+01 0.  1.
         13    1    6    6    0    0 -0.49349715794E+01  0.69903225079E+01  0.25758194260E+03  0.25772403013E+03  0.00000000000E+00 0. -1.
        -14    1    6    6    0    0  0.60602127358E+02 -0.10354349819E+03  0.10016620102E+04  0.10088214195E+04  0.00000000000E+00 0.  1.
</event>
<event>
12    1  0.8358445E-002  0.2096690E+03  0.7818608E-02  0.1142963E+00
         21   -1    0    0  503  502  0.00000000000E+00  0.00000000000E+00  0.40548631401E+03  0.40548631401E+03  0.00000000000E+00 0. -1.
         21   -1    0    0  501  503 -0.00000000000E+00 -0.00000000000E+00 -0.34848941042E+03  0.34848941042E+03  0.00000000000E+00 0. -1.
          6    2    1    2  501    0  0.37020545899E+02  0.10954022637E+03 -0.28615544191E+03  0.35474781520E+03  0.17490424077E+03 0.  0.
         24    2    3    3    0    0  0.15155786389E+02  0.14295438805E+03 -0.25643478694E+03  0.30474800278E+03  0.80292529682E+02 0.  0.
         -6    2    1    2    0  502 -0.37020545899E+02 -0.10954022637E+03  0.34315234551E+03  0.39922790923E+03  0.16810654142E+03 0.  0.
        -24    2    5    5    0    0  0.22236234894E+02 -0.11941610636E+02  0.96332534490E+02  0.12723716495E+03  0.79197769768E+02 0.  0.
          5    1    3    3  501    0  0.21864759510E+02 -0.33414161681E+02 -0.29720654970E+02  0.49999812411E+02  0.47000000000E+01 0. -1.
        -13    1    4    4    0    0  0.36081591548E+02  0.44473202416E+02 -0.54259912036E+02  0.78891603076E+02  0.00000000000E+00 0.  1.
         14    1    4    4    0    0 -0.20925805159E+02  0.98481185632E+02 -0.20217487491E+03  0.22585639971E+03  0.00000000000E+00 0. -1.
         -5    1    5    5    0  502 -0.59256780793E+02 -0.97598615732E+02  0.24681981102E+03  0.27199074428E+03  0.47000000000E+01 0.  1.
         11    1    6    6    0    0  0.35761578755E+01 -0.45007522999E+02  0.51613807543E+02  0.68574420601E+02  0.00000000000E+00 0. -1.
        -12    1    6    6    0    0  0.18660077018E+02  0.33065912363E+02  0.44718726947E+02  0.58662744348E+02  0.00000000000E+00 0.  1.
</event>
<event>
12    1  0.8358445E-002  0.2189601E+03  0.7818608E-02  0.1134821E+00
         21   -1    0    0  503  502  0.00000000000E+00  0.00000000000E+00  0.12269262041E+04  0.12269262041E+04  0.00000000000E+00 0.  1.
         21   -1    0    0  501  503 -0.00000000000E+00 -0.00000000000E+00 -0.38928349103E+02  0.38928349103E+02  0.00000000000E+00 0.  1.
          6    2    1    2  501    0  0.56668324189E+02  0.12220923673E+03  0.58834624219E+03  0.62776973790E+03  0.17261850019E+03 0.  0.
         24    2    3    3    0    0  0.24817085436E-01  0.36045427551E+02  0.43109407842E+03  0.43966598482E+03  0.78516242260E+02 0.  0.
         -6    2    1    2    0  502 -0.56668324189E+02 -0.12220923673E+03  0.59965161281E+03  0.63808481532E+03  0.17153360686E+03 0.  0.
        -24    2    5    5    0    0 -0.11819465007E+02  0.41528960743E+01  0.19662636525E+03  0.21331399599E+03  0.81755654704E+02 0.  0.
          5    1    3    3  501    0  0.56643507104E+02  0.86163809175E+02  0.15725216377E+03  0.18810375307E+03  0.47000000000E+01 0. -1.
        -11    1    4    4    0    0  0.21824820974E+02  0.49305986091E+02  0.19907527402E+03  0.20624831588E+03  0.00000000000E+00 0.  1.
         12    1    4    4    0    0 -0.21800003889E+02 -0.13260558540E+02  0.23201880439E+03  0.23341766894E+03  0.00000000000E+00 0. -1.
         -5    1    5    5    0  502 -0.44848859182E+02 -0.12636213280E+03  0.40302524757E+03  0.42477081933E+03  0.47000000000E+01 0.  1.
         11    1    6    6    0    0 -0.29225206841E+02 -0.29621740021E+01  0.19649670022E+02  0.35341147713E+02  0.00000000000E+00 0. -1.
        -12    1    6    6    0    0  0.17405741834E+02  0.71150700764E+01  0.17697669522E+03  0.17797284828E+03  0.00000000000E+00 0.  1.
</event>
<event>
12    1  0.8358445E-002  0.1969752E+03  0.7818608E-02  0.1152643E+00
         21   -1    0    0  501  502  0.00000000000E+00  0.00000000000E+00  0.58466082891E+03  0.58466082891E+03  0.00000000000E+00 0. -1.
         21   -1    0    0  502  503 -0.00000000000E+00 -0.00000000000E+00 -0.17165286999E+03  0.17165286999E+03  0.00000000000E+00 0. -1.
         -6    2    1    2    0  503  0.41663930126E+02 -0.84612685166E+02 -0.90074508199E+02  0.21659325352E+03  0.17292781985E+03 0.  0.
        -24    2    3    3    0    0  0.38787374489E+02 -0.33202863391E+02 -0.12289716785E+03  0.15535061042E+03  0.80144917079E+02 0.  0.
          6    2    1    2  501    0 -0.41663930126E+02  0.84612685166E+02  0.50308246712E+03  0.53972044538E+03  0.17120455857E+03 0.  0.
         24    2    5    5    0    0 -0.44173414436E+02 -0.13325801825E+02  0.22411157297E+03  0.24400927798E+03  0.84768290429E+02 0.  0.
          5    1    5    5  501    0  0.25094843090E+01  0.97938486991E+02  0.27897089415E+03  0.29571116740E+03  0.47000000000E+01 0. -1.
        -11    1    6    6    0    0 -0.25964030153E+02  0.25754550932E+02  0.37108992475E+02  0.52100912449E+02  0.00000000000E+00 0.  1.
         12    1    6    6    0    0 -0.18209384282E+02 -0.39080352757E+02  0.18700258050E+03  0.19190836553E+03  0.00000000000E+00 0. -1.
         -5    1    3    3    0  503  0.28765556371E+01 -0.51409821776E+02  0.32822659653E+02  0.61242643101E+02  0.47000000000E+01 0.  1.
         13    1    4    4    0    0  0.95002666809E+01  0.26608922583E+02 -0.41018982138E+02  0.49808098977E+02  0.00000000000E+00 0. -1.
        -14    1    4    4    0    0  0.29287107808E+02 -0.59811785974E+02 -0.81878185713E+02  0.10554251144E+03  0.00000000000E+00 0.  1.
</event>
<event>
12    1  0.8358445E-002  0.2748996E+03  0.7818608E-02  0.1098958E+00
         21   -1    0    0  503  502  0.00000000000E+00  0.00000000000E+00  0.38575732256E+03  0.38575732256E+03  0.00000000000E+00 0.  1.
         21   -1    0    0  501  503 -0.00000000000E+00 -0.00000000000E+00 -0.19731636519E+03  0.19731636519E+03  0.00000000000E+00 0. -1.
          6    2    1    2  501    0  0.19751117104E+03 -0.83057281878E+02  0.13354024670E+03  0.30274556368E+03  0.16707095523E+03 0.  0.
         24    2    3    3    0    0  0.21641219992E+03 -0.58276916399E+02  0.11013940353E+03  0.26348992883E+03  0.84058403081E+02 0.  0.
         -6    2    1    2    0  502 -0.19751117104E+03  0.83057281878E+02  0.54900710673E+02  0.28032812407E+03  0.17222251408E+03 0.  0.
        -24    2    5    5    0    0 -0.14273414985E+03  0.32159151396E+02 -0.26890495303E+02  0.16940908553E+03  0.81049928869E+02 0.  0.
          5    1    3    3  501    0 -0.18901028882E+02 -0.24780365479E+02  0.23400843174E+02  0.39255634848E+02  0.47000000000E+01 0. -1.
        -11    1    4    4    0    0  0.70138693348E+02 -0.59759479214E+02  0.54030068637E+02  0.10681703973E+03  0.00000000000E+00 0.  1.
         12    1    4    4    0    0  0.14627350657E+03  0.14825628146E+01  0.56109334888E+02  0.15667288910E+03  0.00000000000E+00 0. -1.
         -5    1    5    5    0  502 -0.54777021185E+02  0.50898130482E+02  0.81791205975E+02  0.11091903854E+03  0.47000000000E+01 0.  1.
         13    1    6    6    0    0 -0.14252863317E+03  0.39513486023E+02 -0.68524717739E+01  0.14806310554E+03  0.00000000000E+00 0. -1.
        -14    1    6    6    0    0 -0.20551668036E+00 -0.73543346276E+01 -0.20038023529E+02  0.21345979993E+02  0.00000000000E+00 0.  1.
</event>
<event>
12    1  0.8358445E-002  0.1862027E+03  0.7818608E-02  0.1162352E+00
         21   -1    0    0  503  502  0.00000000000E+00  0.00000000000E+00  0.49769012284E+03  0.49769012284E+03  0.00000000000E+00 0. -1.
         21   -1    0    0  501  503 -0.00000000000E+00 -0.00000000000E+00 -0.70897545695E+02  0.70897545695E+02  0.00000000000E+00 0. -1.
          6    2    1    2  501    0  0.45851268157E+02  0.54013397397E+02  0.16778087307E+03  0.25064293463E+03  0.17219661268E+03 0.  0.
         24    2    3    3    0    0 -0.39797628909E+01 -0.35172321713E+01  0.16360396983E+02  0.81104869365E+02  0.79259875161E+02 0.  0.
         -6    2    1    2    0  502 -0.45851268157E+02 -0.54013397397E+02  0.25901170407E+03  0.31794473391E+03  0.17024102056E+03 0.  0.
        -24    2    5    5    0    0 -0.38781750077E+02 -0.10263907766E+03  0.18891150462E+03  0.23220931048E+03  0.78707070150E+02 0.  0.
          5    1    3    3  501    0  0.49831031048E+02  0.57530629568E+02  0.15142047609E+03  0.16953806526E+03  0.47000000000E+01 0. -1.
        -13    1    4    4    0    0 -0.30583571184E+02 -0.18744114118E+02  0.30745721615E+02  0.47244005314E+02  0.00000000000E+00 0.  1.
         14    1    4    4    0    0  0.26603808294E+02  0.15226881946E+02 -0.14385324632E+02  0.33860864051E+02  0.00000000000E+00 0. -1.
         -5    1    5    5    0  502 -0.70695180806E+01  0.48625680268E+02  0.70100199449E+02  0.85735423427E+02  0.47000000000E+01 0.  1.
         13    1    6    6    0    0 -0.50396224645E+02 -0.25234753244E+02  0.87986187997E+02  0.10448991103E+03  0.00000000000E+00 0. -1.
        -14    1    6    6    0    0  0.11614474568E+02 -0.77404324421E+02  0.10092531663E+03  0.12771939944E+03  0.00000000000E+00 0.  1.
</event>
<event>
12    1  0.8358445E-002  0.2590886E+03  0.7818608E-02  0.1107695E+00
         21   -1    0    0  503  502  0.00000000000E+00  0.00000000000E+00  0.10390405659E+04  0.10390405659E+04  0.00000000000E+00 0. -1.
         21   -1    0    0  501  503 -0.00000000000E+00 -0.00000000000E+00 -0.65989408353E+02  0.65989408353E+02  0.00000000000E+00 0.  1.
          6    2    1    2  501    0 -0.19296885547E+03 -0.10573486839E+02  0.40635723266E+03  0.48191770571E+03  0.17253897164E+03 0.  0.
         24    2    3    3    0    0 -0.13020263010E+03 -0.45594196504E+02  0.36586874898E+03  0.39928928165E+03  0.80872945507E+02 0.  0.
         -6    2    1    2    0  502  0.19296885547E+03  0.10573486839E+02  0.56669392486E+03  0.62311226852E+03  0.17256337067E+03 0.  0.
        -24    2    5    5    0    0  0.55473149043E+02  0.88945189798E+01  0.37348466485E+03  0.38592079234E+03  0.79294894842E+02 0.  0.
          5    1    3    3  501    0 -0.62766225370E+02  0.35020709665E+02  0.40488483674E+02  0.82628424061E+02  0.47000000000E+01 0. -1.
        -11    1    4    4    0    0 -0.19319785775E+02 -0.42576407077E+02  0.80094007306E+02  0.92741870632E+02  0.00000000000E+00 0.  1.
         12    1    4    4    0    0 -0.11088284432E+03 -0.30177894266E+01  0.28577474168E+03  0.30654741101E+03  0.00000000000E+00 0. -1.
         -5    1    5    5    0  502  0.13749570642E+03  0.16789678591E+01  0.19320926001E+03  0.23719147618E+03  0.47000000000E+01 0.  1.
         13    1    6    6    0    0 -0.85298896322E+01 -0.22649108004E+02  0.12837143179E+03  0.13063294229E+03  0.00000000000E+00 0. -1.
        -14    1    6    6    0    0  0.64003038675E+02  0.31543626984E+02  0.24511323306E+03  0.25528785005E+03  0.00000000000E+00 0.  1.
</event>
<event>
12    1  0.8358445E-002  0.2478410E+03  0.7818608E-02  0.1114789E+00
         21   -1    0    0  501  502  0.00000000000E+00  0.00000000000E+00  0.65487050206E+03  0.65487050206E+03  0.00000000000E+00 0. -1.
         21   -1    0    0  502  503 -0.00000000000E+00 -0.00000000000E+00 -0.13372845119E+03  0.13372845119E+03  0.00000000000E+00 0. -1.
         -6    2    1    2    0  503  0.17726116419E+03 -0.11558708117E+02  0.44652055112E+02  0.25183123860E+03  0.17282951902E+03 0.  0.
        -24    2    3    3    0    0  0.19885901634E+02  0.19067337230E+02  0.35126451813E+02  0.91152195044E+02  0.79472275741E+02 0.  0.
          6    2    1    2  501    0 -0.17726116419E+03  0.11558708117E+02  0.47648999575E+03  0.53676771466E+03  0.17181891449E+03 0.  0.
         24    2    5    5    0    0 -0.14624657794E+01  0.29878742302E+01  0.10702645339E+03  0.12749513960E+03  0.69204643611E+02 0.  0.
          5    1    5    5  501    0 -0.17579869842E+03  0.85708338870E+01  0.36946354237E+03  0.40927257506E+03  0.47000000000E+01 0. -1.
        -13    1    6    6    0    0 -0.29429155514E+01  0.35538613132E+02  0.44860844964E+02  0.57307496771E+02  0.00000000000E+00 0.  1.
         14    1    6    6    0    0  0.14804497720E+01 -0.32550738902E+02  0.62165608425E+02  0.70187642826E+02  0.00000000000E+00 0. -1.
         -5    1    3    3    0  503  0.15737526256E+03 -0.30626045347E+02  0.95256032987E+01  0.16067904356E+03  0.47000000000E+01 0.  1.
         11    1    4    4    0    0 -0.81377883760E+01 -0.27897246829E+02  0.82104807227E+01  0.30197549139E+02  0.00000000000E+00 0. -1.
        -12    1    4    4    0    0  0.28023690010E+02  0.46964584059E+02  0.26915971090E+02  0.60954645905E+02  0.00000000000E+00 0.  1.
</event>
<event>
12    1  0.8358445E-002  0.1992191E+03  0.7818608E-02  0.1150650E+00
         21   -1    0    0  503  502  0.00000000000E+00  0.00000000000E+00  0.61185153570E+03  0.61185153570E+03  0.00000000000E+00 0. -1.
         21   -1    0    0  501  503 -0.00000000000E+00 -0.00000000000E+00 -0.69415990562E+02  0.69415990562E+02  0.00000000000E+00 0. -1.
          6    2    1    2  501    0 -0.97500220943E+02  0.21369097587E+02  0.17966900726E+03  0.26739821724E+03  0.17104947529E+03 0.  0.
         24    2    3    3    0    0  0.14796150820E+02  0.25545489545E+02  0.66934031740E+02  0.10815255147E+03  0.79657464620E+02 0.  0.
         -6    2    1    2    0  502  0.97500220943E+02 -0.21369097587E+02  0.36276653788E+03  0.41386930902E+03  0.17241030286E+03 0.  0.
        -24    2    5    5    0    0  0.39178396520E+01  0.34124842578E+02  0.12239683259E+03  0.14998121777E+03  0.79583457502E+02 0.  0.
          5    1    3    3  501    0 -0.11229637176E+03 -0.41763919581E+01  0.11273497552E+03  0.15924566577E+03  0.47000000000E+01 0. -1.
        -11    1    4    4    0    0 -0.61683181205E+01  0.43666637218E+02  0.67273528063E+02  0.80439734785E+02  0.00000000000E+00 0.  1.
         12    1    4    4    0    0  0.20964468940E+02 -0.18121147673E+02 -0.33949632306E+00  0.27712816686E+02  0.00000000000E+00 0. -1.
         -5    1    5    5    0  502  0.93582381291E+02 -0.55493940165E+02  0.24036970529E+03  0.26388809125E+03  0.47000000000E+01 0.  1.
         11    1    6    6    0    0  0.32766486527E+02  0.44825831646E+02  0.71827195614E+02  0.90786253650E+02  0.00000000000E+00 0. -1.
        -12    1    6    6    0    0 -0.28848646875E+02 -0.10700989068E+02  0.50569636977E+02  0.59194964123E+02  0.00000000000E+00 0.  1.
</event>
<event>
12    1  0.8358445E-002  0.1807850E+03  0.7818608E-02  0.1167171E+00
         21   -1    0    0  503  502  0.00000000000E+00  0.00000000000E+00  0.17515521253E+03  0.17515521253E+03  0.00000000000E+00 0.  1.
         21   -1    0    0  501  503 -0.00000000000E+00 -0.00000000000E+00 -0.20817775525E+03  0.20817775525E+03  0.00000000000E+00 0.  1.
          6    2    1    2  501    0 -0.36458682811E+02  0.40572134979E+02  0.45942904440E+02  0.18653136998E+03  0.17235970477E+03 0.  0.
         24    2    3    3    0    0  0.42493205476E+02 -0.84555341170E+00  0.34583472224E+02  0.96531635114E+02  0.79472967445E+02 0.  0.
         -6    2    1    2    0  502  0.36458682811E+02 -0.40572134979E+02 -0.78965447152E+02  0.19680159780E+03  0.17181383345E+03 0.  0.
        -24    2    5    5    0    0 -0.41566123988E+02 -0.27694766067E+02 -0.70342521433E+02  0.11711381985E+03  0.79201223148E+02 0.  0.
          5    1    3    3  501    0 -0.78951888287E+02  0.41417688390E+02  0.11359432216E+02  0.89999734866E+02  0.47000000000E+01 0. -1.
        -11    1    4    4    0    0 -0.15712661659E+01  0.19836826215E+02  0.42768771716E+02  0.47171351324E+02  0.00000000000E+00 0.  1.
         12    1    4    4    0    0  0.44064471642E+02 -0.20682379627E+02 -0.81852994913E+01  0.49360283791E+02  0.00000000000E+00 0. -1.
         -5    1    5    5    0  502  0.78024806798E+02 -0.12877368912E+02 -0.86229257193E+01  0.79687777946E+02  0.47000000000E+01 0.  1.
         11    1    6    6    0    0  0.11630371356E+02  0.17648144054E+02 -0.56637216559E+01  0.21881505192E+02  0.00000000000E+00 0. -1.
        -12    1    6    6    0    0 -0.53196495344E+02 -0.45342910122E+02 -0.64678799777E+02  0.95232314661E+02  0.00000000000E+00 0.  1.
</event>
<event>
12    1  0.8358445E-002  0.1842873E+03  0.7818608E-02  0.1163806E+00
         21   -1    0    0  501  502  0.00000000000E+00  0.00000000000E+00  0.16760111736E+04  0.16760111736E+04  0.00000000000E+00 0.  1.
         21   -1    0    0  502  503 -0.00000000000E+00 -0.00000000000E+00 -0.22051434620E+02  0.22051434620E+02  0.00000000000E+00 0. -1.
         -6    2    1    2    0  503 -0.31305188615E+02 -0.57372531732E+02  0.58321360076E+03  0.61163707573E+03  0.17230840393E+03 0.  0.
        -24    2    3    3    0    0 -0.55944580055E+02 -0.82151133386E+02  0.28532598848E+03  0.31167008044E+03  0.76476889240E+02 0.  0.
          6    2    1    2  501    0  0.31305188615E+02  0.57372531732E+02  0.10707461383E+04  0.10864255325E+04  0.17190556391E+03 0.  0.
         24    2    5    5    0    0 -0.32961189302E+02  0.68164473181E+02  0.82938837561E+03  0.83638095066E+03  0.76910217968E+02 0.  0.
          5    1    5    5  501    0  0.64266377917E+02 -0.10791941449E+02  0.24135776265E+03  0.25004458187E+03  0.47000000000E+01 0. -1.
        -11    1    6    6    0    0  0.66802270190E+01  0.25092218282E+02  0.56470698378E+03  0.56530365502E+03  0.00000000000E+00 0.  1.
         12    1    6    6    0    0 -0.39641416321E+02  0.43072254898E+02  0.26468139182E+03  0.27107729563E+03  0.00000000000E+00 0. -1.
         -5    1    3    3    0  503  0.24639391440E+02  0.24778601654E+02  0.29788761229E+03  0.29996699529E+03  0.47000000000E+01 0.  1.
         13    1    4    4    0    0 -0.15721404115E+02 -0.10409822085E+02  0.49712434939E+01  0.19499748846E+02  0.00000000000E+00 0. -1.
        -14    1    4    4    0    0 -0.40223175940E+02 -0.71741311300E+02  0.28035474498E+03  0.29217033159E+03  0.00000000000E+00 0.  1.
</event>
<event>
12    1  0.8358445E-002  0.2418085E+03  0.7818608E-02  0.1118782E+00
         21   -1    0    0  503  502  0.00000000000E+00  0.00000000000E+00  0.15238233339E+03  0.15238233339E+03  0.00000000000E+00 0. -1.
         21   -1    0    0  501  503 -0.00000000000E+00 -0.00000000000E+00 -0.98776894874E+03  0.98776894874E+03  0.00000000000E+00 0.  1.
          6    2    1    2  501    0 -0.73209741664E+02  0.15400004020E+03 -0.86377926939E+03  0.89668153845E+03  0.16984544895E+03 0.  0.
         24    2    3    3    0    0 -0.13083304553E+01  0.40348469987E+02 -0.19425950758E+03  0.21377210537E+03  0.79574154037E+02 0.  0.
         -6    2    1    2    0  502  0.73209741664E+02 -0.15400004020E+03  0.28392654036E+02  0.24346974368E+03  0.17145172682E+03 0.  0.
        -24    2    5    5    0    0  0.91518643794E+02 -0.17483734417E+03  0.33589575037E+02  0.21486018021E+03  0.78056892122E+02 0.  0.
          5    1    3    3  501    0 -0.71901411209E+02  0.11365157021E+03 -0.66951976181E+03  0.68290943309E+03  0.47000000000E+01 0. -1.
        -11    1    4    4    0    0  0.31961955514E+02  0.22147479571E+02 -0.15242524792E+03  0.15730713161E+03  0.00000000000E+00 0.  1.
         12    1    4    4    0    0 -0.33270285969E+02  0.18200990416E+02 -0.41834259657E+02  0.56464973759E+02  0.00000000000E+00 0. -1.
         -5    1    5    5    0  502 -0.18308902130E+02  0.20837303976E+02 -0.51969210013E+01  0.28609563472E+02  0.47000000000E+01 0.  1.
         11    1    6    6    0    0  0.38505966601E+02 -0.13793291786E+03  0.26305881433E+01  0.14323099974E+03  0.00000000000E+00 0. -1.
        -12    1    6    6    0    0  0.53012677193E+02 -0.36904426316E+02  0.30958986894E+02  0.71629180467E+02  0.00000000000E+00 0.  1.
</event>
<event>
12    1  0.8358445E-002  0.1757744E+03  0.7818608E-02  0.1172365E+00
         21   -1    0    0  501  502  0.00000000000E+00  0.00000000000E+00  0.14022088896E+03  0.14022088896E+03  0.00000000000E+00 0. -1.
         21   -1    0    0  502  503 -0.00000000000E+00 -0.00000000000E+00 -0.27169959391E+03  0.27169959391E+03  0.00000000000E+00 0. -1.
         -6    2    1    2    0  503  0.43536067685E+01 -0.31121030315E+02  0.25809768616E+02  0.17604700691E+03  0.17128611172E+03 0.  0.
        -24    2    3    3    0    0 -0.17934306595E+02 -0.17772825810E+02  0.79295519232E+02  0.11640020344E+03  0.81386210748E+02 0.  0.
          6    2    1    2  501    0 -0.43536067685E+01  0.31121030315E+02 -0.15728847356E+03  0.23587347596E+03  0.17294265040E+03 0.  0.
         24    2    5    5    0    0  0.46902553356E+02  0.52651214347E+02 -0.14250698440E+03  0.17815584263E+03  0.80369545092E+02 0.  0.
          5    1    5    5  501    0 -0.51256160125E+02 -0.21530184033E+02 -0.14781489163E+02  0.57717633329E+02  0.47000000000E+01 0. -1.
        -11    1    6    6    0    0  0.38703071233E+02  0.57702175897E+02 -0.51112014547E+02  0.86254894685E+02  0.00000000000E+00 0.  1.
         12    1    6    6    0    0  0.81994821234E+01 -0.50509615496E+01 -0.91394969849E+02  0.91900947946E+02  0.00000000000E+00 0. -1.
         -5    1    3    3    0  503  0.22287913364E+02 -0.13348204505E+02 -0.53485750616E+02  0.59646803473E+02  0.47000000000E+01 0.  1.
         11    1    4    4    0    0  0.25256731792E+02 -0.30617120886E+02  0.43204408629E+02  0.58667976930E+02  0.00000000000E+00 0. -1.
        -12    1    4    4    0    0 -0.43191038387E+02  0.12844295076E+02  0.36091110603E+02  0.57732226508E+02  0.00000000000E+00 0.  1.
</event>
<event>
12    1  0.8358445E-002  0.1879386E+03  0.7818608E-02  0.1161053E+00
         21   -1    0    0  503  502  0.00000000000E+00  0.00000000000E+00  0.19251619237E+03  0.19251619237E+03  0.00000000000E+00 0.  1.
         21   -1    0    0  501  503 -0.00000000000E+00 -0.00000000000E+00 -0.22570205416E+03  0.22570205416E+03  0.00000000000E+00 0.  1.
          6    2    1    2  501    0  0.59801159874E+02  0.38678449295E+02 -0.11011969126E+03  0.21514253736E+03  0.17055135243E+03 0.  0.
         24    2    3    3    0    0 -0.15053250675E+02  0.34120148812E+02 -0.10918477451E+03  0.13999651317E+03  0.79290124256E+02 0.  0.
         -6    2    1    2    0  502 -0.59801159874E+02 -0.38678449295E+02  0.76933829469E+02  0.20307570917E+03  0.17392161561E+03 0.  0.
        -24    2    5    5    0    0 -0.61104739499E+02  0.16866767849E+02 -0.81329217100E+01  0.10136330765E+03  0.78677180143E+02 0.  0.
          5    1    3    3  501    0  0.74854410549E+02  0.45583004825E+01 -0.93491675359E+00  0.75146024188E+02  0.47000000000E+01 0. -1.
        -13    1    4    4    0    0  0.20889371760E+02  0.34200180275E+02 -0.22052491540E+02  0.45742000027E+02  0.00000000000E+00 0.  1.
         14    1    4    4    0    0 -0.35942622435E+02 -0.80031462958E-01 -0.87132282967E+02  0.94254513142E+02  0.00000000000E+00 0. -1.
         -5    1    5    5    0  502  0.13035796247E+01 -0.55545217144E+02  0.85066751179E+02  0.10171240152E+03  0.47000000000E+01 0.  1.
         13    1    6    6    0    0 -0.76912905508E+00  0.35651194791E+02  0.71039320359E+01  0.36360213145E+02  0.00000000000E+00 0. -1.
        -14    1    6    6    0    0 -0.60335610444E+02 -0.18784426942E+02 -0.15236853746E+02  0.65003094505E+02  0.00000000000E+00 0.  1.
</event>
<event>
12    1  0.8358445E-002  0.1771737E+03  0.7818608E-02  0.1170985E+00
         21   -1    0    0  501  502  0.00000000000E+00  0.00000000000E+00  0.76753915516E+03  0.76753915516E+03  0.00000000000E+00 0.  1.
         21   -1    0    0  502  503 -0.00000000000E+00 -0.00000000000E+00 -0.48679363101E+02  0.48679363101E+02  0.00000000000E+00 0.  1.
         -6    2    1    2    0  503  0.38812420735E+02 -0.27884037114E+01  0.19080970032E+03  0.25923788834E+03  0.17111914510E+03 0.  0.
        -24    2    3    3    0    0  0.84585157373E+02  0.47128783596E-01  0.86361832245E+02  0.14506858070E+03  0.80198977346E+02 0.  0.
          6    2    1    2  501    0 -0.38812420735E+02  0.27884037114E+01  0.52805009174E+03  0.55698062991E+03  0.17284774663E+03 0.  0.
         24    2    5    5    0    0 -0.76977758416E+02 -0.34630078315E+02  0.28018264188E+03  0.30337247055E+03  0.80048269570E+02 0.  0.
          5    1    5    5  501    0  0.38165337681E+02  0.37418482027E+02  0.24786744986E+03  0.25360815936E+03  0.47000000000E+01 0. -1.
        -13    1    6    6    0    0 -0.41239495017E+02 -0.28854610818E+02  0.52123513136E+02  0.72457885260E+02  0.00000000000E+00 0.  1.
         14    1    6    6    0    0 -0.35738263399E+02 -0.57754674972E+01  0.22805912874E+03  0.23091458529E+03  0.00000000000E+00 0. -1.
         -5    1    3    3    0  503 -0.45772736637E+02 -0.28355324950E+01  0.10444786807E+03  0.11416930765E+03  0.47000000000E+01 0.  1.
         11    1    4    4    0    0 -0.41878087209E+01 -0.66941733750E+01  0.47116832979E+02  0.47773901338E+02  0.00000000000E+00 0. -1.
        -12    1    4    4    0    0  0.88772966094E+02  0.67413021586E+01  0.39244999266E+02  0.97294679357E+02  0.00000000000E+00 0.  1.
</event>
<event>
12    1  0.8358445E-002  0.1793014E+03  0.7818608E-02  0.1168508E+00
         21   -1    0    0  501  502  0.00000000000E+00  0.00000000000E+00  0.14793047545E+04  0.14793047545E+04  0.00000000000E+00 0. -1.
         21   -1    0    0  502  503 -0.00000000000E+00 -0.00000000000E+00 -0.22503187495E+02  0.22503187495E+02  0.00000000000E+00 0. -1.
         -6    2    1    2    0  503  0.78266287648E+01 -0.47082710193E+02  0.86837230857E+03  0.88666731867E+03  0.17271488062E+03 0.  0.
        -24    2    3    3    0    0 -0.28839594709E+02 -0.19395152357E+02  0.79616052959E+03  0.80094892026E+03  0.80247678017E+02 0.  0.
          6    2    1    2  501    0 -0.78266287648E+01  0.47082710193E+02  0.58842925841E+03  0.61514062330E+03  0.17283216299E+03 0.  0.
         24    2    5    5    0    0  0.49793785323E+01  0.49107108520E+02  0.16857628261E+03  0.19506122212E+03  0.84821076372E+02 0.  0.
          5    1    5    5  501    0 -0.12806007297E+02 -0.20243983268E+01  0.41985297580E+03  0.42007940118E+03  0.47000000000E+01 0. -1.
        -11    1    6    6    0    0 -0.37447675311E+02  0.66510892324E+01  0.61532046008E+02  0.72337805193E+02  0.00000000000E+00 0.  1.
         12    1    6    6    0    0  0.42427053843E+02  0.42456019288E+02  0.10704423661E+03  0.12272341693E+03  0.00000000000E+00 0. -1.
         -5    1    3    3    0  503  0.36666223474E+02 -0.27687557836E+02  0.72211778978E+02  0.85718398409E+02  0.47000000000E+01 0.  1.
         11    1    4    4    0    0 -0.34376984807E+01 -0.32361376404E+02  0.12449626497E+03  0.12867943287E+03  0.00000000000E+00 0. -1.
        -12    1    4    4    0    0 -0.25401896228E+02  0.12966224047E+02  0.67166426462E+03  0.67226948739E+03  0.00000000000E+00 0.  1.
</event>
<event>
12    1  0.8358445E-002  0.1780727E+03  0.7818608E-02  0.1169759E+00
         21   -1    0    0  501  502  0.00000000000E+00  0.00000000000E+00  0.38298264619E+03  0.38298264619E+03  0.00000000000E+00 0. -1.
         21   -1    0    0  502  503 -0.00000000000E+00 -0.00000000000E+00 -0.85264027013E+02  0.85264027013E+02  0.00000000000E+00 0. -1.
         -6    2    1    2    0  503  0.34342030113E+02 -0.32420809913E+02  0.18998320232E+03  0.26039108164E+03  0.17169570258E+03 0.  0.
        -24    2    3    3    0    0  0.21872713529E+02  0.37287095289E+02  0.49230993393E+02  0.10275875557E+03  0.79163931578E+02 0.  0.
          6    2    1    2  501    0 -0.34342030113E+02  0.32420809913E+02  0.10773541686E+03  0.20785559157E+03  0.17136669149E+03 0.  0.
         24    2    5    5    0    0 -0.13165379084E+02 -0.25416473142E+01 -0.11352349769E+02  0.81860313387E+02  0.79952785349E+02 0.  0.
          5    1    5    5  501    0 -0.21176651029E+02  0.34962457227E+02  0.11908776663E+03  0.12599527818E+03  0.47000000000E+01 0. -1.
        -13    1    6    6    0    0  0.21883419545E+01 -0.13063249456E+02  0.32026220663E+02  0.34657122455E+02  0.00000000000E+00 0.  1.
         14    1    6    6    0    0 -0.15353721039E+02  0.10521602142E+02 -0.43378570433E+02  0.47203190932E+02  0.00000000000E+00 0. -1.
         -5    1    3    3    0  503  0.12469316584E+02 -0.69707905203E+02  0.14075220893E+03  0.15763232607E+03  0.47000000000E+01 0.  1.
         11    1    4    4    0    0  0.16375106003E+02 -0.21752640236E+02  0.26513846772E+01  0.27356010209E+02  0.00000000000E+00 0. -1.
        -12    1    4    4    0    0  0.54976075268E+01  0.59039735525E+02  0.46579608716E+02  0.75402745358E+02  0.00000000000E+00 0.  1.
</event>
<event>
12    1  0.8358445E-002  0.2713862E+03  0.7818608E-02  0.1100650E+00
         21   -1    0    0  503  502  0.00000000000E+00  0.00000000000E+00  0.40996312046E+03  0.40996312046E+03  0.00000000000E+00 0. -1.
         21   -1    0    0  501  503 -0.00000000000E+00 -0.00000000000E+00 -0.20108195474E+03  0.20108195474E+03  0.00000000000E+00 0.  1.
          6    2    1    2  501    0 -0.17718851153E+02  0.20822151255E+03  0.27798038547E+01  0.27026913818E+03  0.17136955321E+03 0.  0.
         24    2    3    3    0    0 -0.23277962212E+02  0.16973334196E+03 -0.53705337030E+02  0.20153120010E+03  0.91538464539E+02 0.  0.
         -6    2    1    2    0  502  0.17718851153E+02 -0.20822151255E+03  0.20610136186E+03  0.34077593702E+03  0.17314823681E+03 0.  0.
        -24    2    5    5    0    0  0.15232228394E+01 -0.15332693292E+02  0.61523823021E+02  0.99129191310E+02  0.76184014592E+02 0.  0.
          5    1    3    3  501    0  0.55591110588E+01  0.38488170598E+02  0.56485140884E+02  0.68737938087E+02  0.47000000000E+01 0. -1.
        -13    1    4    4    0    0 -0.15896599658E+02  0.51803628332E+02 -0.62889286724E+02  0.83014337157E+02  0.00000000000E+00 0.  1.
         14    1    4    4    0    0 -0.73813625541E+01  0.11792971362E+03  0.91839496945E+01  0.11851686294E+03  0.00000000000E+00 0. -1.
         -5    1    5    5    0  502  0.16195628314E+02 -0.19288881926E+03  0.14457753884E+03  0.24164674571E+03  0.47000000000E+01 0.  1.
         13    1    6    6    0    0 -0.57699239577E+01  0.17986523288E+02  0.62209670378E+02  0.65014230219E+02  0.00000000000E+00 0. -1.
        -14    1    6    6    0    0  0.72931467971E+01 -0.33319216579E+02 -0.68584735676E+00  0.34114961091E+02  0.00000000000E+00 0.  1.
</event>
<event>
12    1  0.8358445E-002  0.2420382E+03  0.7818608E-02  0.1118506E+00
         21   -1    0    0  501  502  0.00000000000E+00  0.00000000000E+00  0.11665482173E+04  0.11665482173E+04  0.00000000000E+00 0. -1.
         21   -1    0    0  502  503 -0.00000000000E+00 -0.00000000000E+00 -0.62420803959E+02  0.62420803959E+02  0.00000000000E+00 0. -1.
         -6    2    1    2    0  503 -0.13725823873E+03  0.99661043707E+02  0.27912747637E+03  0.36919730450E+03  0.17211145765E+03 0.  0.
        -24    2    3    3    0    0 -0.78490136648E+02  0.10564986638E+03  0.26851132580E+03  0.30899474249E+03  0.77825593389E+02 0.  0.
          6    2    1    2  501    0  0.13725823873E+03 -0.99661043707E+02  0.82499993695E+03  0.85977171674E+03  0.17265677282E+03 0.  0.
         24    2    5    5    0    0  0.13874787395E+03 -0.98997681901E+02  0.50280869466E+03  0.53754206932E+03  0.84162814368E+02 0.  0.
          5    1    5    5  501    0 -0.14896352150E+01 -0.66336180566E+00  0.32219124229E+03  0.32222964741E+03  0.47000000000E+01 0. -1.
        -13    1    6    6    0    0  0.57157236450E+02 -0.56587458501E+02  0.12451857416E+03  0.14823618131E+03  0.00000000000E+00 0.  1.
         14    1    6    6    0    0  0.81590637497E+02 -0.42410223400E+02  0.37829012050E+03  0.38930588802E+03  0.00000000000E+00 0. -1.
         -5    1    3    3    0  503 -0.58768102083E+02 -0.59888226709E+01  0.10616150564E+02  0.60202562007E+02  0.47000000000E+01 0.  1.
         13    1    4    4    0    0 -0.81995128235E+02  0.10102652892E+03  0.19007050760E+03  0.23033965889E+03  0.00000000000E+00 0. -1.
        -14    1    4    4    0    0  0.35049915869E+01  0.46233374567E+01  0.78440818208E+02  0.78655083602E+02  0.00000000000E+00 0.  1.
</event>
<event>
12    1  0.8358445E-002  0.2122019E+03  0.7818608E-02  0.1140054E+00
         21   -1    0    0  503  502  0.00000000000E+00  0.00000000000E+00  0.49391461024E+03  0.49391461024E+03  0.00000000000E+00 0.  1.
         21   -1    0    0  501  503 -0.00000000000E+00 -0.00000000000E+00 -0.99057295833E+02  0.99057295833E+02  0.00000000000E+00 0. -1.
          6    2    1    2  501    0  0.12196615120E+03  0.22229062902E+02  0.28408837268E+03  0.35459252777E+03  0.17222016138E+03 0.  0.
         24    2    3    3    0    0  0.62829339060E+02  0.72024059520E+02  0.13303687201E+03  0.18484168067E+03  0.85630874120E+02 0.  0.
         -6    2    1    2    0  502 -0.12196615120E+03 -0.22229062902E+02  0.11076894173E+03  0.23837937830E+03  0.17083646060E+03 0.  0.
        -24    2    5    5    0    0 -0.12476544643E+03 -0.16816001042E+02  0.25912426387E+02  0.15317459270E+03  0.83317510131E+02 0.  0.
          5    1    3    3  501    0  0.59136812144E+02 -0.49794996618E+02  0.15105150066E+03  0.16975084710E+03  0.47000000000E+01 0. -1.
        -13    1    4    4    0    0  0.39455265464E+02  0.24879969226E+02  0.12263059970E+03  0.13120211440E+03  0.00000000000E+00 0.  1.
         14    1    4    4    0    0  0.23374073596E+02  0.47144090294E+02  0.10406272315E+02  0.53639566270E+02  0.00000000000E+00 0. -1.
         -5    1    5    5    0  502  0.27992952254E+01 -0.54130618597E+01  0.84856515342E+02  0.85204785595E+02  0.47000000000E+01 0.  1.
         13    1    6    6    0    0 -0.13060510155E+03 -0.10863595756E+01  0.33382391150E+02  0.13480822218E+03  0.00000000000E+00 0. -1.
        -14    1    6    6    0    0  0.58396551219E+01 -0.15729641466E+02 -0.74699647628E+01  0.18366370522E+02  0.00000000000E+00 0.  1.
</event>
<event>
12    1  0.8358445E-002  0.2195822E+03  0.7818608E-02  0.1134345E+00
         21   -1    0    0  503  502  0.00000000000E+00  0.00000000000E+00  0.54371549375E+03  0.54371549375E+03  0.00000000000E+00 0.  1.
         21   -1    0    0  501  503 -0.00000000000E+00 -0.00000000000E+00 -0.13481743492E+03  0.13481743492E+03  0.00000000000E+00 0. -1.
          6    2    1    2  501    0 -0.12903203414E+03 -0.47189184400E+02  0.40336910250E+03  0.45888116995E+03  0.17026218116E+03 0.  0.
         24    2    3    3    0    0 -0.15882079281E+03 -0.59284165766E+02  0.34803065065E+03  0.39470880075E+03  0.77013291415E+02 0.  0.
         -6    2    1    2    0  502  0.12903203414E+03  0.47189184400E+02  0.55289563257E+01  0.21965175871E+03  0.17128993196E+03 0.  0.
        -24    2    5    5    0    0  0.73141475777E+02 -0.32120259545E+02 -0.30580284166E+02  0.11601918825E+03  0.78383108575E+02 0.  0.
          5    1    3    3  501    0  0.29788758669E+02  0.12094981367E+02  0.55338451843E+02  0.64172369207E+02  0.47000000000E+01 0. -1.
        -11    1    4    4    0    0 -0.61771802844E+02 -0.35822361683E+02  0.22613462690E+03  0.23714102704E+03  0.00000000000E+00 0.  1.
         12    1    4    4    0    0 -0.97048989961E+02 -0.23461804084E+02  0.12189602375E+03  0.15756777370E+03  0.00000000000E+00 0. -1.
         -5    1    5    5    0  502  0.55890558359E+02  0.79309443945E+02  0.36109240491E+02  0.10363257047E+03  0.47000000000E+01 0.  1.
         11    1    6    6    0    0  0.68095742746E+02  0.77563537144E+01 -0.32346563877E+02  0.75785825836E+02  0.00000000000E+00 0. -1.
        -12    1    6    6    0    0  0.50457330309E+01 -0.39876613260E+02  0.17662797110E+01  0.40233362411E+02  0.00000000000E+00 0.  1.
</event>
<event>
12    1  0.8358445E-002  0.2633007E+03  0.7818608E-02  0.1105712E+00
         21   -1    0    0  503  502  0.00000000000E+00  0.00000000000E+00  0.81961261887E+02  0.81961261887E+02  0.00000000000E+00 0. -1.
         21   -1    0    0  501  503 -0.00000000000E+00 -0.00000000000E+00 -0.12818731566E+04  0.12818731566E+04  0.00000000000E+00 0.  1.
          6    2    1    2  501    0 -0.17143023825E+03 -0.91962891666E+02 -0.10055590782E+04  0.10394596169E+04  0.17743093139E+03 0.  0.
         24    2    3    3    0    0 -0.38694932576E+02 -0.58860200866E+02 -0.24287760218E+03  0.26459216156E+03  0.77830978809E+02 0.  0.
         -6    2    1    2    0  502  0.17143023825E+03  0.91962891666E+02 -0.19435281645E+03  0.32437480151E+03  0.17204794263E+03 0.  0.
        -24    2    5    5    0    0  0.49177203925E+02 -0.66694244929E+01 -0.29685654316E+02  0.96753399885E+02  0.77569992317E+02 0.  0.
          5    1    3    3  501    0 -0.13273530568E+03 -0.33102690801E+02 -0.76268147605E+03  0.77486745539E+03  0.47000000000E+01 0. -1.
        -11    1    4    4    0    0 -0.32171989651E+02 -0.27462347930E+02 -0.22275002978E+03  0.22673066232E+03  0.00000000000E+00 0.  1.
         12    1    4    4    0    0 -0.65229429248E+01 -0.31397852936E+02 -0.20127572409E+02  0.37861499237E+02  0.00000000000E+00 0. -1.
         -5    1    5    5    0  502  0.12225303433E+03  0.98632316159E+02 -0.16466716213E+03  0.22762140162E+03  0.47000000000E+01 0.  1.
         13    1    6    6    0    0  0.51535336752E+02  0.27099897007E+02 -0.19424176762E+02  0.61380729833E+02  0.00000000000E+00 0. -1.
        -14    1    6    6    0    0 -0.23581328268E+01 -0.33769321500E+02 -0.10261477553E+02  0.35372670052E+02  0.00000000000E+00 0.  1.
</event>
<event>
12    1  0.8358445E-002  0.2374225E+03  0.7818608E-02  0.1121992E+00
         21   -1    0    0  503  502  0.00000000000E+00  0.00000000000E+00  0.10948664970E+03  0.10948664970E+03  0.00000000000E+00 0. -1.
         21   -1    0    0  501  503 -0.00000000000E+00 -0.00000000000E+00 -0.10466206569E+04  0.10466206569E+04  0.00000000000E+00 0. -1.
          6    2    1    2  501    0 -0.40904858466E+02  0.15487077588E+03 -0.88424858741E+03  0.91556813798E+03  0.17524635883E+03 0.  0.
         24    2    3    3    0    0 -0.47258529403E+02  0.21283488317E+02 -0.35037748983E+03  0.36518066414E+03  0.88916683499E+02 0.  0.
         -6    2    1    2    0  502  0.40904858466E+02 -0.15487077588E+03 -0.52885419766E+02  0.24053916859E+03  0.17147611884E+03 0.  0.
        -24    2    5    5    0    0  0.33972413392E+02 -0.14335978194E+03  0.18823148881E+02  0.16743123062E+03  0.77283595303E+02 0.  0.
          5    1    3    3  501    0  0.63536709372E+01  0.13358728756E+03 -0.53387109758E+03  0.55038747384E+03  0.47000000000E+01 0. -1.
        -13    1    4    4    0    0 -0.31039864664E+02 -0.88526739245E+01 -0.33717484009E+02  0.46676672566E+02  0.00000000000E+00 0.  1.
         14    1    4    4    0    0 -0.16218664740E+02  0.30136162242E+02 -0.31666000582E+03  0.31850399157E+03  0.00000000000E+00 0. -1.
         -5    1    5    5    0  502  0.69324450739E+01 -0.11510993935E+02 -0.71708568647E+02  0.73107937965E+02  0.47000000000E+01 0.  1.
         11    1    6    6    0    0  0.35673103437E+02 -0.33753735733E+02  0.29505455306E+02  0.57292729709E+02  0.00000000000E+00 0. -1.
        -12    1    6    6    0    0 -0.17006900450E+01 -0.10960604621E+03 -0.10682306425E+02  0.11013850091E+03  0.00000000000E+00 0.  1.
</event>
<event>
12    1  0.8358445E-002  0.2385520E+03  0.7818608E-02  0.1120944E+00
         21   -1    0    0  503  502  0.00000000000E+00  0.00000000000E+00  0.10360452288E+04  0.10360452288E+04  0.00000000000E+00 0.  1.
         21   -1    0    0  501  503 -0.00000000000E+00 -0.00000000000E+00 -0.98244715524E+02  0.98244715524E+02  0.00000000000E+00 0.  1.
          6    2    1    2  501    0 -0.18719412363E+02 -0.16307760395E+03  0.91819105576E+02  0.25561256812E+03  0.17309626086E+03 0.  0.
         24    2    3    3    0    0  0.51472947455E+02 -0.58375853492E+02  0.43027889911E+02  0.12036429031E+03  0.81110779063E+02 0.  0.
         -6    2    1    2    0  502  0.18719412363E+02  0.16307760395E+03  0.84598140772E+03  0.87867737622E+03  0.17159448700E+03 0.  0.
        -24    2    5    5    0    0  0.24799587766E+02  0.17570329673E+03  0.59608771942E+03  0.62834695038E+03  0.89513422308E+02 0.  0.
          5    1    3    3  501    0 -0.70192359818E+02 -0.10470175046E+03  0.48791215665E+02  0.13524827781E+03  0.47000000000E+01 0. -1.
        -13    1    4    4    0    0 -0.16051195429E+02  0.98096089421E+00 -0.69317026807E+01  0.17511472269E+02  0.00000000000E+00 0.  1.
         14    1    4    4    0    0  0.67524142885E+02 -0.59356814386E+02  0.49959592592E+02  0.10285281804E+03  0.00000000000E+00 0. -1.
         -5    1    5    5    0  502 -0.60801754030E+01 -0.12625692775E+02  0.24989368830E+03  0.25033042584E+03  0.47000000000E+01 0.  1.
         11    1    6    6    0    0  0.22343312244E+02  0.35662806030E+02  0.54027003649E+02  0.68483402801E+02  0.00000000000E+00 0. -1.
        -12    1    6    6    0    0  0.24562755213E+01  0.14004049070E+03  0.54206071577E+03  0.55986354758E+03  0.00000000000E+00 0.  1.
</event>
<event>
12    1  0.8358445E-002  0.2781147E+03  0.7818608E-02  0.1096735E+00
         21   -1    0    0  501  502  0.00000000000E+00  0.00000000000E+00  0.19179250268E+03  0.19179250268E+03  0.00000000000E+00 0.  1.
         21   -1    0    0  502  503 -0.00000000000E+00 -0.00000000000E+00 -0.58380414649E+03  0.58380414649E+03  0.00000000000E+00 0. -1.
         -6    2    1    2    0  503 -0.14037119119E+03 -0.16731786981E+03  0.19729421205E+02  0.27872795115E+03  0.17204848101E+03 0.  0.
        -24    2    3    3    0    0 -0.13164278297E+03 -0.12363197527E+03  0.70792058085E+02  0.21080059748E+03  0.82526897393E+02 0.  0.
          6    2    1    2  501    0  0.14037119119E+03  0.16731786981E+03 -0.41174106502E+03  0.49686869801E+03  0.17218727470E+03 0.  0.
         24    2    5    5    0    0  0.32652839595E+02  0.39356745850E+02 -0.22794975737E+03  0.24831563068E+03  0.84168872962E+02 0.  0.
          5    1    5    5  501    0  0.10771835159E+03  0.12796112396E+03 -0.18379130765E+03  0.24855306734E+03  0.47000000000E+01 0. -1.
        -11    1    6    6    0    0  0.23251178066E+02 -0.20350676412E+02 -0.37978374034E+02  0.48960435110E+02  0.00000000000E+00 0.  1.
         12    1    6    6    0    0  0.94016615289E+01  0.59707422262E+02 -0.18997138334E+03  0.19935519557E+03  0.00000000000E+00 0. -1.
         -5    1    3    3    0  503 -0.87284082214E+01 -0.43685894539E+02 -0.51062636881E+02  0.67927353672E+02  0.47000000000E+01 0.  1.
         11    1    4    4    0    0 -0.59256356456E+02 -0.17776203748E+02  0.52745152498E+02  0.81297972374E+02  0.00000000000E+00 0. -1.
        -12    1    4    4    0    0 -0.72386426509E+02 -0.10585577153E+03  0.18046905588E+02  0.12950262511E+03  0.00000000000E+00 0.  1.
</event>
<event>
12    1  0.8358445E-002  0.2578700E+03  0.7818608E-02  0.1108627E+00
         21   -1    0    0  503  502  0.00000000000E+00  0.00000000000E+00  0.57156480587E+03  0.57156480587E+03  0.00000000000E+00 0. -1.
         21   -1    0    0  501  503 -0.00000000000E+00 -0.00000000000E+00 -0.11626168267E+03  0.11626168267E+03  0.00000000000E+00 0. -1.
          6    2    1    2  501    0 -0.16379576293E+03  0.99129863957E+02  0.20561869817E+03  0.32981204314E+03  0.17274592001E+03 0.  0.
         24    2    3    3    0    0 -0.13699995046E+03  0.65869859146E+02  0.22205151655E+03  0.28380801064E+03  0.90179189002E+02 0.  0.
         -6    2    1    2    0  502  0.16379576293E+03 -0.99129863957E+02  0.24968442504E+03  0.35801444540E+03  0.17081056503E+03 0.  0.
        -24    2    5    5    0    0  0.89534715000E+02  0.12479571911E+02  0.13608816725E+03  0.18223740140E+03  0.80735842708E+02 0.  0.
          5    1    3    3  501    0 -0.26795812469E+02  0.33260004812E+02 -0.16432818386E+02  0.46004032497E+02  0.47000000000E+01 0. -1.
        -11    1    4    4    0    0 -0.20763606808E+02 -0.20297433845E+02  0.59371427493E+02  0.66091448698E+02  0.00000000000E+00 0.  1.
         12    1    4    4    0    0 -0.11623634365E+03  0.86167292990E+02  0.16268008906E+03  0.21771656194E+03  0.00000000000E+00 0. -1.
         -5    1    5    5    0  502  0.74261047930E+02 -0.11160943587E+03  0.11359625779E+03  0.17577704400E+03  0.47000000000E+01 0.  1.
         13    1    6    6    0    0  0.63323708815E+02  0.33646393387E+02  0.12932507509E+03  0.14787476774E+03  0.00000000000E+00 0. -1.
        -14    1    6    6    0    0  0.26211006185E+02 -0.21166821475E+02  0.67630921596E+01  0.34362633662E+02  0.00000000000E+00 0.  1.
</event>
<event>
12    1  0.8358445E-002  0.2098858E+03  0.7818608E-02  0.1142389E+00
         21   -1    0    0  501  502  0.00000000000E+00  0.00000000000E+00  0.75435690998E+03  0.75435690998E+03  0.00000000000E+00 0.  1.
         21   -1    0    0  502  503 -0.00000000000E+00 -0.00000000000E+00 -0.11199094732E+03  0.11199094732E+03  0.00000000000E+00 0.  1.
         -6    2    1    2    0  503  0.10802840929E+03 -0.43936739366E+02  0.17259413099E+02  0.20694643180E+03  0.17008340311E+03 0.  0.
        -24    2    3    3    0    0  0.12489616105E+03  0.22478681061E+01  0.39874370807E+02  0.15262272308E+03  0.78100103694E+02 0.  0.
          6    2    1    2  501    0 -0.10802840929E+03  0.43936739366E+02  0.62510654957E+03  0.65940142550E+03  0.17450348809E+03 0.  0.
         24    2    5    5    0    0 -0.78833237172E+02  0.26235006651E+02  0.16109573776E+03  0.19411244766E+03  0.69461145667E+02 0.  0.
          5    1    5    5  501    0 -0.29195172120E+02  0.17701732715E+02  0.46401081181E+03  0.46528897783E+03  0.47000000000E+01 0. -1.
        -11    1    6    6    0    0 -0.33990855028E+02 -0.87033342379E+01  0.11705888265E+03  0.12220437087E+03  0.00000000000E+00 0.  1.
         12    1    6    6    0    0 -0.44842382144E+02  0.34938340889E+02  0.44036855107E+02  0.71908076793E+02  0.00000000000E+00 0. -1.
         -5    1    3    3    0  503 -0.16867751762E+02 -0.46184607472E+02 -0.22614957709E+02  0.54323708719E+02  0.47000000000E+01 0.  1.
         13    1    4    4    0    0  0.15692066383E+02 -0.27960914428E+02 -0.12433331691E+01  0.32087373847E+02  0.00000000000E+00 0. -1.
        -14    1    4    4    0    0  0.10920409467E+03  0.30208782534E+02  0.41117703977E+02  0.12053534924E+03  0.00000000000E+00 0.  1.
</event>
<event>
12    1  0.8358445E-002  0.1768479E+03  0.7818608E-02  0.1171033E+00
         21   -1    0    0  501  502  0.00000000000E+00  0.00000000000E+00  0.26506192663E+03  0.26506192663E+03  0.00000000000E+00 0. -1.
         21   -1    0    0  502  503 -0.00000000000E+00 -0.00000000000E+00 -0.11786271899E+03  0.11786271899E+03  0.00000000000E+00 0. -1.
         -6    2    1    2    0  503 -0.42830374615E+02 -0.21921464113E+01  0.64781025435E+02  0.18833952265E+03  0.17156907659E+03 0.  0.
        -24    2    3    3    0    0 -0.90647438670E+02 -0.43503091078E+00  0.70548320797E+02  0.13991524398E+03  0.79887812212E+02 0.  0.
          6    2    1    2  501    0  0.42830374615E+02  0.21921464113E+01  0.82418182201E+02  0.19458512297E+03  0.17097183051E+03 0.  0.
         24    2    5    5    0    0  0.78990881815E+02  0.37542465392E+02  0.31522440177E+02  0.12268453960E+03  0.80055205356E+02 0.  0.
          5    1    5    5  501    0 -0.36160507200E+02 -0.35350318981E+02  0.50895742025E+02  0.71900583372E+02  0.47000000000E+01 0. -1.
        -11    1    6    6    0    0 -0.64107345384E+01  0.23797172220E+02  0.26275208100E+02  0.36024845367E+02  0.00000000000E+00 0.  1.
         12    1    6    6    0    0  0.85401616353E+02  0.13745293172E+02  0.52472320767E+01  0.86659694233E+02  0.00000000000E+00 0. -1.
         -5    1    3    3    0  503  0.47817064055E+02 -0.17571155005E+01 -0.57672953618E+01  0.48424278678E+02  0.47000000000E+01 0.  1.
         13    1    4    4    0    0 -0.59023119949E+02  0.24808870623E+02  0.75677038416E+02  0.99127306498E+02  0.00000000000E+00 0. -1.
        -14    1    4    4    0    0 -0.31624318721E+02 -0.25243901534E+02 -0.51287176186E+01  0.40787937477E+02  0.00000000000E+00 0.  1.
</event>
<event>
12    1  0.8358445E-002  0.2810816E+03  0.7818608E-02  0.1095555E+00
         21   -1    0    0  503  502  0.00000000000E+00  0.00000000000E+00  0.17149782508E+03  0.17149782508E+03  0.00000000000E+00 0. -1.
         21   -1    0    0  501  503 -0.00000000000E+00 -0.00000000000E+00 -0.67331887267E+03  0.67331887267E+03  0.00000000000E+00 0.  1.
          6    2    1    2  501    0  0.21994794950E+03 -0.41216812171E+01 -0.49231525569E+03  0.56690491667E+03  0.17496509597E+03 0.  0.
         24    2    3    3    0    0  0.51892260518E+02 -0.23389354361E+02 -0.95393340316E+02  0.13541557180E+03  0.77444296823E+02 0.  0.
         -6    2    1    2    0  502 -0.21994794950E+03  0.41216812171E+01 -0.95057918929E+01  0.27791178109E+03  0.16955975125E+03 0.  0.
        -24    2    5    5    0    0 -0.18092767676E+03  0.65032996352E+01 -0.66795976769E+02  0.20839553066E+03  0.78675774927E+02 0.  0.
          5    1    3    3  501    0  0.16805568898E+03  0.19267673144E+02 -0.39692191538E+03  0.43148934487E+03  0.47000000000E+01 0. -1.
        -13    1    4    4    0    0  0.52769846375E+01  0.25029412941E+02 -0.43653568210E+02  0.50595969172E+02  0.00000000000E+00 0.  1.
         14    1    4    4    0    0  0.46615275880E+02 -0.48418767302E+02 -0.51739772107E+02  0.84819602629E+02  0.00000000000E+00 0. -1.
         -5    1    5    5    0  502 -0.39020272737E+02 -0.23816184181E+01  0.57290184876E+02  0.69516250431E+02  0.47000000000E+01 0.  1.
         11    1    6    6    0    0 -0.56464614603E+02  0.38914433246E+02 -0.18659603411E+02  0.71068745708E+02  0.00000000000E+00 0. -1.
        -12    1    6    6    0    0 -0.12446306216E+03 -0.32411133611E+02 -0.48136373359E+02  0.13732678495E+03  0.00000000000E+00 0.  1.
</event>
<event>
12    1  0.8358445E-002  0.2515532E+03  0.7818608E-02  0.1112387E+00
         21   -1    0    0  501  502  0.00000000000E+00  0.00000000000E+00  0.25413060686E+03  0.25413060686E+03  0.00000000000E+00 0.  1.
         21   -1    0    0  502  503 -0.00000000000E+00 -0.00000000000E+00 -0.25479923610E+03  0.25479923610E+03  0.00000000000E+00 0.  1.
         -6    2    1    2    0  503 -0.18253960931E+03  0.10986708624E+02  0.39282573116E+02  0.25422390000E+03  0.17217797201E+03 0.  0.
        -24    2    3    3    0    0 -0.10213548608E+03  0.31229442085E+02  0.76969813969E+02  0.16302626070E+03  0.96157546999E+02 0.  0.
          6    2    1    2  501    0  0.18253960931E+03 -0.10986708624E+02 -0.39951202350E+02  0.25470594296E+03  0.17273564217E+03 0.  0.
         24    2    5    5    0    0  0.99428970176E+02  0.14517549154E+02  0.41361707484E+02  0.13557691708E+03  0.81076693658E+02 0.  0.
          5    1    5    5  501    0  0.83110639136E+02 -0.25504257778E+02 -0.81312909834E+02  0.11912902588E+03  0.47000000000E+01 0. -1.
        -13    1    6    6    0    0  0.28957688341E+02 -0.10693496484E+01 -0.24440891774E+02  0.37908421405E+02  0.00000000000E+00 0.  1.
         14    1    6    6    0    0  0.70471281835E+02  0.15586898802E+02  0.65802599258E+02  0.97668495672E+02  0.00000000000E+00 0. -1.
         -5    1    3    3    0  503 -0.80404123235E+02 -0.20242733460E+02 -0.37687240852E+02  0.91197639302E+02  0.47000000000E+01 0.  1.
         11    1    4    4    0    0 -0.12088148663E+01  0.11115615162E+02 -0.19171206345E+02  0.22193541550E+02  0.00000000000E+00 0. -1.
        -12    1    4    4    0    0 -0.10092667121E+03  0.20113826923E+02  0.96141020313E+02  0.14083271915E+03  0.00000000000E+00 0.  1.
</event>
<event>
12    1  0.8358445E-002  0.1813444E+03  0.7818608E-02  0.1166758E+00
         21   -1    0    0  503  502  0.00000000000E+00  0.00000000000E+00  0.15416162085E+03  0.15416162085E+03  0.00000000000E+00 0. -1.
         21   -1    0    0  501  503 -0.00000000000E+00 -0.00000000000E+00 -0.28700522031E+03  0.28700522031E+03  0.00000000000E+00 0.  1.
          6    2    1    2  501    0  0.51433323213E+02 -0.19007212347E+02 -0.17925363884E+03  0.25498557023E+03  0.17285575817E+03 0.  0.
         24    2    3    3    0    0  0.48502158280E+02  0.55611889767E+02 -0.88616812102E+02  0.13745375969E+03  0.74802774176E+02 0.  0.
         -6    2    1    2    0  502 -0.51433323213E+02  0.19007212347E+02  0.46410039387E+02  0.18618127093E+03  0.17176412033E+03 0.  0.
        -24    2    5    5    0    0  0.24412465742E+02  0.49419590251E+02  0.16548638466E+02  0.99053263397E+02  0.80619024866E+02 0.  0.
          5    1    3    3  501    0  0.29311649332E+01 -0.74619102113E+02 -0.90636826741E+02  0.11753181054E+03  0.47000000000E+01 0. -1.
        -11    1    4    4    0    0 -0.36018780564E+01  0.24317539972E+02 -0.69529715542E+02  0.73747526190E+02  0.00000000000E+00 0.  1.
         12    1    4    4    0    0  0.52104036336E+02  0.31294349795E+02 -0.19087096560E+02  0.63706233500E+02  0.00000000000E+00 0. -1.
         -5    1    5    5    0  502 -0.75845788955E+02 -0.30412377904E+02  0.29861400921E+02  0.87128007535E+02  0.47000000000E+01 0.  1.
         13    1    6    6    0    0  0.48107926522E+02  0.20676437777E+02 -0.10000440951E+02  0.53309440934E+02  0.00000000000E+00 0. -1.
        -14    1    6    6    0    0 -0.23695460780E+02  0.28743152474E+02  0.26549079417E+02  0.45743822464E+02  0.00000000000E+00 0.  1.
</event>
<event>
12    1  0.8358445E-002  0.1861570E+03  0.7818608E-02  0.1163160E+00
         21   -1    0    0  503  502  0.00000000000E+00  0.00000000000E+00  0.32345138325E+02  0.32345138325E+02  0.00000000000E+00 0.  1.
         21   -1    0    0  501  503 -0.00000000000E+00 -0.00000000000E+00 -0.10914999534E+04  0.10914999534E+04  0.00000000000E+00 0.  1.
          6    2    1    2  501    0 -0.30268053134E+01  0.76773491208E+02 -0.65550847116E+03  0.68142921209E+03  0.16956144850E+03 0.  0.
         24    2    3    3    0    0 -0.53709547956E+02  0.89983959073E+02 -0.44981894328E+03  0.46912393956E+03  0.82209248273E+02 0.  0.
         -6    2    1    2    0  502  0.30268053134E+01 -0.76773491208E+02 -0.40364634390E+03  0.44241587963E+03  0.16400643005E+03 0.  0.
        -24    2    5    5    0    0 -0.62940464981E+01 -0.11354650567E+03 -0.26988224095E+03  0.30329701638E+03  0.78868448683E+02 0.  0.
          5    1    3    3  501    0  0.50682742643E+02 -0.13210467865E+02 -0.20568952788E+03  0.21230527253E+03  0.47000000000E+01 0. -1.
        -13    1    4    4    0    0 -0.12474283984E+02  0.45552963431E+02 -0.69654924303E+02  0.84157523240E+02  0.00000000000E+00 0.  1.
         14    1    4    4    0    0 -0.41235263972E+02  0.44430995642E+02 -0.38016401898E+03  0.38496641632E+03  0.00000000000E+00 0. -1.
         -5    1    5    5    0  502  0.93208518115E+01  0.36773014459E+02 -0.13376410296E+03  0.13911886325E+03  0.47000000000E+01 0.  1.
         13    1    6    6    0    0 -0.36679486315E+02 -0.24672717158E+02 -0.95275786283E+02  0.10503143882E+03  0.00000000000E+00 0. -1.
        -14    1    6    6    0    0  0.30385439817E+02 -0.88873788509E+02 -0.17460645466E+03  0.19826557756E+03  0.00000000000E+00 0.  1.
</event>
<event>
12    1  0.8358445E-002  0.1866859E+03  0.7818608E-02  0.1161635E+00
         21   -1    0    0  501  502  0.00000000000E+00  0.00000000000E+00  0.21127485436E+03  0.21127485436E+03  0.00000000000E+00 0.  1.
         21   -1    0    0  502  503 -0.00000000000E+00 -0.00000000000E+00 -0.19121609543E+03  0.19121609543E+03  0.00000000000E+00 0. -1.
         -6    2    1    2    0  503  0.70503410392E+02 -0.10546715275E+02 -0.65371122805E+02  0.19718653187E+03  0.17183474786E+03 0.  0.
        -24    2    3    3    0    0  0.26098991436E+02  0.41082631331E+02 -0.84963188459E+02  0.12617047108E+03  0.79569494327E+02 0.  0.
          6    2    1    2  501    0 -0.70503410392E+02  0.10546715275E+02  0.85429881732E+02  0.20530441792E+03  0.17253890937E+03 0.  0.
         24    2    5    5    0    0 -0.65795115983E+02 -0.32962839680E+02  0.10972961247E+03  0.15502702417E+03  0.81100211358E+02 0.  0.
          5    1    5    5  501    0 -0.47082944093E+01  0.43509554955E+02 -0.24299730740E+02  0.50277393753E+02  0.47000000000E+01 0. -1.
        -13    1    6    6    0    0 -0.58651386995E+02  0.14268840902E+02  0.48906345797E+02  0.77687937779E+02  0.00000000000E+00 0.  1.
         14    1    6    6    0    0 -0.71437289873E+01 -0.47231680582E+02  0.60823266675E+02  0.77339086389E+02  0.00000000000E+00 0. -1.
         -5    1    3    3    0  503  0.44404418956E+02 -0.51629346606E+02  0.19592065654E+02  0.71016060791E+02  0.47000000000E+01 0.  1.
         13    1    4    4    0    0  0.21845657316E+02 -0.13668163222E+02 -0.61065837891E+02  0.66280374069E+02  0.00000000000E+00 0. -1.
        -14    1    4    4    0    0  0.42533341203E+01  0.54750794554E+02 -0.23897350569E+02  0.59890097008E+02  0.00000000000E+00 0.  1.
</event>
<event>
12    1  0.8358445E-002  0.2808113E+03  0.7818608E-02  0.1095650E+00
         21   -1    0    0  501  502  0.00000000000E+00  0.00000000000E+00  0.77211140780E+02  0.77211140780E+02  0.00000000000E+00 0.  1.
         21   -1    0    0  502  503 -0.00000000000E+00 -0.00000000000E+00 -0.14207793273E+04  0.14207793273E+04  0.00000000000E+00 0.  1.
         -6    2    1    2    0  503 -0.19245471508E+03  0.10650780190E+03 -0.10717006192E+04  0.11071363257E+04  0.16978191106E+03 0.  0.
        -24    2    3    3    0    0 -0.60023596496E+02 -0.62011928759E+01 -0.28660655170E+03  0.30299945709E+03  0.77614873513E+02 0.  0.
          6    2    1    2  501    0  0.19245471508E+03 -0.10650780190E+03 -0.27186756734E+03  0.39085414237E+03  0.17456304654E+03 0.  0.
         24    2    5    5    0    0  0.20169696990E+03 -0.43838761153E+02 -0.20705613225E+03  0.30010481697E+03  0.67728536235E+02 0.  0.
          5    1    5    5  501    0 -0.92422548227E+01 -0.62669040750E+02 -0.64811435086E+02  0.90749325401E+02  0.47000000000E+01 0. -1.
        -11    1    6    6    0    0  0.10830605226E+03 -0.12634504867E+02 -0.15268876201E+03  0.18762646325E+03  0.00000000000E+00 0.  1.
         12    1    6    6    0    0  0.93390917643E+02 -0.31204256286E+02 -0.54367370245E+02  0.11247835372E+03  0.00000000000E+00 0. -1.
         -5    1    3    3    0  503 -0.13243111858E+03  0.11270899478E+03 -0.78509406746E+03  0.80413686860E+03  0.47000000000E+01 0.  1.
         11    1    4    4    0    0 -0.19448410614E+02  0.10647664921E+02 -0.12619057065E+02  0.25511841268E+02  0.00000000000E+00 0. -1.
        -12    1    4    4    0    0 -0.40575185882E+02 -0.16848857797E+02 -0.27398749464E+03  0.27748761583E+03  0.00000000000E+00 0.  1.
</event>
<event>
12    1  0.8358445E-002  0.2052452E+03  0.7818608E-02  0.1145634E+00
         21   -1    0    0  501  502  0.00000000000E+00  0.00000000000E+00  0.12026431159E+04  0.12026431159E+04  0.00000000000E+00 0. -1.
         21   -1    0    0  502  503 -0.00000000000E+00 -0.00000000000E+00 -0.45882970798E+02  0.45882970798E+02  0.00000000000E+00 0.  1.
         -6    2    1    2    0  503  0.11082975195E+03 -0.16659899544E+02  0.27058905121E+03  0.33889714511E+03  0.17050529069E+03 0.  0.
        -24    2    3    3    0    0  0.10243822766E+03 -0.23684807835E+02  0.91384812501E+02  0.15929754547E+03  0.77265538427E+02 0.  0.
          6    2    1    2  501    0 -0.11082975195E+03  0.16659899544E+02  0.88617109392E+03  0.90962894163E+03  0.17194422808E+03 0.  0.
         24    2    5    5    0    0  0.11918062169E+02 -0.11929940336E+01  0.32478257697E+03  0.33468119735E+03  0.79901928121E+02 0.  0.
          5    1    5    5  501    0 -0.12274781412E+03  0.17852893577E+02  0.56138851696E+03  0.57494774428E+03  0.47000000000E+01 0. -1.
        -13    1    6    6    0    0  0.10568750147E+02 -0.20472461068E+02  0.30864306025E+03  0.30950179124E+03  0.00000000000E+00 0.  1.
         14    1    6    6    0    0  0.13493120211E+01  0.19279467034E+02  0.16139516717E+02  0.25179406107E+02  0.00000000000E+00 0. -1.
         -5    1    3    3    0  503  0.83915242898E+01  0.70249082920E+01  0.17920423871E+03  0.17959959963E+03  0.47000000000E+01 0.  1.
         11    1    4    4    0    0  0.11043966842E+03 -0.27643590151E+02  0.96294109312E+02  0.14910950313E+03  0.00000000000E+00 0. -1.
        -12    1    4    4    0    0 -0.80014407524E+01  0.39587823158E+01 -0.49092968105E+01  0.10188042339E+02  0.00000000000E+00 0.  1.
</event>
<event>
12    1  0.8358445E-002  0.2075900E+03  0.7818608E-02  0.1143839E+00
         21   -1    0    0  503  502  0.00000000000E+00  0.00000000000E+00  0.19000026269E+03  0.19000026269E+03  0.00000000000E+00 0.  1.
         21   -1    0    0  501  503 -0.00000000000E+00 -0.00000000000E+00 -0.23576005421E+03  0.23576005421E+03  0.00000000000E+00 0. -1.
          6    2    1    2  501    0 -0.13118461731E+02 -0.11431697538E+03  0.22867579183E+02  0.20712062138E+03  0.17069141960E+03 0.  0.
         24    2    3    3    0    0 -0.34928412220E+02 -0.10897917716E+02 -0.23409979135E+02  0.91643879863E+02  0.80695817751E+02 0.  0.
         -6    2    1    2    0  502  0.13118461731E+02  0.11431697538E+03 -0.68627370706E+02  0.21863969551E+03  0.17278059945E+03 0.  0.
        -24    2    5    5    0    0  0.45755674320E+02  0.13520583205E+03 -0.34861049014E+02  0.16702781259E+03  0.79427946513E+02 0.  0.
          5    1    3    3  501    0  0.21809950489E+02 -0.10341905766E+03  0.46277558319E+02  0.11547674152E+03  0.47000000000E+01 0. -1.
        -13    1    4    4    0    0  0.26022902066E+02 -0.46605505608E+01 -0.13129607526E+02  0.29517770194E+02  0.00000000000E+00 0.  1.
         14    1    4    4    0    0 -0.60951314286E+02 -0.62373671551E+01 -0.10280371609E+02  0.62126109669E+02  0.00000000000E+00 0. -1.
         -5    1    5    5    0  502 -0.32637212589E+02 -0.20888856667E+02 -0.33766321692E+02  0.51611882925E+02  0.47000000000E+01 0.  1.
         11    1    6    6    0    0  0.33160948571E+02  0.11136902792E+03 -0.59461554240E+02  0.13053116609E+03  0.00000000000E+00 0. -1.
        -12    1    6    6    0    0  0.12594725750E+02  0.23836804131E+02  0.24600505226E+02  0.36496646493E+02  0.00000000000E+00 0.  1.
</event>
<event>
12    1  0.8358445E-002  0.1904381E+03  0.7818608E-02  0.1158092E+00
         21   -1    0    0  503  502  0.00000000000E+00  0.00000000000E+00  0.11648533185E+04  0.11648533185E+04  0.00000000000E+00 0. -1.
         21   -1    0    0  501  503 -0.00000000000E+00 -0.00000000000E+00 -0.52125300376E+02  0.52125300376E+02  0.00000000000E+00 0. -1.
          6    2    1    2  501    0 -0.72355295492E+02  0.36613487666E+02  0.17015119692E+03  0.25537835755E+03  0.17231029984E+03 0.  0.
         24    2    3    3    0    0 -0.47095152486E+01 -0.37664866322E+02  0.90780710116E+02  0.12725736150E+03  0.80699919683E+02 0.  0.
         -6    2    1    2    0  502  0.72355295492E+02 -0.36613487666E+02  0.94257682123E+03  0.96160026134E+03  0.17218641768E+03 0.  0.
        -24    2    5    5    0    0  0.56922459270E+02  0.68449270850E+01  0.86948155605E+03  0.87504499554E+03  0.80115844335E+02 0.  0.
          5    1    3    3  501    0 -0.67645780244E+02  0.74278353988E+02  0.79370486799E+02  0.12812099606E+03  0.47000000000E+01 0. -1.
        -13    1    4    4    0    0  0.17202532215E+02 -0.32530315038E+02  0.33208576194E+01  0.36948296394E+02  0.00000000000E+00 0.  1.
         14    1    4    4    0    0 -0.21912047463E+02 -0.51345512839E+01  0.87459852497E+02  0.90309065103E+02  0.00000000000E+00 0. -1.
         -5    1    5    5    0  502  0.15432836222E+02 -0.43458414751E+02  0.73095265179E+02  0.86555265802E+02  0.47000000000E+01 0.  1.
         13    1    6    6    0    0  0.45461156435E+02  0.41555405468E+02  0.58150908715E+03  0.58476182067E+03  0.00000000000E+00 0. -1.
        -14    1    6    6    0    0  0.11461302835E+02 -0.34710478383E+02  0.28797246890E+03  0.29028317487E+03  0.00000000000E+00 0.  1.
</event>
<event>
12    1  0.8358445E-002  0.1924984E+03  0.7818608E-02  0.1159367E+00
         21   -1    0    0  503  502  0.00000000000E+00  0.00000000000E+00  0.21878884899E+03  0.21878884899E+03  0.00000000000E+00 0.  1.
         21   -1    0    0  501  503 -0.00000000000E+00 -0.00000000000E+00 -0.23028302193E+03  0.23028302193E+03  0.00000000000E+00 0.  1.
          6    2    1    2  501    0  0.32940330314E+02 -0.80763692787E+02 -0.13198264452E+03  0.23339890314E+03  0.17160358416E+03 0.  0.
         24    2    3    3    0    0 -0.61229391616E+01 -0.11210586832E+03 -0.72507412922E+02  0.15550369043E+03  0.79491236704E+02 0.  0.
         -6    2    1    2    0  502 -0.32940330314E+02  0.80763692787E+02  0.12048847159E+03  0.21567296778E+03  0.15617143725E+03 0.  0.
        -24    2    5    5    0    0  0.24296698575E+02  0.30091179493E+02  0.10524387940E+03  0.13758155551E+03  0.79728298750E+02 0.  0.
          5    1    3    3  501    0  0.39063269475E+02  0.31342175531E+02 -0.59475231601E+02  0.77895212710E+02  0.47000000000E+01 0. -1.
        -13    1    4    4    0    0  0.31307867492E+02 -0.85903548703E+02 -0.54151806773E+02  0.10626391873E+03  0.00000000000E+00 0.  1.
         14    1    4    4    0    0 -0.37430806653E+02 -0.26202319615E+02 -0.18355606149E+02  0.49239771699E+02  0.00000000000E+00 0. -1.
         -5    1    5    5    0  502 -0.57237028888E+02  0.50672513294E+02  0.15244592187E+02  0.78091412271E+02  0.47000000000E+01 0.  1.
         13    1    6    6    0    0  0.38969356467E+01 -0.25491863872E+02  0.15568102702E+02  0.30122865947E+02  0.00000000000E+00 0. -1.
        -14    1    6    6    0    0  0.20399762928E+02  0.55583043364E+02  0.89675776697E+02  0.10745868957E+03  0.00000000000E+00 0.  1.
</event>
<event>
12    1  0.8358445E-002  0.1886453E+03  0.7818608E-02  0.1159699E+00
         21   -1    0    0  501  502  0.00000000000E+00  0.00000000000E+00  0.73706978767E+02  0.73706978767E+02  0.00000000000E+00 0.  1.
         21   -1    0    0  502  503 -0.00000000000E+00 -0.00000000000E+00 -0.55926537478E+03  0.55926537478E+03  0.00000000000E+00 0.  1.
         -6    2    1    2    0  503 -0.66071092797E+02  0.44476316913E+02 -0.35985469738E+03  0.40628212293E+03  0.17095680192E+03 0.  0.
        -24    2    3    3    0    0 -0.61746312303E+02 -0.34705088469E+02 -0.22402542351E+03  0.24892876160E+03  0.82225833676E+02 0.  0.
          6    2    1    2  501    0  0.66071092797E+02 -0.44476316913E+02 -0.12570369864E+03  0.22669023061E+03  0.17100733533E+03 0.  0.
         24    2    5    5    0    0 -0.20224208023E+02 -0.54232653702E+02 -0.48925187593E+02  0.11067689169E+03  0.80656686359E+02 0.  0.
          5    1    5    5  501    0  0.86295300820E+02  0.97563367891E+01 -0.76778511045E+02  0.11601333893E+03  0.47000000000E+01 0. -1.
        -13    1    6    6    0    0 -0.20694283603E+02 -0.74007031251E+02 -0.27756211429E+02  0.81704965096E+02  0.00000000000E+00 0.  1.
         14    1    6    6    0    0  0.47007558069E+00  0.19774377549E+02 -0.21168976164E+02  0.28971926590E+02  0.00000000000E+00 0. -1.
         -5    1    3    3    0  503 -0.43247804940E+01  0.79181405382E+02 -0.13582927386E+03  0.15735336133E+03  0.47000000000E+01 0.  1.
         13    1    4    4    0    0 -0.26002968290E+02 -0.52990781216E+02 -0.80045713064E+02  0.99455987420E+02  0.00000000000E+00 0. -1.
        -14    1    4    4    0    0 -0.35743344013E+02  0.18285692747E+02 -0.14397971045E+03  0.14947277418E+03  0.00000000000E+00 0.  1.
</event>
<event>
12    1  0.8358445E-002  0.1820708E+03  0.7818608E-02  0.1165928E+00
         21   -1    0    0  503  502  0.00000000000E+00  0.00000000000E+00  0.30672411079E+03  0.30672411079E+03  0.00000000000E+00 0. -1.
         21   -1    0    0  501  503 -0.00000000000E+00 -0.00000000000E+00 -0.13327011652E+03  0.13327011652E+03  0.00000000000E+00 0. -1.
          6    2    1    2  501    0 -0.49075079605E+02  0.28074805793E+02 -0.93702030504E+01  0.18231172816E+03  0.17306994933E+03 0.  0.
         24    2    3    3    0    0 -0.14029394414E+01  0.38920102867E+02  0.52130307644E+02  0.10360558969E+03  0.80621378023E+02 0.  0.
         -6    2    1    2    0  502  0.49075079605E+02 -0.28074805793E+02  0.18282419732E+03  0.25768249915E+03  0.17256600212E+03 0.  0.
        -24    2    5    5    0    0  0.12798048768E+02 -0.53836716554E+02  0.18952394231E+03  0.21244230026E+03  0.78423364704E+02 0.  0.
          5    1    3    3  501    0 -0.47672140164E+02 -0.10845297074E+02 -0.61500510694E+02  0.78706138465E+02  0.47000000000E+01 0. -1.
        -13    1    4    4    0    0  0.18425900077E+02  0.43811297734E+02 -0.95547145405E-01  0.47528441296E+02  0.00000000000E+00 0.  1.
         14    1    4    4    0    0 -0.19828839518E+02 -0.48911948669E+01  0.52225854789E+02  0.56077148397E+02  0.00000000000E+00 0. -1.
         -5    1    5    5    0  502  0.36277030838E+02  0.25761910762E+02 -0.66997449941E+01  0.45240198888E+02  0.47000000000E+01 0.  1.
         11    1    6    6    0    0  0.31117415302E+02 -0.15470810021E+02  0.25781409842E+02  0.43270319981E+02  0.00000000000E+00 0. -1.
        -12    1    6    6    0    0 -0.18319366534E+02 -0.38365906533E+02  0.16374253247E+03  0.16917198028E+03  0.00000000000E+00 0.  1.
</event>
<event>
12    1  0.8358445E-002  0.2562059E+03  0.7818608E-02  0.1109655E+00
         21   -1    0    0  501  502  0.00000000000E+00  0.00000000000E+00  0.76161181313E+02  0.76161181313E+02  0.00000000000E+00 0.  1.
         21   -1    0    0  502  503 -0.00000000000E+00 -0.00000000000E+00 -0.87935604761E+03  0.87935604761E+03  0.00000000000E+00 0. -1.
         -6    2    1    2    0  503 -0.18852235845E+03 -0.18809890965E+02 -0.32694580904E+03  0.41537334386E+03  0.17247307357E+03 0.  0.
        -24    2    3    3    0    0 -0.35361695830E+02  0.15384492577E+02 -0.55342738918E+02  0.10165729049E+03  0.76054282034E+02 0.  0.
          6    2    1    2  501    0  0.18852235845E+03  0.18809890965E+02 -0.47624905726E+03  0.54014388506E+03  0.17043403531E+03 0.  0.
         24    2    5    5    0    0  0.37613758124E+02  0.47023243525E+02 -0.17295300561E+03  0.20017332183E+03  0.80812352966E+02 0.  0.
          5    1    5    5  501    0  0.15090860033E+03 -0.28213352560E+02 -0.30329605165E+03  0.33997056323E+03  0.47000000000E+01 0. -1.
        -13    1    6    6    0    0 -0.21006151282E+02  0.28583194724E+02 -0.38542075969E+02  0.52380807862E+02  0.00000000000E+00 0.  1.
         14    1    6    6    0    0  0.58619909405E+02  0.18440048801E+02 -0.13441092964E+03  0.14779251397E+03  0.00000000000E+00 0. -1.
         -5    1    3    3    0  503 -0.15316066262E+03 -0.34194383542E+02 -0.27160307012E+03  0.31371605337E+03  0.47000000000E+01 0.  1.
         11    1    4    4    0    0  0.19735503449E+02 -0.85805331937E+01 -0.28850299125E+02  0.35992435398E+02  0.00000000000E+00 0. -1.
        -12    1    4    4    0    0 -0.55097199279E+02  0.23965025771E+02 -0.26492439792E+02  0.65664855096E+02  0.00000000000E+00 0.  1.
</event>
<event>
12    1  0.8358445E-002  0.2241742E+03  0.7818608E-02  0.1130892E+00
         21   -1    0    0  501  502  0.00000000000E+00  0.00000000000E+00  0.73973849987E+02  0.73973849987E+02  0.00000000000E+00 0.  1.
         21   -1    0    0  502  503 -0.00000000000E+00 -0.00000000000E+00 -0.10054742428E+04  0.10054742428E+04  0.00000000000E+00 0.  1.
         -6    2    1    2    0  503  0.31057726716E+02 -0.13963794005E+03 -0.77410841255E+03  0.80591431618E+03  0.17259986662E+03 0.  0.
        -24    2    3    3    0    0 -0.23089974350E+02 -0.12565998888E+03 -0.67881631014E+03  0.69532484367E+03  0.79758858984E+02 0.  0.
          6    2    1    2  501    0 -0.31057726716E+02  0.13963794005E+03 -0.15739198031E+03  0.27353377665E+03  0.17200335698E+03 0.  0.
         24    2    5    5    0    0 -0.55254642572E+02  0.79068587936E+02 -0.37918910118E+02  0.13733523902E+03  0.90101093267E+02 0.  0.
          5    1    5    5  501    0  0.24196915856E+02  0.60569352113E+02 -0.11947307019E+03  0.13619853763E+03  0.47000000000E+01 0. -1.
        -11    1    6    6    0    0 -0.35979162890E+02  0.86290973598E+02 -0.56808310037E+02  0.10939751540E+03  0.00000000000E+00 0.  1.
         12    1    6    6    0    0 -0.19275479682E+02 -0.72223856622E+01  0.18889399919E+02  0.27937723617E+02  0.00000000000E+00 0. -1.
         -5    1    3    3    0  503  0.54147701066E+02 -0.13977951171E+02 -0.95292102405E+02  0.11058947251E+03  0.47000000000E+01 0.  1.
         13    1    4    4    0    0 -0.11239456928E+02 -0.51107800499E+02 -0.11339889059E+03  0.12489051625E+03  0.00000000000E+00 0. -1.
        -14    1    4    4    0    0 -0.11850517422E+02 -0.74552188379E+02 -0.56541741956E+03  0.57043432741E+03  0.00000000000E+00 0.  1.
</event>
<event>
12    1  0.8358445E-002  0.2755218E+03  0.7818608E-02  0.1098457E+00
         21   -1    0    0  503  502  0.00000000000E+00  0.00000000000E+00  0.22114397633E+03  0.22114397633E+03  0.00000000000E+00 0. -1.
         21   -1    0    0  501  503 -0.00000000000E+00 -0.00000000000E+00 -0.45379559754E+03  0.45379559754E+03  0.00000000000E+00 0.  1.
          6    2    1    2  501    0 -0.12427791770E+03  0.17623669565E+03 -0.28518341696E+03  0.39653729943E+03  0.17148724386E+03 0.  0.
         24    2    3    3    0    0 -0.53983746125E+02  0.10789204992E+02 -0.88283279063E+02  0.12988040935E+03  0.77745299414E+02 0.  0.
         -6    2    1    2    0  502  0.12427791770E+03 -0.17623669565E+03  0.52531795750E+02  0.27840227444E+03  0.16805910605E+03 0.  0.
        -24    2    5    5    0    0  0.41046521278E+01 -0.69050005809E+02  0.50065912397E+02  0.11728501646E+03  0.80401666845E+02 0.  0.
          5    1    3    3  501    0 -0.70294171572E+02  0.16544749066E+03 -0.19690013790E+03  0.26665689008E+03  0.47000000000E+01 0. -1.
        -11    1    4    4    0    0 -0.33578256889E+02 -0.19770053238E+02 -0.84361592640E+02  0.92925952530E+02  0.00000000000E+00 0.  1.
         12    1    4    4    0    0 -0.20405489235E+02  0.30559258231E+02 -0.39216864232E+01  0.36954456821E+02  0.00000000000E+00 0. -1.
         -5    1    5    5    0  502  0.12017326557E+03 -0.10718668984E+03  0.24658833528E+01  0.16111725798E+03  0.47000000000E+01 0.  1.
         11    1    6    6    0    0 -0.68725605911E+00  0.14221287928E+02 -0.73515271029E+01  0.16023804229E+02  0.00000000000E+00 0. -1.
        -12    1    6    6    0    0  0.47919081869E+01 -0.83271293736E+02  0.57417439500E+02  0.10126121223E+03  0.00000000000E+00 0.  1.
</event>
<event>
12    1  0.8358445E-002  0.2021607E+03  0.7818608E-02  0.1148351E+00
         21   -1    0    0  501  502  0.00000000000E+00  0.00000000000E+00  0.20121675184E+03  0.20121675184E+03  0.00000000000E+00 0. -1.
         21   -1    0    0  502  503 -0.00000000000E+00 -0.00000000000E+00 -0.20428595778E+03  0.20428595778E+03  0.00000000000E+00 0. -1.
         -6    2    1    2    0  503  0.66700302792E+02 -0.83760732999E+02 -0.26913446422E+02  0.20194064439E+03  0.16908843684E+03 0.  0.
        -24    2    3    3    0    0  0.60123653021E+02  0.81240908902E+01  0.10548783510E+02  0.10238371668E+03  0.81794218027E+02 0.  0.
          6    2    1    2  501    0 -0.66700302792E+02  0.83760732999E+02  0.23844240482E+02  0.20356206523E+03  0.17147645848E+03 0.  0.
         24    2    5    5    0    0 -0.10226509368E+03  0.74481964589E+02 -0.15104741810E+02  0.14980275798E+03  0.78784520303E+02 0.  0.
          5    1    5    5  501    0  0.35564790890E+02  0.92787684094E+01  0.38948982292E+02  0.53759307248E+02  0.47000000000E+01 0. -1.
        -13    1    6    6    0    0 -0.27627407175E+02  0.68713199916E+02 -0.10513452119E+02  0.74801805763E+02  0.00000000000E+00 0.  1.
         14    1    6    6    0    0 -0.74637686507E+02  0.57687646732E+01 -0.45912896915E+01  0.75000952221E+02  0.00000000000E+00 0. -1.
         -5    1    3    3    0  503  0.65766497710E+01 -0.91884823889E+02 -0.37462229932E+02  0.99556927708E+02  0.47000000000E+01 0.  1.
         11    1    4    4    0    0  0.38904348602E+02 -0.29862740008E+02 -0.15787460791E+02  0.51522572715E+02  0.00000000000E+00 0. -1.
        -12    1    4    4    0    0  0.21219304419E+02  0.37986830898E+02  0.26336244301E+02  0.50861143967E+02  0.00000000000E+00 0.  1.
</event>
<event>
12    1  0.8358445E-002  0.2126136E+03  0.7818608E-02  0.1139547E+00
         21   -1    0    0  503  502  0.00000000000E+00  0.00000000000E+00  0.51620253533E+03  0.51620253533E+03  0.00000000000E+00 0.  1.
         21   -1    0    0  501  503 -0.00000000000E+00 -0.00000000000E+00 -0.87679661101E+02  0.87679661101E+02  0.00000000000E+00 0.  1.
          6    2    1    2  501    0  0.11777943046E+03 -0.33227520891E+02  0.20066539324E+03  0.29235449791E+03  0.17386342347E+03 0.  0.
         24    2    3    3    0    0  0.37620239911E+02 -0.14341550436E+02  0.18964458584E+03  0.20913356361E+03  0.78427137966E+02 0.  0.
         -6    2    1    2    0  502 -0.11777943046E+03  0.33227520891E+02  0.22785748099E+03  0.31152769852E+03  0.17365026035E+03 0.  0.
        -24    2    5    5    0    0 -0.99463047566E+02  0.75557429392E+02  0.10783899613E+03  0.18286598027E+03  0.78796539811E+02 0.  0.
          5    1    3    3  501    0  0.80159190549E+02 -0.18885970455E+02  0.11020807396E+02  0.83220934297E+02  0.47000000000E+01 0. -1.
        -11    1    4    4    0    0  0.47568119253E+02 -0.20532568723E+02  0.61329492129E+02  0.80284612177E+02  0.00000000000E+00 0.  1.
         12    1    4    4    0    0 -0.99478793418E+01  0.61910182875E+01  0.12831509372E+03  0.12884895144E+03  0.00000000000E+00 0. -1.
         -5    1    5    5    0  502 -0.18316382894E+02 -0.42329908501E+02  0.12001848486E+03  0.12866171825E+03  0.47000000000E+01 0.  1.
         13    1    6    6    0    0  0.12044813710E+01  0.41179978255E+02  0.26955304199E+02  0.49232406085E+02  0.00000000000E+00 0. -1.
        -14    1    6    6    0    0 -0.10066752894E+03  0.34377451138E+02  0.80883691933E+02  0.13363357419E+03  0.00000000000E+00 0.  1.
</event>
<event>
12    1  0.8358445E-002  0.2337497E+03  0.7818608E-02  0.1124049E+00
         21   -1    0    0  503  502  0.00000000000E+00  0.00000000000E+00  0.80528034519E+03  0.80528034519E+03  0.00000000000E+00 0.  1.
         21   -1    0    0  501  503 -0.00000000000E+00 -0.00000000000E+00 -0.41020722184E+03  0.41020722184E+03  0.00000000000E+00 0. -1.
          6    2    1    2  501    0  0.71598114621E+01  0.15796384910E+03 -0.35771077314E+03  0.42724744145E+03  0.17198702997E+03 0.  0.
         24    2    3    3    0    0 -0.34751819548E+02  0.14734535203E+03 -0.33886297980E+03  0.37984842661E+03  0.80860165651E+02 0.  0.
         -6    2    1    2    0  502 -0.71598114621E+01 -0.15796384910E+03  0.75278389650E+03  0.78824012558E+03  0.17214836691E+03 0.  0.
        -24    2    5    5    0    0 -0.53375735182E+02 -0.43145238795E+02  0.27739515835E+03  0.29698075699E+03  0.80864178760E+02 0.  0.
          5    1    3    3  501    0  0.41911631010E+02  0.10618497069E+02 -0.18847793343E+02  0.47399014840E+02  0.47000000000E+01 0. -1.
        -11    1    4    4    0    0 -0.30359789118E+02  0.86602074005E+02 -0.28189130951E+03  0.29645294128E+03  0.00000000000E+00 0.  1.
         12    1    4    4    0    0 -0.43920304304E+01  0.60743278028E+02 -0.56971670287E+02  0.83395485322E+02  0.00000000000E+00 0. -1.
         -5    1    5    5    0  502  0.46215923720E+02 -0.11481861031E+03  0.47538873814E+03  0.49125936859E+03  0.47000000000E+01 0.  1.
         11    1    6    6    0    0 -0.59412174982E+02 -0.60508678849E+02  0.24998951740E+03  0.26398080529E+03  0.00000000000E+00 0. -1.
        -12    1    6    6    0    0  0.60364397993E+01  0.17363440054E+02  0.27405640951E+02  0.32999951696E+02  0.00000000000E+00 0.  1.
</event>
<event>
12    1  0.8358445E-002  0.2117001E+03  0.7818608E-02  0.1142215E+00
         21   -1    0    0  501  502  0.00000000000E+00  0.00000000000E+00  0.99584391587E+03  0.99584391587E+03  0.00000000000E+00 0. -1.
         21   -1    0    0  502  503 -0.00000000000E+00 -0.00000000000E+00 -0.44535673561E+02  0.44535673561E+02  0.00000000000E+00 0. -1.
         -6    2    1    2    0  503  0.77658002393E+01  0.10466677288E+03  0.56356086717E+03  0.59860481832E+03  0.17237005689E+03 0.  0.
        -24    2    3    3    0    0  0.41802764305E+02  0.66798496836E+02  0.51828680360E+03  0.53030875632E+03  0.79979096991E+02 0.  0.
          6    2    1    2  501    0 -0.77658002393E+01 -0.10466677288E+03  0.38774737514E+03  0.44177477111E+03  0.18385178940E+03 0.  0.
         24    2    5    5    0    0 -0.10339929206E+02 -0.35121849531E+02  0.35437879273E+03  0.36445288032E+03  0.76818713796E+02 0.  0.
          5    1    5    5  501    0  0.25741289671E+01 -0.69544923345E+02  0.33368582409E+02  0.77321890787E+02  0.47000000000E+01 0. -1.
        -13    1    6    6    0    0 -0.30813777252E+02 -0.46827668273E+02  0.29981428767E+03  0.30500971538E+03  0.00000000000E+00 0.  1.
         14    1    6    6    0    0  0.20473848046E+02  0.11705818743E+02  0.54564505057E+02  0.59443164942E+02  0.00000000000E+00 0. -1.
         -5    1    3    3    0  503 -0.34036964066E+02  0.37868276039E+02  0.45274063564E+02  0.68296061999E+02  0.47000000000E+01 0.  1.
         13    1    4    4    0    0 -0.21396097954E+02  0.45879955535E+01  0.14442146027E+03  0.14606984938E+03  0.00000000000E+00 0. -1.
        -14    1    4    4    0    0  0.63198862259E+02  0.62210501283E+02  0.37386534333E+03  0.38423890694E+03  0.00000000000E+00 0.  1.
</event>
<event>
12    1  0.8358445E-002  0.2081133E+03  0.7818608E-02  0.1143555E+00
         21   -1    0    0  501  502  0.00000000000E+00  0.00000000000E+00  0.76728135038E+02  0.76728135038E+02  0.00000000000E+00 0. -1.
         21   -1    0    0  502  503 -0.00000000000E+00 -0.00000000000E+00 -0.57954835500E+03  0.57954835500E+03  0.00000000000E+00 0. -1.
         -6    2    1    2    0  503 -0.17251868762E+02  0.11547105008E+03 -0.31617279804E+03  0.37851864581E+03  0.17227865980E+03 0.  0.
        -24    2    3    3    0    0 -0.77944503290E+02  0.70755537467E+02 -0.19127802598E+03  0.23256020295E+03  0.80095399981E+02 0.  0.
          6    2    1    2  501    0  0.17251868762E+02 -0.11547105008E+03 -0.18664742192E+03  0.27775784423E+03  0.16935456751E+03 0.  0.
         24    2    5    5    0    0 -0.26887908492E+02 -0.11129344087E+03 -0.18700789010E+03  0.23317093705E+03  0.79294043406E+02 0.  0.
          5    1    5    5  501    0  0.44139777254E+02 -0.41776092115E+01  0.36046817734E+00  0.44586907182E+02  0.47000000000E+01 0. -1.
        -11    1    6    6    0    0 -0.15021606646E+02 -0.19263747311E+02 -0.10972443531E+03  0.11241081946E+03  0.00000000000E+00 0.  1.
         12    1    6    6    0    0 -0.11866301846E+02 -0.92029693560E+02 -0.77283454790E+02  0.12076011759E+03  0.00000000000E+00 0. -1.
         -5    1    3    3    0  503  0.60692634528E+02  0.44715512615E+02 -0.12489477206E+03  0.14595844286E+03  0.47000000000E+01 0.  1.
         13    1    4    4    0    0 -0.85283686782E+02  0.64434541734E+02 -0.12030726112E+03  0.16093152108E+03  0.00000000000E+00 0. -1.
        -14    1    4    4    0    0  0.73391834921E+01  0.63209957331E+01 -0.70970764860E+02  0.71628681868E+02  0.00000000000E+00 0.  1.
</event>
<event>
12    1  0.8358445E-002  0.2104763E+03  0.7818608E-02  0.1141325E+00
         21   -1    0    0  503  502  0.00000000000E+00  0.00000000000E+00  0.30039836837E+02  0.30039836837E+02  0.00000000000E+00 0.  1.
         21   -1    0    0  501  503 -0.00000000000E+00 -0.00000000000E+00 -0.15416395957E+04  0.15416395957E+04  0.00000000000E+00 0.  1.
          6    2    1    2  501    0 -0.10176442554E+03 -0.62412948492E+02 -0.92647755488E+03  0.95008468829E+03  0.17334612998E+03 0.  0.
         24    2    3    3    0    0 -0.89469285201E+02  0.23080528405E+02 -0.57996747391E+03  0.59294097592E+03  0.81726778664E+02 0.  0.
         -6    2    1    2    0  502  0.10176442554E+03  0.62412948492E+02 -0.58512220398E+03  0.62159474424E+03  0.17251277644E+03 0.  0.
        -24    2    5    5    0    0  0.76793073168E+02  0.53602272544E+02 -0.19208784698E+03  0.22764133046E+03  0.78437584535E+02 0.  0.
          5    1    3    3  501    0 -0.12295140342E+02 -0.85493476897E+02 -0.34651008097E+03  0.35714371237E+03  0.47000000000E+01 0. -1.
        -13    1    4    4    0    0  0.14845769358E+02  0.94918576740E+01 -0.10450733053E+03  0.10598242479E+03  0.00000000000E+00 0.  1.
         14    1    4    4    0    0 -0.10431505456E+03  0.13588670731E+02 -0.47546014338E+03  0.48695855114E+03  0.00000000000E+00 0. -1.
         -5    1    5    5    0  502  0.24971352375E+02  0.88106759475E+01 -0.39303435700E+03  0.39395341378E+03  0.47000000000E+01 0.  1.
         11    1    6    6    0    0  0.64885335013E+02  0.67947028434E+01 -0.66830797255E+02  0.93395022074E+02  0.00000000000E+00 0. -1.
        -12    1    6    6    0    0  0.11907738154E+02  0.46807569701E+02 -0.12525704973E+03  0.13424630839E+03  0.00000000000E+00 0.  1.
</event>
<event>
12    1  0.8358445E-002  0.2191217E+03  0.7818608E-02  0.1134582E+00
         21   -1    0    0  503  502  0.00000000000E+00  0.00000000000E+00  0.53705005497E+03  0.53705005497E+03  0.00000000000E+00 0.  1.
         21   -1    0    0  501  503 -0.00000000000E+00 -0.00000000000E+00 -0.37603169951E+03  0.37603169951E+03  0.00000000000E+00 0.  1.
          6    2    1    2  501    0 -0.60992960595E+01 -0.13569326083E+03 -0.31813599835E+03  0.38629629889E+03  0.17194317270E+03 0.  0.
         24    2    3    3    0    0  0.28904103827E+02 -0.11788343605E+03 -0.13289896910E+03  0.19688332450E+03  0.79805737652E+02 0.  0.
         -6    2    1    2    0  502  0.60992960595E+01  0.13569326083E+03  0.47915435381E+03  0.52678545560E+03  0.17165127150E+03 0.  0.
        -24    2    5    5    0    0  0.24255014456E+02  0.11354823718E+03  0.47748336676E+03  0.49771804462E+03  0.79065659566E+02 0.  0.
          5    1    3    3  501    0 -0.35003399886E+02 -0.17809824780E+02 -0.18523702925E+03  0.18941297439E+03  0.47000000000E+01 0. -1.
        -13    1    4    4    0    0 -0.17105033771E+02 -0.42771192062E+02 -0.12549584251E+02  0.47743576694E+02  0.00000000000E+00 0.  1.
         14    1    4    4    0    0  0.46009137598E+02 -0.75112243989E+02 -0.12034938485E+03  0.14913974780E+03  0.00000000000E+00 0. -1.
         -5    1    5    5    0  502 -0.18155718396E+02  0.22145023649E+02  0.16709870518E+01  0.29067410972E+02  0.47000000000E+01 0.  1.
         11    1    6    6    0    0 -0.28966548005E+02  0.43614945624E+02  0.16456445947E+03  0.17269274943E+03  0.00000000000E+00 0. -1.
        -12    1    6    6    0    0  0.53221562461E+02  0.69933291558E+02  0.31291890728E+03  0.32502529519E+03  0.00000000000E+00 0.  1.
</event>
<event>
12    1  0.8358445E-002  0.2431461E+03  0.7818608E-02  0.1118210E+00
         21   -1    0    0  501  502  0.00000000000E+00  0.00000000000E+00  0.19671358863E+03  0.19671358863E+03  0.00000000000E+00 0.  1.
         21   -1    0    0  502  503 -0.00000000000E+00 -0.00000000000E+00 -0.10209827339E+04  0.10209827339E+04  0.00000000000E+00 0. -1.
         -6    2    1    2    0  503  0.16295641862E+03  0.17785825427E+02 -0.92563749607E+03  0.95703960860E+03  0.17957981055E+03 0.  0.
        -24    2    3    3    0    0  0.55873687694E+02 -0.47900399972E+02 -0.55728595217E+03  0.56782714560E+03  0.80272769330E+02 0.  0.
          6    2    1    2  501    0 -0.16295641862E+03 -0.17785825427E+02  0.10136835083E+03  0.26065671390E+03  0.17548575440E+03 0.  0.
         24    2    5    5    0    0 -0.18466381732E+03  0.14157481826E+02  0.74133844086E+02  0.21316572113E+03  0.75117495357E+02 0.  0.
          5    1    5    5  501    0  0.21707398701E+02 -0.31943307253E+02  0.27234506743E+02  0.47490992769E+02  0.47000000000E+01 0. -1.
        -11    1    6    6    0    0 -0.18928929624E+03  0.20414242459E+02  0.76271768385E+02  0.20509646905E+03  0.00000000000E+00 0.  1.
         12    1    6    6    0    0  0.46254789181E+01 -0.62567606330E+01 -0.21379242988E+01  0.80692520811E+01  0.00000000000E+00 0. -1.
         -5    1    3    3    0  503  0.10708273092E+03  0.65686225399E+02 -0.36835154389E+03  0.38921246301E+03  0.47000000000E+01 0.  1.
         13    1    4    4    0    0  0.67176479180E+02 -0.19866087859E+02 -0.47553240026E+03  0.48066454467E+03  0.00000000000E+00 0. -1.
        -14    1    4    4    0    0 -0.11302791486E+02 -0.28034312112E+02 -0.81753551907E+02  0.87162600927E+02  0.00000000000E+00 0.  1.
</event>
<event>
12    1  0.8358445E-002  0.1804607E+03  0.7818608E-02  0.1167843E+00
         21   -1    0    0  501  502  0.00000000000E+00  0.00000000000E+00  0.94737365649E+02  0.94737365649E+02  0.00000000000E+00 0.  1.
         21   -1    0    0  502  503 -0.00000000000E+00 -0.00000000000E+00 -0.35644442732E+03  0.35644442732E+03  0.00000000000E+00 0.  1.
         -6    2    1    2    0  503 -0.80476978203E+01  0.49566340633E+02 -0.18006816742E+03  0.25493254888E+03  0.17333341281E+03 0.  0.
        -24    2    3    3    0    0 -0.16132780006E+02 -0.88338267829E+01 -0.18128163312E+03  0.19577588731E+03  0.71602126101E+02 0.  0.
          6    2    1    2  501    0  0.80476978203E+01 -0.49566340633E+02 -0.81638894250E+02  0.19624924409E+03  0.17125206331E+03 0.  0.
         24    2    5    5    0    0 -0.10250821514E+02 -0.76068232975E+02 -0.30520327567E+01  0.11118943627E+03  0.80388559034E+02 0.  0.
          5    1    5    5  501    0  0.18298519334E+02  0.26501892343E+02 -0.78586861494E+02  0.85059807824E+02  0.47000000000E+01 0. -1.
        -11    1    6    6    0    0 -0.78455850638E+00 -0.35873213173E+02 -0.41434421993E+02  0.54811625421E+02  0.00000000000E+00 0.  1.
         12    1    6    6    0    0 -0.94662630076E+01 -0.40195019802E+02  0.38382389236E+02  0.56377810845E+02  0.00000000000E+00 0. -1.
         -5    1    3    3    0  503  0.80850821856E+01  0.58400167416E+02  0.12134656977E+01  0.59156661562E+02  0.47000000000E+01 0.  1.
         11    1    4    4    0    0 -0.29470865919E+02 -0.34273909139E+02 -0.11073898005E+03  0.11960917393E+03  0.00000000000E+00 0. -1.
        -12    1    4    4    0    0  0.13338085914E+02  0.25440082357E+02 -0.70542653066E+02  0.76166713384E+02  0.00000000000E+00 0.  1.
</event>
<event>
12    1  0.8358445E-002  0.2134306E+03  0.7818608E-02  0.1138943E+00
         21   -1    0    0  501  502  0.00000000000E+00  0.00000000000E+00  0.11325735266E+03  0.11325735266E+03  0.00000000000E+00 0. -1.
         21   -1    0    0  502  503 -0.00000000000E+00 -0.00000000000E+00 -0.57870978476E+03  0.57870978476E+03  0.00000000000E+00 0.  1.
         -6    2    1    2    0  503  0.41025250057E+02 -0.11974303619E+03 -0.42426753003E+03  0.47492689285E+03  0.17184629949E+03 0.  0.
        -24    2    3    3    0    0 -0.37989371916E+02 -0.55923538271E+02 -0.16350704684E+03  0.19504413455E+03  0.82079385609E+02 0.  0.
          6    2    1    2  501    0 -0.41025250057E+02  0.11974303619E+03 -0.41184902069E+02  0.21704024457E+03  0.17143163578E+03 0.  0.
         24    2    5    5    0    0 -0.91641930213E+02  0.81303249893E+02 -0.44639574900E+02  0.15321477751E+03  0.80458775682E+02 0.  0.
          5    1    5    5  501    0  0.50616680156E+02  0.38439786302E+02  0.34546728314E+01  0.63825467060E+02  0.47000000000E+01 0. -1.
        -13    1    6    6    0    0 -0.37844850840E+01  0.17172071307E+02 -0.40738018434E+02  0.44371032288E+02  0.00000000000E+00 0.  1.
         14    1    6    6    0    0 -0.87857445129E+02  0.64131178586E+02 -0.39015564656E+01  0.10884374522E+03  0.00000000000E+00 0. -1.
         -5    1    3    3    0  503  0.79014621973E+02 -0.63819497924E+02 -0.26076048319E+03  0.27988275830E+03  0.47000000000E+01 0.  1.
         11    1    4    4    0    0 -0.31365204187E+02  0.14147222627E+02 -0.38904823457E+02  0.51937512743E+02  0.00000000000E+00 0. -1.
        -12    1    4    4    0    0 -0.66241677294E+01 -0.70070760898E+02 -0.12460222339E+03  0.14310662180E+03  0.00000000000E+00 0.  1.
</event>
<event>
12    1  0.8358445E-002  0.2191248E+03  0.7818608E-02  0.1134585E+00
         21   -1    0    0  501  502  0.00000000000E+00  0.00000000000E+00  0.12074068998E+03  0.12074068998E+03  0.00000000000E+00 0.  1.
         21   -1    0    0  502  503 -0.00000000000E+00 -0.00000000000E+00 -0.53788625599E+03  0.53788625599E+03  0.00000000000E+00 0.  1.
         -6    2    1    2    0  503 -0.45544391809E+02  0.12771531926E+03 -0.40251355140E+02  0.22279105015E+03  0.17213420938E+03 0.  0.
        -24    2    3    3    0    0  0.15172155383E+01  0.13974983469E+03 -0.21950571039E+02  0.17066971914E+03  0.95467309711E+02 0.  0.
          6    2    1    2  501    0  0.45544391809E+02 -0.12771531926E+03 -0.37689421086E+03  0.43583589582E+03  0.17180857809E+03 0.  0.
         24    2    5    5    0    0 -0.31865085411E+02 -0.54261871478E+02 -0.25105217060E+03  0.27077243756E+03  0.79566237912E+02 0.  0.
          5    1    5    5  501    0  0.77409477220E+02 -0.73453447781E+02 -0.12584204026E+03  0.16506345826E+03  0.47000000000E+01 0. -1.
        -13    1    6    6    0    0 -0.21566380791E+02 -0.52383403400E+02 -0.25372162439E+03  0.25996882970E+03  0.00000000000E+00 0.  1.
         14    1    6    6    0    0 -0.10298704621E+02 -0.18784680786E+01  0.26694537946E+01  0.10803607858E+02  0.00000000000E+00 0. -1.
         -5    1    3    3    0  503 -0.47061607347E+02 -0.12034515429E+02 -0.18300784101E+02  0.52121331012E+02  0.47000000000E+01 0.  1.
         13    1    4    4    0    0  0.46423414593E+02  0.62698610116E+02 -0.23490558100E+02  0.81474262518E+02  0.00000000000E+00 0. -1.
        -14    1    4    4    0    0 -0.44906199055E+02  0.77051224572E+02  0.15399870602E+01  0.89195456621E+02  0.00000000000E+00 0.  1.
</event>
<event>
12    1  0.8358445E-002  0.1779297E+03  0.7818608E-02  0.1169898E+00
         21   -1    0    0  503  502  0.00000000000E+00  0.00000000000E+00  0.51704055136E+02  0.51704055136E+02  0.00000000000E+00 0. -1.
         21   -1    0    0  501  503 -0.00000000000E+00 -0.00000000000E+00 -0.18205760948E+04  0.18205760948E+04  0.00000000000E+00 0. -1.
          6    2    1    2  501    0 -0.42027780581E+02 -0.92996643708E+01 -0.16476652396E+04  0.16572446174E+04  0.17264461220E+03 0.  0.
         24    2    3    3    0    0 -0.40972482139E+01  0.54970072920E+02 -0.11457168719E+04  0.11497571021E+04  0.78966745095E+02 0.  0.
         -6    2    1    2    0  502  0.42027780581E+02  0.92996643708E+01 -0.12120680013E+03  0.21503553257E+03  0.17232635832E+03 0.  0.
        -24    2    5    5    0    0 -0.64933886001E+01 -0.39565766916E+02 -0.11616561100E+03  0.14582832325E+03  0.78510105561E+02 0.  0.
          5    1    3    3  501    0 -0.37930532367E+02 -0.64269737291E+02 -0.50194836769E+03  0.50748751535E+03  0.47000000000E+01 0. -1.
        -11    1    4    4    0    0 -0.33249025082E+02  0.53835532449E+02 -0.61702634245E+03  0.62026225864E+03  0.00000000000E+00 0.  1.
         12    1    4    4    0    0  0.29151776868E+02  0.11345404710E+01 -0.52869052945E+03  0.52949484342E+03  0.00000000000E+00 0. -1.
         -5    1    5    5    0  502  0.48521169181E+02  0.48865431286E+02 -0.50411891218E+01  0.69207209316E+02  0.47000000000E+01 0.  1.
         11    1    6    6    0    0  0.13429559609E+01 -0.52864473783E+02 -0.35483875557E+02  0.63683290929E+02  0.00000000000E+00 0. -1.
        -12    1    6    6    0    0 -0.78363445610E+01  0.13298706867E+02 -0.80681735447E+02  0.82145032322E+02  0.00000000000E+00 0.  1.
</event>
<event>
12    1  0.8358445E-002  0.1724693E+03  0.7818608E-02  0.1175363E+00
         21   -1    0    0  501  502  0.00000000000E+00  0.00000000000E+00  0.88014887938E+03  0.88014887938E+03  0.00000000000E+00 0.  1.
         21   -1    0    0  502  503 -0.00000000000E+00 -0.00000000000E+00 -0.51561238216E+02  0.51561238216E+02  0.00000000000E+00 0.  1.
         -6    2    1    2    0  503 -0.54321751103E+01 -0.73875778135E+01  0.14066283336E+03  0.22255720284E+03  0.17222540758E+03 0.  0.
        -24    2    3    3    0    0 -0.39497944799E+01  0.42781367056E+01  0.17160294985E+03  0.18912567348E+03  0.79290886258E+02 0.  0.
          6    2    1    2  501    0  0.54321751103E+01  0.73875778135E+01  0.68792480780E+03  0.70915291475E+03  0.17196869041E+03 0.  0.
         24    2    5    5    0    0 -0.63147923649E+02  0.11153382160E+02  0.42740612456E+03  0.43969144154E+03  0.80873421207E+02 0.  0.
          5    1    5    5  501    0  0.68580098759E+02 -0.37658043468E+01  0.26051868323E+03  0.26946147321E+03  0.47000000000E+01 0. -1.
        -11    1    6    6    0    0  0.83128550410E+01  0.28192776912E+02  0.10630652913E+03  0.11029512394E+03  0.00000000000E+00 0.  1.
         12    1    6    6    0    0 -0.71460778690E+02 -0.17039394751E+02  0.32109959543E+03  0.32939631760E+03  0.00000000000E+00 0. -1.
         -5    1    3    3    0  503 -0.14823806303E+01 -0.11665714519E+02 -0.30940116482E+02  0.33431529362E+02  0.47000000000E+01 0.  1.
         13    1    4    4    0    0  0.24959102378E+02  0.28621226801E+02  0.57342105880E+02  0.68776802208E+02  0.00000000000E+00 0. -1.
        -14    1    4    4    0    0 -0.28908896858E+02 -0.24343090096E+02  0.11426084397E+03  0.12034887127E+03  0.00000000000E+00 0.  1.
</event>
<event>
12    1  0.8358445E-002  0.2060954E+03  0.7818608E-02  0.1144886E+00
         21   -1    0    0  503  502  0.00000000000E+00  0.00000000000E+00  0.41694888265E+03  0.41694888265E+03  0.00000000000E+00 0.  1.
         21   -1    0    0  501  503 -0.00000000000E+00 -0.00000000000E+00 -0.10142590256E+03  0.10142590256E+03  0.00000000000E+00 0.  1.
          6    2    1    2  501    0  0.96255162127E+02  0.56912417365E+02  0.16139411172E+03  0.26176971871E+03  0.17312205767E+03 0.  0.
         24    2    3    3    0    0  0.25716404837E+02 -0.79829525559E+01  0.13330608480E+02  0.85327047267E+02  0.79861998871E+02 0.  0.
         -6    2    1    2    0  502 -0.96255162127E+02 -0.56912417365E+02  0.15412886837E+03  0.25660506649E+03  0.17200689694E+03 0.  0.
        -24    2    5    5    0    0  0.17948410699E+02 -0.27166761332E+02  0.50390677092E+02  0.99407857771E+02  0.79262371154E+02 0.  0.
          5    1    3    3  501    0  0.70538757289E+02  0.64895369921E+02  0.14806350324E+03  0.17644267145E+03  0.47000000000E+01 0. -1.
        -13    1    4    4    0    0  0.46898644197E+02  0.14040571086E+02 -0.57660000117E+01  0.49293683369E+02  0.00000000000E+00 0.  1.
         14    1    4    4    0    0 -0.21182239360E+02 -0.22023523642E+02  0.19096608492E+02  0.36033363898E+02  0.00000000000E+00 0. -1.
         -5    1    5    5    0  502 -0.11420357283E+03 -0.29745656033E+02  0.10373819128E+03  0.15719720872E+03  0.47000000000E+01 0.  1.
         13    1    6    6    0    0 -0.16533138251E+02 -0.32333700644E+02 -0.21182799804E+01  0.36377190214E+02  0.00000000000E+00 0. -1.
        -14    1    6    6    0    0  0.34481548950E+02  0.51669393116E+01  0.52508957072E+02  0.63030667557E+02  0.00000000000E+00 0.  1.
</event>
<event>
12    1  0.8358445E-002  0.1936626E+03  0.7818608E-02  0.1155231E+00
         21   -1    0    0  503  502  0.00000000000E+00  0.00000000000E+00  0.80497357981E+02  0.80497357981E+02  0.00000000000E+00 0. -1.
         21   -1    0    0  501  503 -0.00000000000E+00 -0.00000000000E+00 -0.49687960568E+03  0.49687960568E+03  0.00000000000E+00 0.  1.
          6    2    1    2  501    0 -0.66874609932E+02  0.58769772128E+02 -0.13579097309E+03  0.23652564051E+03  0.17198572813E+03 0.  0.
         24    2    3    3    0    0 -0.93038344365E+02  0.30327632060E+02 -0.38312625067E+02  0.13156081467E+03  0.79148543445E+02 0.  0.
         -6    2    1    2    0  502  0.66874609932E+02 -0.58769772128E+02 -0.28059127461E+03  0.34085132315E+03  0.17181985198E+03 0.  0.
        -24    2    5    5    0    0  0.49771941897E+02 -0.97520541150E+02 -0.25970681937E+03  0.29339214254E+03  0.81509601449E+02 0.  0.
          5    1    3    3  501    0  0.26163734433E+02  0.28442140068E+02 -0.97478348021E+02  0.10496482584E+03  0.47000000000E+01 0. -1.
        -11    1    4    4    0    0 -0.34899652037E+02  0.94001960563E+01 -0.56569026425E+02  0.67129756061E+02  0.00000000000E+00 0.  1.
         12    1    4    4    0    0 -0.58138692328E+02  0.20927436004E+02  0.18256401358E+02  0.64431058612E+02  0.00000000000E+00 0. -1.
         -5    1    5    5    0  502  0.17102668035E+02  0.38750769022E+02 -0.20884455245E+02  0.47459180614E+02  0.47000000000E+01 0.  1.
         11    1    6    6    0    0  0.35400905882E+02 -0.10664129656E+03 -0.18238643852E+03  0.21422045473E+03  0.00000000000E+00 0. -1.
        -12    1    6    6    0    0  0.14371036015E+02  0.91207554083E+01 -0.77320380844E+02  0.79171687801E+02  0.00000000000E+00 0.  1.
</event>
<event>
12    1  0.8358445E-002  0.1904296E+03  0.7818608E-02  0.1158849E+00
         21   -1    0    0  503  502  0.00000000000E+00  0.00000000000E+00  0.36332361405E+03  0.36332361405E+03  0.00000000000E+00 0. -1.
         21   -1    0    0  501  503 -0.00000000000E+00 -0.00000000000E+00 -0.33373270459E+03  0.33373270459E+03  0.00000000000E+00 0. -1.
          6    2    1    2  501    0 -0.34330268131E+02  0.69302067954E+02 -0.27806281710E+03  0.33701984733E+03  0.17401753736E+03 0.  0.
         24    2    3    3    0    0 -0.34230774033E+01  0.76605098289E+02 -0.77623772314E+02  0.13402603125E+03  0.77829740343E+02 0.  0.
         -6    2    1    2    0  502  0.34330268131E+02 -0.69302067954E+02  0.30765372656E+03  0.36003647132E+03  0.17027654353E+03 0.  0.
        -24    2    5    5    0    0  0.24573288568E+02 -0.60654939274E+02  0.32310448345E+03  0.33928105340E+03  0.80201357823E+02 0.  0.
          5    1    3    3  501    0 -0.30907190728E+02 -0.73030303356E+01 -0.20043904479E+03  0.20299381608E+03  0.47000000000E+01 0. -1.
        -13    1    4    4    0    0  0.35345902714E+02  0.52999656775E+02 -0.48929135149E+02  0.80326563000E+02  0.00000000000E+00 0.  1.
         14    1    4    4    0    0 -0.38768980118E+02  0.23605441514E+02 -0.28694637164E+02  0.53699468251E+02  0.00000000000E+00 0. -1.
         -5    1    5    5    0  502  0.97569795634E+01 -0.86471286802E+01 -0.15450756890E+02  0.20755417921E+02  0.47000000000E+01 0.  1.
         11    1    6    6    0    0 -0.29397650747E+02 -0.26036408540E+02  0.11473746300E+03  0.12127160366E+03  0.00000000000E+00 0. -1.
        -12    1    6    6    0    0  0.53970939315E+02 -0.34618530733E+02  0.20836702046E+03  0.21800944974E+03  0.00000000000E+00 0.  1.
</event>
<event>
12    1  0.8358445E-002  0.2201601E+03  0.7818608E-02  0.1133947E+00
         21   -1    0    0  501  502  0.00000000000E+00  0.00000000000E+00  0.13366968447E+04  0.13366968447E+04  0.00000000000E+00 0. -1.
         21   -1    0    0  502  503 -0.00000000000E+00 -0.00000000000E+00 -0.48688614176E+02  0.48688614176E+02  0.00000000000E+00 0.  1.
         -6    2    1    2    0  503  0.13502563770E+03 -0.16164626957E+02  0.29070546447E+03  0.36407097209E+03  0.17188597279E+03 0.  0.
        -24    2    3    3    0    0  0.14164773878E+03 -0.46060361647E+02  0.17232573104E+03  0.24170488829E+03  0.80866906898E+02 0.  0.
          6    2    1    2  501    0 -0.13502563770E+03  0.16164626957E+02  0.99730276607E+03  0.10213144868E+04  0.17313941130E+03 0.  0.
         24    2    5    5    0    0 -0.15829046587E+03  0.43405338934E+02  0.86767352241E+03  0.88674428419E+03  0.80735302240E+02 0.  0.
          5    1    5    5  501    0  0.23264828166E+02 -0.27240711977E+02  0.12962924366E+03  0.13457020261E+03  0.47000000000E+01 0. -1.
        -13    1    6    6    0    0 -0.80620762733E+02  0.63457119852E+02  0.50147186508E+03  0.51185988797E+03  0.00000000000E+00 0.  1.
         14    1    6    6    0    0 -0.77669703135E+02 -0.20051780919E+02  0.36620165733E+03  0.37488439622E+03  0.00000000000E+00 0. -1.
         -5    1    3    3    0  503 -0.66221010779E+01  0.29895734690E+02  0.11837973343E+03  0.12236608380E+03  0.47000000000E+01 0.  1.
         11    1    4    4    0    0  0.55397580498E+01  0.18128000743E+02  0.17559178333E+02  0.25838693347E+02  0.00000000000E+00 0. -1.
        -12    1    4    4    0    0  0.13610798073E+03 -0.64188362390E+02  0.15476655270E+03  0.21586619495E+03  0.00000000000E+00 0.  1.
</event>
<event>
12    1  0.8358445E-002  0.1927901E+03  0.7818608E-02  0.1156221E+00
         21   -1    0    0  503  502  0.00000000000E+00  0.00000000000E+00  0.28671039999E+04  0.28671039999E+04  0.00000000000E+00 0.  1.
         21   -1    0    0  501  503 -0.00000000000E+00 -0.00000000000E+00 -0.28316566296E+02  0.28316566296E+02  0.00000000000E+00 0. -1.
          6    2    1    2  501    0  0.68093724315E+02  0.48592857434E+02  0.34883561379E+03  0.39801629558E+03  0.17243162417E+03 0.  0.
         24    2    3    3    0    0  0.22644018715E+02 -0.36786178714E+02  0.19905109444E+03  0.21965501113E+03  0.82225368284E+02 0.  0.
         -6    2    1    2    0  502 -0.68093724315E+02 -0.48592857434E+02  0.24899518198E+04  0.24974042706E+04  0.17369514909E+03 0.  0.
        -24    2    5    5    0    0 -0.74583357294E+02 -0.20821617641E+02  0.85535022049E+03  0.86254714059E+03  0.79795695983E+02 0.  0.
          5    1    3    3  501    0  0.45449705600E+02  0.85379036148E+02  0.14978451935E+03  0.17836128445E+03  0.47000000000E+01 0. -1.
        -11    1    4    4    0    0  0.53760646675E+02 -0.24962707145E+02  0.13603150383E+03  0.14838434524E+03  0.00000000000E+00 0.  1.
         12    1    4    4    0    0 -0.31116627960E+02 -0.11823471568E+02  0.63019590611E+02  0.71270665889E+02  0.00000000000E+00 0. -1.
         -5    1    5    5    0  502  0.64896329792E+01 -0.27771239793E+02  0.16346015993E+04  0.16348571300E+04  0.47000000000E+01 0.  1.
         13    1    6    6    0    0 -0.20381940648E+02  0.27805771968E+02  0.39162065557E+03  0.39313524686E+03  0.00000000000E+00 0. -1.
        -14    1    6    6    0    0 -0.54201416646E+02 -0.48627389609E+02  0.46372956492E+03  0.46941189372E+03  0.00000000000E+00 0.  1.
</event>
<event>
12    1  0.8358445E-002  0.3741248E+03  0.7818608E-02  0.1053428E+00
         21   -1    0    0  501  502  0.00000000000E+00  0.00000000000E+00  0.40555664299E+03  0.40555664299E+03  0.00000000000E+00 0.  1.
         21   -1    0    0  502  503 -0.00000000000E+00 -0.00000000000E+00 -0.38159608234E+03  0.38159608234E+03  0.00000000000E+00 0. -1.
         -6    2    1    2    0  503  0.27527763493E+03  0.18601486075E+03  0.13838593130E+03  0.39592065569E+03  0.16499452992E+03 0.  0.
        -24    2    3    3    0    0  0.29152097795E+03  0.18283984514E+03  0.13049100779E+03  0.37699060726E+03  0.81725915661E+02 0.  0.
          6    2    1    2  501    0 -0.27527763493E+03 -0.18601486075E+03 -0.11442537065E+03  0.39123206965E+03  0.17201762167E+03 0.  0.
         24    2    5    5    0    0 -0.18182557788E+03 -0.19041565265E+03 -0.84801775248E+02  0.29298594331E+03  0.96595860931E+02 0.  0.
          5    1    5    5  501    0 -0.93452057052E+02  0.44007919013E+01 -0.29623595398E+02  0.98246126341E+02  0.47000000000E+01 0. -1.
        -13    1    6    6    0    0 -0.12155432112E+03 -0.66409455679E+02 -0.67318018709E+02  0.15400449484E+03  0.00000000000E+00 0.  1.
         14    1    6    6    0    0 -0.60271256760E+02 -0.12400619697E+03 -0.17483756538E+02  0.13898144848E+03  0.00000000000E+00 0. -1.
         -5    1    3    3    0  503 -0.16243343014E+02  0.31750156052E+01  0.78949235017E+01  0.18930048428E+02  0.47000000000E+01 0.  1.
         11    1    4    4    0    0  0.82676248206E+02  0.51134539936E+02  0.77834701359E+02  0.12453250149E+03  0.00000000000E+00 0. -1.
        -12    1    4    4    0    0  0.20884472974E+03  0.13170530521E+03  0.52656306435E+02  0.25245810577E+03  0.00000000000E+00 0.  1.
</event>
<event>
12    1  0.8358445E-002  0.2132391E+03  0.7818608E-02  0.1139277E+00
         21   -1    0    0  503  502  0.00000000000E+00  0.00000000000E+00  0.17065215261E+03  0.17065215261E+03  0.00000000000E+00 0. -1.
         21   -1    0    0  501  503 -0.00000000000E+00 -0.00000000000E+00 -0.32932514774E+03  0.32932514774E+03  0.00000000000E+00 0. -1.
          6    2    1    2  501    0 -0.10585727158E+03  0.66488941130E+02 -0.19014545531E+03  0.28570299039E+03  0.17275521209E+03 0.  0.
         24    2    3    3    0    0 -0.11262361709E+03 -0.43082730147E+01 -0.97498851453E+02  0.16881196349E+03  0.79302034273E+02 0.  0.
         -6    2    1    2    0  502  0.10585727158E+03 -0.66488941130E+02  0.31472460188E+02  0.21427430996E+03  0.17116197861E+03 0.  0.
        -24    2    5    5    0    0  0.20601439558E+02 -0.85403297074E+02  0.38748201580E+01  0.12256809704E+03  0.85380218533E+02 0.  0.
          5    1    3    3  501    0  0.67663455163E+01  0.70797214144E+02 -0.92646603859E+02  0.11689102690E+03  0.47000000000E+01 0. -1.
        -11    1    4    4    0    0 -0.20316929203E+02  0.10514757194E+02 -0.66488181201E+02  0.70313696891E+02  0.00000000000E+00 0.  1.
         12    1    4    4    0    0 -0.92306687891E+02 -0.14823030208E+02 -0.31010670252E+02  0.98498266602E+02  0.00000000000E+00 0. -1.
         -5    1    5    5    0  502  0.85255832021E+02  0.18914355944E+02  0.27597640030E+02  0.91706212928E+02  0.47000000000E+01 0.  1.
         11    1    6    6    0    0  0.34641119709E+02 -0.79380643750E+02  0.30539999976E+02  0.91836732168E+02  0.00000000000E+00 0. -1.
        -12    1    6    6    0    0 -0.14039680152E+02 -0.60226533241E+01 -0.26665179819E+02  0.30731364867E+02  0.00000000000E+00 0.  1.
</event>
<event>
12    1  0.8358445E-002  0.2123294E+03  0.7818608E-02  0.1140171E+00
         21   -1    0    0  503  502  0.00000000000E+00  0.00000000000E+00  0.71716404704E+03  0.71716404704E+03  0.00000000000E+00 0.  1.
         21   -1    0    0  501  503 -0.00000000000E+00 -0.00000000000E+00 -0.65130506107E+02  0.65130506107E+02  0.00000000000E+00 0. -1.
          6    2    1    2  501    0 -0.57046225624E+02  0.10626281349E+03  0.41052787429E+03  0.46218709022E+03  0.17475043179E+03 0.  0.
         24    2    3    3    0    0 -0.85385869072E+02  0.28267699655E+02  0.16622973160E+03  0.20413661901E+03  0.77133819240E+02 0.  0.
         -6    2    1    2    0  502  0.57046225624E+02 -0.10626281349E+03  0.24150566664E+03  0.32010746292E+03  0.17203994713E+03 0.  0.
        -24    2    5    5    0    0  0.46480245682E+02 -0.14332579280E+03  0.19326174527E+03  0.25818113317E+03  0.81269300588E+02 0.  0.
          5    1    3    3  501    0  0.28339643448E+02  0.77995113838E+02  0.24429814269E+03  0.25805047122E+03  0.47000000000E+01 0. -1.
        -11    1    4    4    0    0 -0.24479729042E+02  0.47932161279E+02  0.86770176062E+02  0.10210686888E+03  0.00000000000E+00 0.  1.
         12    1    4    4    0    0 -0.60906140030E+02 -0.19664461624E+02  0.79459555538E+02  0.10202975013E+03  0.00000000000E+00 0. -1.
         -5    1    5    5    0  502  0.10565979941E+02  0.37062979310E+02  0.48243921373E+02  0.61926329755E+02  0.47000000000E+01 0.  1.
         11    1    6    6    0    0 -0.38558375977E+01 -0.19884691228E+02 -0.34566330076E+01  0.20547913289E+02  0.00000000000E+00 0. -1.
        -12    1    6    6    0    0  0.50336083280E+02 -0.12344110158E+03  0.19671837827E+03  0.23763321988E+03  0.00000000000E+00 0.  1.
</event>
<event>
12    1  0.8358445E-002  0.3581121E+03  0.7818608E-02  0.1059560E+00
         21   -1    0    0  501  502  0.00000000000E+00  0.00000000000E+00  0.34914386764E+03  0.34914386764E+03  0.00000000000E+00 0.  1.
         21   -1    0    0  502  503 -0.00000000000E+00 -0.00000000000E+00 -0.41396734469E+03  0.41396734469E+03  0.00000000000E+00 0. -1.
         -6    2    1    2    0  503  0.28553650680E+03  0.13111269698E+03 -0.16355988378E+03  0.39163687228E+03  0.16705079504E+03 0.  0.
        -24    2    3    3    0    0  0.27383347458E+03  0.15447739826E+03 -0.16630162772E+03  0.36494460019E+03  0.81733049963E+02 0.  0.
          6    2    1    2  501    0 -0.28553650680E+03 -0.13111269698E+03  0.98736406730E+02  0.37147434005E+03  0.17182162634E+03 0.  0.
         24    2    5    5    0    0 -0.29075678313E+03 -0.13871358079E+03  0.11584225122E+03  0.35148122535E+03  0.79615703078E+02 0.  0.
          5    1    5    5  501    0  0.52202763292E+01  0.76008838169E+01 -0.17105844487E+02  0.19993114699E+02  0.47000000000E+01 0. -1.
        -13    1    6    6    0    0 -0.22273940719E+03 -0.10335416509E+03  0.12272952657E+03  0.27451313930E+03  0.00000000000E+00 0.  1.
         14    1    6    6    0    0 -0.68017375932E+02 -0.35359415705E+02 -0.68872753558E+01  0.76968086046E+02  0.00000000000E+00 0. -1.
         -5    1    3    3    0  503  0.11703032219E+02 -0.23364701284E+02  0.27417439383E+01  0.26692272085E+02  0.47000000000E+01 0.  1.
         13    1    4    4    0    0  0.20277845011E+03  0.74951171161E+02 -0.91892882887E+02  0.23490653420E+03  0.00000000000E+00 0. -1.
        -14    1    4    4    0    0  0.71055024473E+02  0.79526227099E+02 -0.74408744834E+02  0.13003806599E+03  0.00000000000E+00 0.  1.
</event>
<event>
12    1  0.8358445E-002  0.1965190E+03  0.7818608E-02  0.1154235E+00
         21   -1    0    0  503  502  0.00000000000E+00  0.00000000000E+00  0.76548525229E+03  0.76548525229E+03  0.00000000000E+00 0. -1.
         21   -1    0    0  501  503 -0.00000000000E+00 -0.00000000000E+00 -0.11614590016E+03  0.11614590016E+03  0.00000000000E+00 0. -1.
          6    2    1    2  501    0 -0.32575933620E+02 -0.89023924398E+02 -0.88135984252E+01  0.19671655700E+03  0.17214317795E+03 0.  0.
         24    2    3    3    0    0 -0.55725403802E+02 -0.36670064844E+02  0.49169834266E+02  0.11510164999E+03  0.79879302353E+02 0.  0.
         -6    2    1    2    0  502  0.32575933620E+02  0.89023924398E+02  0.65815295056E+03  0.68491459545E+03  0.16418357458E+03 0.  0.
        -24    2    5    5    0    0  0.17782750216E+01 -0.14585015662E+02  0.21826255906E+03  0.23191464537E+03  0.77006318612E+02 0.  0.
          5    1    3    3  501    0  0.23149470182E+02 -0.52353859554E+02 -0.57983432691E+02  0.81614907012E+02  0.47000000000E+01 0. -1.
        -11    1    4    4    0    0 -0.69860264823E+02 -0.45909043965E+02  0.28298904803E+02  0.88254886165E+02  0.00000000000E+00 0.  1.
         12    1    4    4    0    0  0.14134861021E+02  0.92389791210E+01  0.20870929463E+02  0.26846763826E+02  0.00000000000E+00 0. -1.
         -5    1    5    5    0  502  0.30797658598E+02  0.10360894006E+03  0.43989039150E+03  0.45299995008E+03  0.47000000000E+01 0.  1.
         13    1    6    6    0    0 -0.32926194921E+02 -0.67435019194E+01  0.16121657469E+03  0.16468270426E+03  0.00000000000E+00 0. -1.
        -14    1    6    6    0    0  0.34704469943E+02 -0.78415137428E+01  0.57045984371E+02  0.67231941104E+02  0.00000000000E+00 0.  1.
</event>
<event>
12    1  0.8358445E-002  0.1903535E+03  0.7818608E-02  0.1159190E+00
         21   -1    0    0  501  502  0.00000000000E+00  0.00000000000E+00  0.17045683285E+03  0.17045683285E+03  0.00000000000E+00 0. -1.
         21   -1    0    0  502  503 -0.00000000000E+00 -0.00000000000E+00 -0.22379972931E+03  0.22379972931E+03  0.00000000000E+00 0. -1.
         -6    2    1    2    0  503  0.80131575304E+02  0.81195221087E+01 -0.79611665668E+02  0.20209908608E+03  0.16738885054E+03 0.  0.
        -24    2    3    3    0    0  0.57338512627E+02  0.45184685514E+02 -0.10560363710E+03  0.15119699748E+03  0.79868911620E+02 0.  0.
          6    2    1    2  501    0 -0.80131575304E+02 -0.81195221087E+01  0.26268769203E+02  0.19215747608E+03  0.17247449487E+03 0.  0.
         24    2    5    5    0    0 -0.10310563136E+03  0.41754355234E+02  0.10554590106E+02  0.13484921911E+03  0.75489834573E+02 0.  0.
          5    1    5    5  501    0  0.22974056052E+02 -0.49873877342E+02  0.15714179097E+02  0.57308256973E+02  0.47000000000E+01 0. -1.
        -11    1    6    6    0    0 -0.41078348082E+02  0.52727379105E+02  0.22912048507E+02  0.70658114575E+02  0.00000000000E+00 0.  1.
         12    1    6    6    0    0 -0.62027283275E+02 -0.10973023872E+02 -0.12357458401E+02  0.64191104535E+02  0.00000000000E+00 0. -1.
         -5    1    3    3    0  503  0.22793062677E+02 -0.37065163405E+02  0.25991971436E+02  0.50902088597E+02  0.47000000000E+01 0.  1.
         13    1    4    4    0    0  0.60020757674E+02  0.64465633549E+02 -0.92515090217E+02  0.12773938773E+03  0.00000000000E+00 0. -1.
        -14    1    4    4    0    0 -0.26822450467E+01 -0.19280948035E+02 -0.13088546888E+02  0.23457609751E+02  0.00000000000E+00 0.  1.
</event>
<event>
12    1  0.8358445E-002  0.1962547E+03  0.7818608E-02  0.1153282E+00
         21   -1    0    0  501  502  0.00000000000E+00  0.00000000000E+00  0.40601217484E+02  0.40601217484E+02  0.00000000000E+00 0. -1.
         21   -1    0    0  502  503 -0.00000000000E+00 -0.00000000000E+00 -0.10999688681E+04  0.10999688681E+04  0.00000000000E+00 0.  1.
         -6    2    1    2    0  503  0.15356943430E+02  0.93289734442E+02 -0.31104276501E+03  0.36693836286E+03  0.17016859350E+03 0.  0.
        -24    2    3    3    0    0  0.22682490682E+02  0.99225408622E+02 -0.32476743487E+03  0.34963655852E+03  0.80072836875E+02 0.  0.
          6    2    1    2  501    0 -0.15356943430E+02 -0.93289734442E+02 -0.74832488566E+03  0.77363172277E+03  0.17197993406E+03 0.  0.
         24    2    5    5    0    0 -0.23858170992E+02 -0.98197682066E+02 -0.75135044401E+03  0.76233558081E+03  0.80100255705E+02 0.  0.
          5    1    5    5  501    0  0.85012275620E+01  0.49079476236E+01  0.30255583517E+01  0.11296141964E+02  0.47000000000E+01 0. -1.
        -13    1    6    6    0    0  0.54748014479E+01 -0.28564718773E+02 -0.47356400778E+03  0.47445630575E+03  0.00000000000E+00 0.  1.
         14    1    6    6    0    0 -0.29332972440E+02 -0.69632963293E+02 -0.27778643623E+03  0.28787927505E+03  0.00000000000E+00 0. -1.
         -5    1    3    3    0  503 -0.73255472524E+01 -0.59356741802E+01  0.13724669863E+02  0.17301804338E+02  0.47000000000E+01 0.  1.
         11    1    4    4    0    0 -0.38495777341E+01  0.94034923982E+02 -0.18821405912E+03  0.21043269287E+03  0.00000000000E+00 0. -1.
        -12    1    4    4    0    0  0.26532068416E+02  0.51904846401E+01 -0.13655337575E+03  0.13920386566E+03  0.00000000000E+00 0.  1.
</event>
<event>
12    1  0.8358445E-002  0.1928745E+03  0.7818608E-02  0.1156093E+00
         21   -1    0    0  501  502  0.00000000000E+00  0.00000000000E+00  0.25574477100E+03  0.25574477100E+03  0.00000000000E+00 0.  1.
         21   -1    0    0  502  503 -0.00000000000E+00 -0.00000000000E+00 -0.38605978037E+03  0.38605978037E+03  0.00000000000E+00 0.  1.
         -6    2    1    2    0  503 -0.11973432051E+02 -0.84330985454E+02 -0.31878945100E+03  0.37213216719E+03  0.17204812583E+03 0.  0.
        -24    2    3    3    0    0 -0.44211659205E+02 -0.26340155159E+02 -0.34497580567E+02  0.80162652880E+02  0.50867408704E+02 0.  0.
          6    2    1    2  501    0  0.11973432051E+02  0.84330985454E+02  0.18847444162E+03  0.26967238419E+03  0.17304768552E+03 0.  0.
         24    2    5    5    0    0  0.50737032040E+02  0.10498875780E+03  0.17387692297E+03  0.22314779076E+03  0.77232548173E+02 0.  0.
          5    1    5    5  501    0 -0.38763599989E+02 -0.20657772344E+02  0.14597518658E+02  0.46524593424E+02  0.47000000000E+01 0. -1.
        -11    1    6    6    0    0 -0.11106553375E+02  0.37025671630E+02  0.19022722864E+02  0.43082709672E+02  0.00000000000E+00 0.  1.
         12    1    6    6    0    0  0.61843585415E+02  0.67963086169E+02  0.15485420010E+03  0.18006508109E+03  0.00000000000E+00 0. -1.
         -5    1    3    3    0  503  0.32238227155E+02 -0.57990830296E+02 -0.28429187043E+03  0.29196951431E+03  0.47000000000E+01 0.  1.
         13    1    4    4    0    0 -0.17056728111E+01  0.13167104005E+02 -0.12086773188E+02  0.17954721767E+02  0.00000000000E+00 0. -1.
        -14    1    4    4    0    0 -0.42505986394E+02 -0.39507259164E+02 -0.22410807379E+02  0.62207931113E+02  0.00000000000E+00 0.  1.
</event>
<event>
12    1  0.8358445E-002  0.3543647E+03  0.7818608E-02  0.1060960E+00
         21   -1    0    0  503  502  0.00000000000E+00  0.00000000000E+00  0.19434308653E+03  0.19434308653E+03  0.00000000000E+00 0. -1.
         21   -1    0    0  501  503 -0.00000000000E+00 -0.00000000000E+00 -0.86852363507E+03  0.86852363507E+03  0.00000000000E+00 0.  1.
          6    2    1    2  501    0 -0.30781268378E+03 -0.19264727147E+02 -0.60690035756E+03  0.70217163705E+03  0.17203832670E+03 0.  0.
         24    2    3    3    0    0 -0.27892986850E+03 -0.66448726207E+02 -0.50740442683E+03  0.58823271912E+03  0.79631493276E+02 0.  0.
         -6    2    1    2    0  502  0.30781268378E+03  0.19264727147E+02 -0.67280190980E+02  0.36069508456E+03  0.17451229733E+03 0.  0.
        -24    2    5    5    0    0  0.26225669426E+03  0.67436075918E+00  0.37183590168E+01  0.27418592895E+03  0.79906626708E+02 0.  0.
          5    1    3    3  501    0 -0.28882815285E+02  0.47183999060E+02 -0.99495930731E+02  0.11393891793E+03  0.47000000000E+01 0. -1.
        -13    1    4    4    0    0 -0.23671720929E+03 -0.24360590664E+02 -0.40774421491E+03  0.47210573005E+03  0.00000000000E+00 0.  1.
         14    1    4    4    0    0 -0.42212659207E+02 -0.42088135543E+02 -0.99660211917E+02  0.11612698907E+03  0.00000000000E+00 0. -1.
         -5    1    5    5    0  502  0.45555989524E+02  0.18590366388E+02 -0.70998549997E+02  0.86509155617E+02  0.47000000000E+01 0.  1.
         13    1    6    6    0    0  0.14166080962E+03  0.29184843375E+02  0.29496411371E+02  0.14761293422E+03  0.00000000000E+00 0. -1.
        -14    1    6    6    0    0  0.12059588464E+03 -0.28510482615E+02 -0.25778052355E+02  0.12657299472E+03  0.00000000000E+00 0.  1.
</event>
<event>
12    1  0.8358445E-002  0.1797066E+03  0.7818608E-02  0.1169498E+00
         21   -1    0    0  503  502  0.00000000000E+00  0.00000000000E+00  0.52563689928E+02  0.52563689928E+02  0.00000000000E+00 0. -1.
         21   -1    0    0  501  503 -0.00000000000E+00 -0.00000000000E+00 -0.87565066119E+03  0.87565066119E+03  0.00000000000E+00 0. -1.
          6    2    1    2  501    0 -0.21138288461E+02 -0.17864370894E+02 -0.66974847434E+03  0.69197896859E+03  0.17177284743E+03 0.  0.
         24    2    3    3    0    0  0.27491540453E+01  0.58219624186E+01 -0.64518645026E+03  0.65006196343E+03  0.79205729614E+02 0.  0.
         -6    2    1    2    0  502  0.21138288461E+02  0.17864370894E+02 -0.15333849693E+03  0.23623538253E+03  0.17756266029E+03 0.  0.
        -24    2    5    5    0    0  0.34805041864E+02 -0.89187690190E+01 -0.17740018574E+03  0.19743884144E+03  0.78869099308E+02 0.  0.
          5    1    3    3  501    0 -0.23887442506E+02 -0.23686333313E+02 -0.24562024075E+02  0.41917005165E+02  0.47000000000E+01 0. -1.
        -13    1    4    4    0    0  0.22206548738E+01  0.30101033739E+02 -0.10298371082E+03  0.10731564767E+03  0.00000000000E+00 0.  1.
         14    1    4    4    0    0  0.52849917150E+00 -0.24279071320E+02 -0.54220273944E+03  0.54274631576E+03  0.00000000000E+00 0. -1.
         -5    1    5    5    0  502 -0.13666753403E+02  0.26783139913E+02  0.24061688813E+02  0.38796541092E+02  0.47000000000E+01 0.  1.
         11    1    6    6    0    0  0.32364943018E+02  0.24196015154E+02 -0.43042367177E+02  0.59038818230E+02  0.00000000000E+00 0. -1.
        -12    1    6    6    0    0  0.24400988464E+01 -0.33114784173E+02 -0.13435781857E+03  0.13840002321E+03  0.00000000000E+00 0.  1.
</event>
<event>
12    1  0.8358445E-002  0.1830733E+03  0.7818608E-02  0.1166367E+00
         21   -1    0    0  503  502  0.00000000000E+00  0.00000000000E+00  0.29498960144E+03  0.29498960144E+03  0.00000000000E+00 0.  1.
         21   -1    0    0  501  503 -0.00000000000E+00 -0.00000000000E+00 -0.11139893070E+03  0.11139893070E+03  0.00000000000E+00 0. -1.
          6    2    1    2  501    0 -0.39240011658E+02 -0.94043996009E+01  0.11790437964E+03  0.21775508260E+03  0.17857102793E+03 0.  0.
         24    2    3    3    0    0 -0.47284481953E+02 -0.69499984829E+02  0.47076031846E+02  0.12440125184E+03  0.78698466068E+02 0.  0.
         -6    2    1    2    0  502  0.39240011658E+02  0.94043996009E+01  0.65686291102E+02  0.18863344954E+03  0.17216175010E+03 0.  0.
        -24    2    5    5    0    0 -0.31735103391E+02  0.15900759942E+01 -0.98898908500E+01  0.84554729867E+02  0.77730607053E+02 0.  0.
          5    1    3    3  501    0  0.80444702959E+01  0.60095585228E+02  0.70828347790E+02  0.93353830756E+02  0.47000000000E+01 0. -1.
        -13    1    4    4    0    0 -0.22028914566E+02 -0.80584919695E+02  0.20325899345E+02  0.85978744719E+02  0.00000000000E+00 0.  1.
         14    1    4    4    0    0 -0.25255567388E+02  0.11084934866E+02  0.26750132500E+02  0.38422507126E+02  0.00000000000E+00 0. -1.
         -5    1    5    5    0  502  0.70975115049E+02  0.78143236067E+01  0.75576181952E+02  0.10407871967E+03  0.47000000000E+01 0.  1.
         11    1    6    6    0    0 -0.32096903532E+02 -0.32870784321E+02  0.64880682376E+01  0.46398218799E+02  0.00000000000E+00 0. -1.
        -12    1    6    6    0    0  0.36180014097E+00  0.34460860315E+02 -0.16377959088E+02  0.38156511068E+02  0.00000000000E+00 0.  1.
</event>
<event>
12    1  0.8358445E-002  0.1808641E+03  0.7818608E-02  0.1167042E+00
         21   -1    0    0  503  502  0.00000000000E+00  0.00000000000E+00  0.19734455618E+03  0.19734455618E+03  0.00000000000E+00 0.  1.
         21   -1    0    0  501  503 -0.00000000000E+00 -0.00000000000E+00 -0.22800934557E+03  0.22800934557E+03  0.00000000000E+00 0.  1.
          6    2    1    2  501    0  0.32462068836E+02 -0.44990211603E+02 -0.12669412610E+03  0.22057727320E+03  0.17182848079E+03 0.  0.
         24    2    3    3    0    0 -0.29065737821E+02 -0.54740342185E+02 -0.29888554694E+02  0.10536379875E+03  0.79792745337E+02 0.  0.
         -6    2    1    2    0  502 -0.32462068836E+02  0.44990211603E+02  0.96029336712E+02  0.20477662856E+03  0.17214508137E+03 0.  0.
        -24    2    5    5    0    0 -0.64354175346E+02  0.21220096845E+02  0.47628001045E+01  0.10510820067E+03  0.80207837449E+02 0.  0.
          5    1    3    3  501    0  0.61527806657E+02  0.97501305818E+01 -0.96805571408E+02  0.11521347445E+03  0.47000000000E+01 0. -1.
        -11    1    4    4    0    0  0.92423622408E+00 -0.20910354572E+02 -0.51251959449E+02  0.55361182143E+02  0.00000000000E+00 0.  1.
         12    1    4    4    0    0 -0.29989974045E+02 -0.33829987613E+02  0.21363404755E+02  0.50002616610E+02  0.00000000000E+00 0. -1.
         -5    1    5    5    0  502  0.31892106510E+02  0.23770114758E+02  0.91266536607E+02  0.99668427887E+02  0.47000000000E+01 0.  1.
         11    1    6    6    0    0  0.86763877961E+01 -0.13063307739E+02 -0.15368484592E+02  0.21957231905E+02  0.00000000000E+00 0. -1.
        -12    1    6    6    0    0 -0.73030563142E+02  0.34283404584E+02  0.20131284697E+02  0.83150968763E+02  0.00000000000E+00 0.  1.
</event>
<event>
12    1  0.8358445E-002  0.1894493E+03  0.7818608E-02  0.1159196E+00
         21   -1    0    0  503  502  0.00000000000E+00  0.00000000000E+00  0.34748650614E+03  0.34748650614E+03  0.00000000000E+00 0. -1.
         21   -1    0    0  501  503 -0.00000000000E+00 -0.00000000000E+00 -0.29115274634E+03  0.29115274634E+03  0.00000000000E+00 0. -1.
          6    2    1    2  501    0 -0.20512142015E+02 -0.76318263401E+02 -0.22874835582E+03  0.29634866384E+03  0.17103068430E+03 0.  0.
         24    2    3    3    0    0  0.39061070012E+02 -0.15670485757E+02 -0.62509631540E+02  0.10957467215E+03  0.79547617353E+02 0.  0.
         -6    2    1    2    0  502  0.20512142015E+02  0.76318263401E+02  0.28508211561E+03  0.34229058864E+03  0.17217958396E+03 0.  0.
        -24    2    5    5    0    0 -0.70179388411E+01  0.92824271807E+02  0.28546279376E+03  0.30984696706E+03  0.76488819256E+02 0.  0.
          5    1    3    3  501    0 -0.59573212028E+02 -0.60647777644E+02 -0.16623872428E+03  0.18677399169E+03  0.47000000000E+01 0. -1.
        -11    1    4    4    0    0  0.52449782268E+02 -0.11323466572E+02 -0.73997887677E+02  0.91405076094E+02  0.00000000000E+00 0.  1.
         12    1    4    4    0    0 -0.13388712255E+02 -0.43470191852E+01  0.11488256138E+02  0.18169596053E+02  0.00000000000E+00 0. -1.
         -5    1    5    5    0  502  0.27530080856E+02 -0.16506008407E+02 -0.38067814933E+00  0.32443621582E+02  0.47000000000E+01 0.  1.
         13    1    6    6    0    0  0.31795775846E+02  0.65442794293E+02  0.16334637272E+03  0.17881769534E+03  0.00000000000E+00 0. -1.
        -14    1    6    6    0    0 -0.38813714687E+02  0.27381477514E+02  0.12211642104E+03  0.13102927172E+03  0.00000000000E+00 0.  1.
</event>
<event>
12    1  0.8358445E-002  0.2209076E+03  0.7818608E-02  0.1133375E+00
         21   -1    0    0  503  502  0.00000000000E+00  0.00000000000E+00  0.52393897860E+03  0.52393897860E+03  0.00000000000E+00 0. -1.
         21   -1    0    0  501  503 -0.00000000000E+00 -0.00000000000E+00 -0.10117597171E+03  0.10117597171E+03  0.00000000000E+00 0. -1.
          6    2    1    2  501    0  0.70599440801E+02  0.11649433755E+03  0.12164140436E+03  0.25218406489E+03  0.17391078059E+03 0.  0.
         24    2    3    3    0    0  0.12865479698E+02  0.85636352672E+02  0.31925002479E+01  0.11676745445E+03  0.78264557081E+02 0.  0.
         -6    2    1    2    0  502 -0.70599440801E+02 -0.11649433755E+03  0.30112160253E+03  0.37293088542E+03  0.17276577806E+03 0.  0.
        -24    2    5    5    0    0  0.78770586427E+01 -0.11195674060E+03  0.21877570182E+03  0.25899191880E+03  0.81348918112E+02 0.  0.
          5    1    3    3  501    0  0.57733961103E+02  0.30857984882E+02  0.11844890411E+03  0.13541661043E+03  0.47000000000E+01 0. -1.
        -11    1    4    4    0    0 -0.11459603542E+02 -0.68864191308E+01 -0.14231789003E+02  0.19526625413E+02  0.00000000000E+00 0.  1.
         12    1    4    4    0    0  0.24325083240E+02  0.92522771803E+02  0.17424289251E+02  0.97240829041E+02  0.00000000000E+00 0. -1.
         -5    1    5    5    0  502 -0.78476499443E+02 -0.45375969507E+01  0.82345900716E+02  0.11393896663E+03  0.47000000000E+01 0.  1.
         13    1    6    6    0    0 -0.35869308994E+02 -0.66258089100E+02  0.11751874704E+03  0.13959726933E+03  0.00000000000E+00 0. -1.
        -14    1    6    6    0    0  0.43746367637E+02 -0.45698651504E+02  0.10125695478E+03  0.11939464947E+03  0.00000000000E+00 0.  1.
</event>
<event>
12    1  0.8358445E-002  0.1764102E+03  0.7818608E-02  0.1171913E+00
         21   -1    0    0  501  502  0.00000000000E+00  0.00000000000E+00  0.85081372407E+02  0.85081372407E+02  0.00000000000E+00 0.  1.
         21   -1    0    0  502  503 -0.00000000000E+00 -0.00000000000E+00 -0.87161370300E+03  0.87161370300E+03  0.00000000000E+00 0.  1.
         -6    2    1    2    0  503  0.27117318069E+02  0.27370743974E+02 -0.75832597940E+03  0.77804416280E+03  0.16973485698E+03 0.  0.
        -24    2    3    3    0    0  0.76621418255E+02 -0.10628065420E+02 -0.48364400309E+03  0.49632294677E+03  0.80256764578E+02 0.  0.
          6    2    1    2  501    0 -0.27117318069E+02 -0.27370743974E+02 -0.28206351196E+02  0.17865091261E+03  0.17215122353E+03 0.  0.
         24    2    5    5    0    0  0.11716043909E+02 -0.74428873919E+02 -0.36762502625E+02  0.11686260203E+03  0.81415374447E+02 0.  0.
          5    1    5    5  501    0 -0.38833361978E+02  0.47058129946E+02  0.85561514291E+01  0.61788310576E+02  0.47000000000E+01 0. -1.
        -11    1    6    6    0    0 -0.17133090110E+02 -0.41011159034E+02  0.16742956274E+02  0.47495100029E+02  0.00000000000E+00 0.  1.
         12    1    6    6    0    0  0.28849134020E+02 -0.33417714886E+02 -0.53505458900E+02  0.69367502002E+02  0.00000000000E+00 0. -1.
         -5    1    3    3    0  503 -0.49504100186E+02  0.37998809394E+02 -0.27468197631E+03  0.28172121603E+03  0.47000000000E+01 0.  1.
         13    1    4    4    0    0  0.85279769968E+01 -0.38071768345E+00 -0.77819372921E+00  0.85718681215E+01  0.00000000000E+00 0. -1.
        -14    1    4    4    0    0  0.68093441258E+02 -0.10247347737E+02 -0.48286580936E+03  0.48775107865E+03  0.00000000000E+00 0.  1.
</event>
<event>
12    1  0.8358445E-002  0.1917236E+03  0.7818608E-02  0.1158156E+00
         21   -1    0    0  501  502  0.00000000000E+00  0.00000000000E+00  0.15402930738E+04  0.15402930738E+04  0.00000000000E+00 0. -1.
         21   -1    0    0  502  503 -0.00000000000E+00 -0.00000000000E+00 -0.38516211317E+02  0.38516211317E+02  0.00000000000E+00 0.  1.
         -6    2    1    2    0  503  0.75582221079E+02 -0.33539220033E+02  0.25946419042E+03  0.32261368574E+03  0.17297506380E+03 0.  0.
        -24    2    3    3    0    0  0.43493465493E+02  0.40731977663E+02  0.19934659082E+03  0.22170722002E+03  0.76578408151E+02 0.  0.
          6    2    1    2  501    0 -0.75582221079E+02  0.33539220033E+02  0.12423126721E+04  0.12561955994E+04  0.16688036819E+03 0.  0.
         24    2    5    5    0    0 -0.39710751292E+02  0.80345715011E+02  0.65184699893E+03  0.66277381728E+03  0.79575405516E+02 0.  0.
          5    1    5    5  501    0 -0.35871469787E+02 -0.46806494978E+02  0.59046567313E+03  0.59342178209E+03  0.47000000000E+01 0. -1.
        -11    1    6    6    0    0  0.15266691445E+01  0.48253426398E+02  0.13652866474E+03  0.14481298344E+03  0.00000000000E+00 0.  1.
         12    1    6    6    0    0 -0.41237420437E+02  0.32092288613E+02  0.51531833419E+03  0.51796083383E+03  0.00000000000E+00 0. -1.
         -5    1    3    3    0  503  0.32088755587E+02 -0.74271197696E+02  0.60117599599E+02  0.10090646572E+03  0.47000000000E+01 0.  1.
         13    1    4    4    0    0 -0.81615753841E+01  0.12000036998E+02  0.12904762581E+03  0.12986108704E+03  0.00000000000E+00 0. -1.
        -14    1    4    4    0    0  0.51655040877E+02  0.28731940665E+02  0.70298965008E+02  0.91846132981E+02  0.00000000000E+00 0.  1.
</event>
<event>
12    1  0.8358445E-002  0.2210322E+03  0.7818608E-02  0.1133314E+00
         21   -1    0    0  501  502  0.00000000000E+00  0.00000000000E+00  0.13971064659E+04  0.13971064659E+04  0.00000000000E+00 0. -1.
         21   -1    0    0  502  503 -0.00000000000E+00 -0.00000000000E+00 -0.49904307231E+02  0.49904307231E+02  0.00000000000E+00 0.  1.
         -6    2    1    2    0  503  0.35211442459E+01 -0.13720042469E+03  0.27442620679E+03  0.35170101889E+03  0.17189388797E+03 0.  0.
        -24    2    3    3    0    0 -0.46446179325E+02 -0.28858852792E+02  0.10989259748E+03  0.14840805733E+03  0.83417549364E+02 0.  0.
          6    2    1    2  501    0 -0.35211442459E+01  0.13720042469E+03  0.10727759519E+04  0.10953097542E+04  0.17325951581E+03 0.  0.
         24    2    5    5    0    0  0.51453144972E+02  0.91335097116E+02  0.46368260768E+03  0.48200510507E+03  0.79610517883E+02 0.  0.
          5    1    5    5  501    0 -0.54974289217E+02  0.45865327570E+02  0.60909334417E+03  0.61330464915E+03  0.47000000000E+01 0. -1.
        -11    1    6    6    0    0  0.40579031129E+02  0.62195416373E+02  0.15621478421E+03  0.17296816583E+03  0.00000000000E+00 0.  1.
         12    1    6    6    0    0  0.10874113843E+02  0.29139680743E+02  0.30746782347E+03  0.30903693924E+03  0.00000000000E+00 0. -1.
         -5    1    3    3    0  503  0.49967323571E+02 -0.10834157189E+03  0.16453360931E+03  0.20329296156E+03  0.47000000000E+01 0.  1.
         13    1    4    4    0    0  0.38054413766E+01  0.24256185069E+02  0.15610375892E+02  0.29095149658E+02  0.00000000000E+00 0. -1.
        -14    1    4    4    0    0 -0.50251620702E+02 -0.53115037860E+02  0.94282221587E+02  0.11931290767E+03  0.00000000000E+00 0.  1.
</event>
<event>
12    1  0.8358445E-002  0.1831644E+03  0.7818608E-02  0.1165188E+00
         21   -1    0    0  503  502  0.00000000000E+00  0.00000000000E+00  0.72735379441E+03  0.72735379441E+03  0.00000000000E+00 0.  1.
         21   -1    0    0  501  503 -0.00000000000E+00 -0.00000000000E+00 -0.12852514888E+03  0.12852514888E+03  0.00000000000E+00 0.  1.
          6    2    1    2  501    0 -0.43531639687E+02 -0.37044567022E+02 -0.43634368616E+02  0.18829007504E+03  0.17401692628E+03 0.  0.
         24    2    3    3    0    0  0.34189310009E+02  0.12481560084E+02 -0.23254162550E+02  0.93787027006E+02  0.83249937523E+02 0.  0.
         -6    2    1    2    0  502  0.43531639687E+02  0.37044567022E+02  0.64246301414E+03  0.66758886826E+03  0.17218846907E+03 0.  0.
        -24    2    5    5    0    0 -0.15196686942E+02  0.39328528237E+02  0.16600296902E+03  0.18749460936E+03  0.76286108750E+02 0.  0.
          5    1    3    3  501    0 -0.77720949696E+02 -0.49526127106E+02 -0.20380206066E+02  0.94503048031E+02  0.47000000000E+01 0. -1.
        -13    1    4    4    0    0  0.17980736842E+02  0.27345071486E+02 -0.49627873410E+02  0.59447335105E+02  0.00000000000E+00 0.  1.
         14    1    4    4    0    0  0.16208573167E+02 -0.14863511402E+02  0.26373710860E+02  0.34339691900E+02  0.00000000000E+00 0. -1.
         -5    1    5    5    0  502  0.58728326630E+02 -0.22839612153E+01  0.47646004512E+03  0.48009425890E+03  0.47000000000E+01 0.  1.
         13    1    6    6    0    0  0.17669808888E+01  0.60177664479E+02  0.11841923572E+03  0.13284422800E+03  0.00000000000E+00 0. -1.
        -14    1    6    6    0    0 -0.16963667831E+02 -0.20849136242E+02  0.47583733299E+02  0.54650381362E+02  0.00000000000E+00 0.  1.
</event>
<event>
12    1  0.8358445E-002  0.1855228E+03  0.7818608E-02  0.1162593E+00
         21   -1    0    0  503  502  0.00000000000E+00  0.00000000000E+00  0.22438236164E+02  0.22438236164E+02  0.00000000000E+00 0.  1.
         21   -1    0    0  501  503 -0.00000000000E+00 -0.00000000000E+00 -0.15332837854E+04  0.15332837854E+04  0.00000000000E+00 0.  1.
          6    2    1    2  501    0  0.19954331953E+02 -0.64557720838E+02 -0.74239526426E+03  0.76522510070E+03  0.17277977795E+03 0.  0.
         24    2    3    3    0    0 -0.49580548067E+02 -0.65520568749E+02 -0.41807341748E+03  0.43349813931E+03  0.79900429965E+02 0.  0.
         -6    2    1    2    0  502 -0.19954331953E+02  0.64557720838E+02 -0.76845028495E+03  0.79049692083E+03  0.17263738507E+03 0.  0.
        -24    2    5    5    0    0  0.41070636930E+02 -0.69522761732E+01 -0.41248293440E+03  0.42229511318E+03  0.80348367030E+02 0.  0.
          5    1    3    3  501    0  0.69534880020E+02  0.96284791053E+00 -0.32432184678E+03  0.33172696139E+03  0.47000000000E+01 0. -1.
        -13    1    4    4    0    0  0.21537829595E+02 -0.21424205203E+02 -0.13107122401E+03  0.13454568160E+03  0.00000000000E+00 0.  1.
         14    1    4    4    0    0 -0.71118377662E+02 -0.44096363546E+02 -0.28700219346E+03  0.29895245771E+03  0.00000000000E+00 0. -1.
         -5    1    5    5    0  502 -0.61024968883E+02  0.71509997012E+02 -0.35596735055E+03  0.36820180765E+03  0.47000000000E+01 0.  1.
         13    1    6    6    0    0 -0.11878290256E+02 -0.30231260672E+02 -0.16144126876E+03  0.16467636794E+03  0.00000000000E+00 0. -1.
        -14    1    6    6    0    0  0.52948927186E+02  0.23278984499E+02 -0.25104166564E+03  0.25761874523E+03  0.00000000000E+00 0.  1.
</event>
<event>
12    1  0.8358445E-002  0.2179791E+03  0.7818608E-02  0.1136049E+00
         21   -1    0    0  503  502  0.00000000000E+00  0.00000000000E+00  0.12489388561E+04  0.12489388561E+04  0.00000000000E+00 0.  1.
         21   -1    0    0  501  503 -0.00000000000E+00 -0.00000000000E+00 -0.70281844668E+02  0.70281844668E+02  0.00000000000E+00 0.  1.
          6    2    1    2  501    0 -0.50618275344E+02  0.12174413084E+03  0.13602683735E+03  0.25404814301E+03  0.16927290182E+03 0.  0.
         24    2    3    3    0    0 -0.27232229263E+02  0.17255999332E+02  0.63305460751E+01  0.85798641525E+02  0.79258862283E+02 0.  0.
         -6    2    1    2    0  502  0.50618275344E+02 -0.12174413084E+03  0.10426301741E+04  0.10651725578E+04  0.17358299085E+03 0.  0.
        -24    2    5    5    0    0  0.65076914692E+02 -0.14977756658E+03  0.78758318826E+03  0.80813952341E+03  0.78319133016E+02 0.  0.
          5    1    3    3  501    0 -0.23386046081E+02  0.10448813151E+03  0.12969629128E+03  0.16824950148E+03  0.47000000000E+01 0. -1.
        -13    1    4    4    0    0  0.13209720841E+02  0.33271035878E+02 -0.13152363842E+02  0.38137163341E+02  0.00000000000E+00 0.  1.
         14    1    4    4    0    0 -0.40441950104E+02 -0.16015036547E+02  0.19482909917E+02  0.47661478184E+02  0.00000000000E+00 0. -1.
         -5    1    5    5    0  502 -0.14458639348E+02  0.28033435732E+02  0.25504698587E+03  0.25703303440E+03  0.47000000000E+01 0.  1.
         11    1    6    6    0    0 -0.12124982172E+02 -0.19680005403E+02  0.48421723162E+02  0.53656137387E+02  0.00000000000E+00 0. -1.
        -12    1    6    6    0    0  0.77201896864E+02 -0.13009756117E+03  0.73916146510E+03  0.75448338602E+03  0.00000000000E+00 0.  1.
</event>
<event>
12    1  0.8358445E-002  0.2359175E+03  0.7818608E-02  0.1122842E+00
         21   -1    0    0  501  502  0.00000000000E+00  0.00000000000E+00  0.10215402965E+03  0.10215402965E+03  0.00000000000E+00 0. -1.
         21   -1    0    0  502  503 -0.00000000000E+00 -0.00000000000E+00 -0.57746787801E+03  0.57746787801E+03  0.00000000000E+00 0. -1.
         -6    2    1    2    0  503 -0.15292072893E+03 -0.46794051375E+02 -0.15286034795E+03  0.28111091134E+03  0.17344343724E+03 0.  0.
        -24    2    3    3    0    0 -0.37670699838E+02 -0.76603745290E+01 -0.42401805968E+01  0.88954573917E+02  0.80107266368E+02 0.  0.
          6    2    1    2  501    0  0.15292072893E+03  0.46794051375E+02 -0.32245350041E+03  0.39851099632E+03  0.17105648681E+03 0.  0.
         24    2    5    5    0    0  0.27551197839E+02  0.46361864623E+02 -0.19767827750E+03  0.22156848485E+03  0.84305403694E+02 0.  0.
          5    1    5    5  501    0  0.12536953109E+03  0.43218675172E+00 -0.12477522291E+03  0.17694251147E+03  0.47000000000E+01 0. -1.
        -13    1    6    6    0    0  0.81045344011E+01 -0.22269155782E+02 -0.84721654732E+02  0.87973618533E+02  0.00000000000E+00 0.  1.
         14    1    6    6    0    0  0.19446663438E+02  0.68631020405E+02 -0.11295662276E+03  0.13359486632E+03  0.00000000000E+00 0. -1.
         -5    1    3    3    0  503 -0.11525002909E+03 -0.39133676846E+02 -0.14862016736E+03  0.19215633743E+03  0.47000000000E+01 0.  1.
         13    1    4    4    0    0 -0.40940414203E+02  0.60578995007E+01  0.30533105669E+02  0.51430401546E+02  0.00000000000E+00 0. -1.
        -14    1    4    4    0    0  0.32697143641E+01 -0.13718274030E+02 -0.34773286266E+02  0.37524172371E+02  0.00000000000E+00 0.  1.
</event>
<event>
12    1  0.8358445E-002  0.3381506E+03  0.7818608E-02  0.1067781E+00
         21   -1    0    0  503  502  0.00000000000E+00  0.00000000000E+00  0.62088390626E+02  0.62088390626E+02  0.00000000000E+00 0.  1.
         21   -1    0    0  501  503 -0.00000000000E+00 -0.00000000000E+00 -0.18343255753E+04  0.18343255753E+04  0.00000000000E+00 0. -1.
          6    2    1    2  501    0 -0.12717632296E+02 -0.28857783869E+03 -0.85339344876E+03  0.91794671635E+03  0.17580355092E+03 0.  0.
         24    2    3    3    0    0 -0.19377579697E+02 -0.90213687310E+02 -0.19550517322E+03  0.23075550239E+03  0.80695905434E+02 0.  0.
         -6    2    1    2    0  502  0.12717632296E+02  0.28857783869E+03 -0.91884373596E+03  0.97846724962E+03  0.17229463228E+03 0.  0.
        -24    2    5    5    0    0  0.45283392507E+02  0.14365987644E+03 -0.64562301157E+03  0.66744731656E+03  0.77253489146E+02 0.  0.
          5    1    3    3  501    0  0.66599474011E+01 -0.19836415138E+03 -0.65788827553E+03  0.68719121396E+03  0.47000000000E+01 0. -1.
        -11    1    4    4    0    0 -0.87377051080E+01 -0.10001422416E+03 -0.13322566726E+03  0.16681807739E+03  0.00000000000E+00 0.  1.
         12    1    4    4    0    0 -0.10639874589E+02  0.98005368496E+01 -0.62279505958E+02  0.63937425004E+02  0.00000000000E+00 0. -1.
         -5    1    5    5    0  502 -0.32565760210E+02  0.14491796226E+03 -0.27322072439E+03  0.31101993306E+03  0.47000000000E+01 0.  1.
         11    1    6    6    0    0  0.58674006812E+02  0.14119510169E+03 -0.54992610583E+03  0.57078666566E+03  0.00000000000E+00 0. -1.
        -12    1    6    6    0    0 -0.13390614306E+02  0.24647747499E+01 -0.95696905734E+02  0.96660650904E+02  0.00000000000E+00 0.  1.
</event>
<event>
12    1  0.8358445E-002  0.2411261E+03  0.7818608E-02  0.1119139E+00
         21   -1    0    0  503  502  0.00000000000E+00  0.00000000000E+00  0.61261841747E+03  0.61261841747E+03  0.00000000000E+00 0.  1.
         21   -1    0    0  501  503 -0.00000000000E+00 -0.00000000000E+00 -0.13115299433E+03  0.13115299433E+03  0.00000000000E+00 0. -1.
          6    2    1    2  501    0 -0.13203530676E+03  0.10596453060E+03  0.44835519341E+02  0.24525904111E+03  0.17169731936E+03 0.  0.
         24    2    3    3    0    0 -0.41496579836E+02  0.11743109880E+03  0.10809536797E+02  0.14774698674E+03  0.78741964043E+02 0.  0.
         -6    2    1    2    0  502  0.13203530676E+03 -0.10596453060E+03  0.43662990380E+03  0.49851237069E+03  0.17090086853E+03 0.  0.
        -24    2    5    5    0    0  0.41548321352E+02 -0.10476245343E+03  0.33691376971E+03  0.36377285564E+03  0.78219995050E+02 0.  0.
          5    1    3    3  501    0 -0.90538726929E+02 -0.11466568196E+02  0.34025982544E+02  0.97512054374E+02  0.47000000000E+01 0. -1.
        -13    1    4    4    0    0 -0.27921402588E+02  0.98596256503E+02  0.40387474401E+02  0.11014524323E+03  0.00000000000E+00 0.  1.
         14    1    4    4    0    0 -0.13575177248E+02  0.18834842297E+02 -0.29577937604E+02  0.37601743504E+02  0.00000000000E+00 0. -1.
         -5    1    5    5    0  502  0.90486985413E+02 -0.12020771720E+01  0.99716134085E+02  0.13473951505E+03  0.47000000000E+01 0.  1.
         13    1    6    6    0    0  0.40439686526E+02 -0.14590852118E+02  0.71190544922E+02  0.83164625281E+02  0.00000000000E+00 0. -1.
        -14    1    6    6    0    0  0.11086348259E+01 -0.90171601314E+02  0.26572322479E+03  0.28060823036E+03  0.00000000000E+00 0.  1.
</event>
<event>
12    1  0.8358445E-002  0.2019665E+03  0.7818608E-02  0.1148636E+00
         21   -1    0    0  503  502  0.00000000000E+00  0.00000000000E+00  0.14900935968E+04  0.14900935968E+04  0.00000000000E+00 0.  1.
         21   -1    0    0  501  503 -0.00000000000E+00 -0.00000000000E+00 -0.11863282672E+03  0.11863282672E+03  0.00000000000E+00 0.  1.
          6    2    1    2  501    0  0.38638211054E+02  0.95686392457E+02 -0.22119871438E+02  0.20058669940E+03  0.17057824659E+03 0.  0.
         24    2    3    3    0    0  0.51054008676E+02  0.54160111259E+02 -0.73985276592E+02  0.13283203674E+03  0.81429106452E+02 0.  0.
         -6    2    1    2    0  502 -0.38638211054E+02 -0.95686392457E+02  0.13935806415E+04  0.14081397241E+04  0.17361359740E+03 0.  0.
        -24    2    5    5    0    0 -0.63926902760E+02 -0.19662213223E-01  0.66650909842E+03  0.67435040833E+03  0.80171351808E+02 0.  0.
          5    1    3    3  501    0 -0.12415797621E+02  0.41526281198E+02  0.51865405154E+02  0.67754662662E+02  0.47000000000E+01 0. -1.
        -13    1    4    4    0    0  0.53088867278E+01  0.41614601111E+02  0.33748180872E+01  0.42087393612E+02  0.00000000000E+00 0.  1.
         14    1    4    4    0    0  0.45745121948E+02  0.12545510148E+02 -0.77360094679E+02  0.90744643124E+02  0.00000000000E+00 0. -1.
         -5    1    5    5    0  502  0.25288691705E+02 -0.95666730244E+02  0.72707154310E+03  0.73378931581E+03  0.47000000000E+01 0.  1.
         13    1    6    6    0    0 -0.47711227858E+02  0.36508766772E+02  0.46952191454E+03  0.47334984900E+03  0.00000000000E+00 0. -1.
        -14    1    6    6    0    0 -0.16215674902E+02 -0.36528428986E+02  0.19698718388E+03  0.20100055933E+03  0.00000000000E+00 0.  1.
</event>
<event>
12    1  0.8358445E-002  0.1979704E+03  0.7818608E-02  0.1151771E+00
         21   -1    0    0  503  502  0.00000000000E+00  0.00000000000E+00  0.18526224661E+03  0.18526224661E+03  0.00000000000E+00 0.  1.
         21   -1    0    0  501  503 -0.00000000000E+00 -0.00000000000E+00 -0.26018889175E+03  0.26018889175E+03  0.00000000000E+00 0.  1.
          6    2    1    2  501    0 -0.89772722440E+02 -0.42557205432E+02 -0.13537822071E+03  0.23983231680E+03  0.17123673703E+03 0.  0.
         24    2    3    3    0    0 -0.12093303983E+02 -0.74293168216E+02 -0.56572935362E+02  0.12462109172E+03  0.81634530935E+02 0.  0.
         -6    2    1    2    0  502  0.89772722440E+02  0.42557205432E+02  0.60451575571E+02  0.20561882155E+03  0.16957136951E+03 0.  0.
        -24    2    5    5    0    0  0.92650924305E+02  0.69798062544E+02  0.19931462675E+01  0.14088995397E+03  0.79937745698E+02 0.  0.
          5    1    3    3  501    0 -0.77679418457E+02  0.31735962783E+02 -0.78805285351E+02  0.11521122508E+03  0.47000000000E+01 0. -1.
        -13    1    4    4    0    0 -0.34966903410E+02 -0.17362854927E+02 -0.49227850012E+02  0.62829406189E+02  0.00000000000E+00 0.  1.
         14    1    4    4    0    0  0.22873599427E+02 -0.56930313288E+02 -0.73450853506E+01  0.61791685530E+02  0.00000000000E+00 0. -1.
         -5    1    5    5    0  502 -0.28782018654E+01 -0.27240857112E+02  0.58458429304E+02  0.64728867585E+02  0.47000000000E+01 0.  1.
         11    1    6    6    0    0  0.42108003745E+02 -0.11421621989E+02 -0.91575215969E+01  0.44580238111E+02  0.00000000000E+00 0. -1.
        -12    1    6    6    0    0  0.50542920561E+02  0.81219684533E+02  0.11150667864E+02  0.96309715856E+02  0.00000000000E+00 0.  1.
</event>
<event>
12    1  0.8358445E-002  0.2066703E+03  0.7818608E-02  0.1144316E+00
         21   -1    0    0  501  502  0.00000000000E+00  0.00000000000E+00  0.28226948961E+03  0.28226948961E+03  0.00000000000E+00 0.  1.
         21   -1    0    0  502  503 -0.00000000000E+00 -0.00000000000E+00 -0.38878344718E+03  0.38878344718E+03  0.00000000000E+00 0.  1.
         -6    2    1    2    0  503  0.30180044579E+01  0.11520022502E+03 -0.31567382780E+03  0.37730966301E+03  0.17155878306E+03 0.  0.
        -24    2    3    3    0    0  0.62627315034E+02  0.54515268090E+02 -0.13815753564E+03  0.18040852566E+03  0.81028614908E+02 0.  0.
          6    2    1    2  501    0 -0.30180044579E+01 -0.11520022502E+03  0.20915987024E+03  0.29374327378E+03  0.17104695080E+03 0.  0.
         24    2    5    5    0    0  0.27211651796E+02 -0.12912553835E+03  0.20921517996E+03  0.26013018812E+03  0.80516113884E+02 0.  0.
          5    1    5    5  501    0 -0.30229656254E+02  0.13925313330E+02 -0.55309728893E-01  0.33613085662E+02  0.47000000000E+01 0. -1.
        -13    1    6    6    0    0  0.26523100217E+02 -0.86595980780E+02  0.69720739818E+02  0.11429488306E+03  0.00000000000E+00 0.  1.
         14    1    6    6    0    0  0.68855157913E+00 -0.42529557573E+02  0.13949444015E+03  0.14583530506E+03  0.00000000000E+00 0. -1.
         -5    1    3    3    0  503 -0.59609310576E+02  0.60684956934E+02 -0.17751629216E+03  0.19690113735E+03  0.47000000000E+01 0.  1.
         13    1    4    4    0    0  0.49583577215E+02  0.64604673666E+02 -0.61645074341E+02  0.10213917064E+03  0.00000000000E+00 0. -1.
        -14    1    4    4    0    0  0.13043737820E+02 -0.10089405576E+02 -0.76512461298E+02  0.78269355019E+02  0.00000000000E+00 0.  1.
</event>
<event>
12    1  0.8358445E-002  0.1726093E+03  0.7818608E-02  0.1175586E+00
         21   -1    0    0  501  502  0.00000000000E+00  0.00000000000E+00  0.85123297495E+02  0.85123297495E+02  0.00000000000E+00 0. -1.
         21   -1    0    0  502  503 -0.00000000000E+00 -0.00000000000E+00 -0.38235681236E+03  0.38235681236E+03  0.00000000000E+00 0. -1.
         -6    2    1    2    0  503 -0.72675171034E+01 -0.12900512492E+02 -0.21943035043E+03  0.27814629300E+03  0.17028341548E+03 0.  0.
        -24    2    3    3    0    0 -0.64198016681E+02  0.87113942538E+01 -0.97529702178E+02  0.14180109015E+03  0.79988953137E+02 0.  0.
          6    2    1    2  501    0  0.72675171034E+01  0.12900512492E+02 -0.77803164428E+02  0.18933381685E+03  0.17197302632E+03 0.  0.
         24    2    5    5    0    0 -0.79019378324E+01 -0.43945375190E+02 -0.91139978929E+02  0.12882325637E+03  0.79342920289E+02 0.  0.
          5    1    5    5  501    0  0.15169454936E+02  0.56845887682E+02  0.13336814502E+02  0.60510560487E+02  0.47000000000E+01 0. -1.
        -13    1    6    6    0    0 -0.17688849314E+02  0.13830276121E+02 -0.25383310487E+01  0.22596792961E+02  0.00000000000E+00 0.  1.
         14    1    6    6    0    0  0.97869114816E+01 -0.57775651311E+02 -0.88601647880E+02  0.10622646341E+03  0.00000000000E+00 0. -1.
         -5    1    3    3    0  503  0.56930499578E+02 -0.21611906745E+02 -0.12190064826E+03  0.13634520285E+03  0.47000000000E+01 0.  1.
         11    1    4    4    0    0 -0.55304531608E+02  0.10269314889E+02 -0.14241251691E+02  0.58024678323E+02  0.00000000000E+00 0. -1.
        -12    1    4    4    0    0 -0.88934850732E+01 -0.15579206357E+01 -0.83288450487E+02  0.83776411823E+02  0.00000000000E+00 0.  1.
</event>
<event>
12    1  0.8358445E-002  0.2507247E+03  0.7818608E-02  0.1113081E+00
         21   -1    0    0  501  502  0.00000000000E+00  0.00000000000E+00  0.80794461209E+03  0.80794461209E+03  0.00000000000E+00 0. -1.
         21   -1    0    0  502  503 -0.00000000000E+00 -0.00000000000E+00 -0.77357417607E+02  0.77357417607E+02  0.00000000000E+00 0.  1.
         -6    2    1    2    0  503 -0.17315276329E+03 -0.50915672241E+02  0.37124125165E+03  0.44797649301E+03  0.17403616362E+03 0.  0.
        -24    2    3    3    0    0 -0.12003934531E+03  0.20844028465E+02  0.30092958111E+03  0.33423858891E+03  0.79453782680E+02 0.  0.
          6    2    1    2  501    0  0.17315276329E+03  0.50915672241E+02  0.35934594284E+03  0.43732553669E+03  0.17190064948E+03 0.  0.
         24    2    5    5    0    0  0.89319413460E+02  0.46586199003E+02  0.97192786635E+02  0.16201999336E+03  0.81583141123E+02 0.  0.
          5    1    5    5  501    0  0.83833349834E+02  0.43294732382E+01  0.26215315620E+03  0.27530554333E+03  0.47000000000E+01 0. -1.
        -11    1    6    6    0    0  0.58880420569E+02  0.35171470331E+02  0.10784842619E+03  0.12780930828E+03  0.00000000000E+00 0.  1.
         12    1    6    6    0    0  0.30438992890E+02  0.11414728672E+02 -0.10655639558E+02  0.34210685074E+02  0.00000000000E+00 0. -1.
         -5    1    3    3    0  503 -0.53113417984E+02 -0.71759700705E+02  0.70311670534E+02  0.11373790410E+03  0.47000000000E+01 0.  1.
         11    1    4    4    0    0  0.38075996925E+00  0.12962181451E+02  0.92417034579E+02  0.93322405705E+02  0.00000000000E+00 0. -1.
        -12    1    4    4    0    0 -0.12042010528E+03  0.78818470142E+01  0.20851254653E+03  0.24091618320E+03  0.00000000000E+00 0.  1.
</event>
<event>
12    1  0.8358445E-002  0.1718896E+03  0.7818608E-02  0.1175954E+00
         21   -1    0    0  501  502  0.00000000000E+00  0.00000000000E+00  0.54953563026E+03  0.54953563026E+03  0.00000000000E+00 0. -1.
         21   -1    0    0  502  503 -0.00000000000E+00 -0.00000000000E+00 -0.10457486711E+03  0.10457486711E+03  0.00000000000E+00 0. -1.
         -6    2    1    2    0  503  0.20293987247E+02 -0.78035199957E+00 -0.55807858936E+01  0.17198018385E+03  0.17068562797E+03 0.  0.
        -24    2    3    3    0    0  0.66274341341E+02 -0.37056916095E+02 -0.20117823154E+02  0.11145252473E+03  0.79066017418E+02 0.  0.
          6    2    1    2  501    0 -0.20293987247E+02  0.78035199957E+00  0.45054154904E+03  0.48213031352E+03  0.17043912972E+03 0.  0.
         24    2    5    5    0    0  0.42197368121E+00 -0.63509048878E+02  0.26387307716E+03  0.28356171959E+03  0.82125943626E+02 0.  0.
          5    1    5    5  501    0 -0.20715960929E+02  0.64289400877E+02  0.18666847188E+03  0.19856859393E+03  0.47000000000E+01 0. -1.
        -13    1    6    6    0    0 -0.12795540050E+02  0.82819056622E+01  0.74778042658E+01  0.16977436886E+02  0.00000000000E+00 0.  1.
         14    1    6    6    0    0  0.13217513731E+02 -0.71790954540E+02  0.25639527290E+03  0.26658428271E+03  0.00000000000E+00 0. -1.
         -5    1    3    3    0  503 -0.45980354094E+02  0.36276564095E+02  0.14537037261E+02  0.60527659111E+02  0.47000000000E+01 0.  1.
         13    1    4    4    0    0  0.18014083689E+02 -0.39205189846E+01 -0.44399824840E+02  0.48075171618E+02  0.00000000000E+00 0. -1.
        -14    1    4    4    0    0  0.48260257652E+02 -0.33136397110E+02  0.24282001686E+02  0.63377353116E+02  0.00000000000E+00 0.  1.
</event>
<event>
12    1  0.8358445E-002  0.1911089E+03  0.7818608E-02  0.1159244E+00
         21   -1    0    0  503  502  0.00000000000E+00  0.00000000000E+00  0.11903909788E+04  0.11903909788E+04  0.00000000000E+00 0.  1.
         21   -1    0    0  501  503 -0.00000000000E+00 -0.00000000000E+00 -0.97321550963E+02  0.97321550963E+02  0.00000000000E+00 0. -1.
          6    2    1    2  501    0 -0.73395535525E+02 -0.34304377119E+02  0.12300666703E+02  0.19150438678E+03  0.17308647790E+03 0.  0.
         24    2    3    3    0    0 -0.11043021389E+03 -0.93394651134E+01 -0.15189844944E+02  0.13884859447E+03  0.82256568422E+02 0.  0.
         -6    2    1    2    0  502  0.73395535525E+02  0.34304377119E+02  0.10807687612E+04  0.10962081430E+04  0.16446118924E+03 0.  0.
        -24    2    5    5    0    0  0.10213891333E+03 -0.98253067513E+01  0.81433785701E+03  0.82458132649E+03  0.79115891967E+02 0.  0.
          5    1    3    3  501    0  0.37034678369E+02 -0.24964912005E+02  0.27490511647E+02  0.52655792311E+02  0.47000000000E+01 0. -1.
        -11    1    4    4    0    0 -0.34745661032E+02  0.16522049520E+02  0.28344015514E+02  0.47787260816E+02  0.00000000000E+00 0.  1.
         12    1    4    4    0    0 -0.75684552862E+02 -0.25861514633E+02 -0.43533860458E+02  0.91061333657E+02  0.00000000000E+00 0. -1.
         -5    1    5    5    0  502 -0.28743377804E+02  0.44129683870E+02  0.26643090417E+03  0.27162681654E+03  0.47000000000E+01 0.  1.
         13    1    6    6    0    0  0.13324622232E+02 -0.10111930820E+02  0.23914779599E+02  0.29184129006E+02  0.00000000000E+00 0. -1.
        -14    1    6    6    0    0  0.88814291097E+02  0.28662406916E+00  0.79042307741E+03  0.79539719748E+03  0.00000000000E+00 0.  1.
</event>
<event>
12    1  0.8358445E-002  0.2148599E+03  0.7818608E-02  0.1138472E+00
         21   -1    0    0  503  502  0.00000000000E+00  0.00000000000E+00  0.44619256317E+02  0.44619256317E+02  0.00000000000E+00 0.  1.
         21   -1    0    0  501  503 -0.00000000000E+00 -0.00000000000E+00 -0.10817199588E+04  0.10817199588E+04  0.00000000000E+00 0.  1.
          6    2    1    2  501    0  0.46585096340E+01  0.12837765205E+03 -0.65999882499E+03  0.69409164007E+03  0.17222727011E+03 0.  0.
         24    2    3    3    0    0  0.32298631417E+02  0.10785356622E+03 -0.63897122593E+03  0.65347804193E+03  0.77934141363E+02 0.  0.
         -6    2    1    2    0  502 -0.46585096340E+01 -0.12837765205E+03 -0.37710187749E+03  0.43224757504E+03  0.16771886259E+03 0.  0.
        -24    2    5    5    0    0  0.15747426675E+02 -0.15615359705E+03 -0.29383778822E+03  0.34200953473E+03  0.77446424988E+02 0.  0.
          5    1    3    3  501    0 -0.27640121783E+02  0.20524085823E+02 -0.21027599064E+02  0.40613598135E+02  0.47000000000E+01 0. -1.
        -11    1    4    4    0    0 -0.22421881868E+02  0.22348013800E+02 -0.22631575929E+03  0.22851914014E+03  0.00000000000E+00 0.  1.
         12    1    4    4    0    0  0.54720513285E+02  0.85505552423E+02 -0.41265546663E+03  0.42495890179E+03  0.00000000000E+00 0. -1.
         -5    1    5    5    0  502 -0.20405936309E+02  0.27775945003E+02 -0.83264089269E+02  0.90238040311E+02  0.47000000000E+01 0.  1.
         11    1    6    6    0    0  0.66738584101E+01  0.79168810287E+01 -0.12866469341E+02  0.16515550993E+02  0.00000000000E+00 0. -1.
        -12    1    6    6    0    0  0.90735682645E+01 -0.16407047808E+03 -0.28097131888E+03  0.32549398374E+03  0.00000000000E+00 0.  1.
</event>
<event>
12    1  0.8358445E-002  0.3640054E+03  0.7818608E-02  0.1057064E+00
         21   -1    0    0  503  502  0.00000000000E+00  0.00000000000E+00  0.81873425801E+03  0.81873425801E+03  0.00000000000E+00 0.  1.
         21   -1    0    0  501  503 -0.00000000000E+00 -0.00000000000E+00 -0.24692720589E+03  0.24692720589E+03  0.00000000000E+00 0. -1.
          6    2    1    2  501    0  0.13633545148E+03 -0.29089202464E+03 -0.27198342619E+02  0.36502007059E+03  0.17115600125E+03 0.  0.
         24    2    3    3    0    0  0.89138023536E+01 -0.13648643055E+03 -0.43449155617E+02  0.16411326862E+03  0.79607375405E+02 0.  0.
         -6    2    1    2    0  502 -0.13633545148E+03  0.29089202464E+03  0.59900539474E+03  0.70064139331E+03  0.16995697619E+03 0.  0.
        -24    2    5    5    0    0 -0.10399346626E+02  0.11585420825E+03  0.30607397216E+03  0.33687079526E+03  0.79185303452E+02 0.  0.
          5    1    3    3  501    0  0.12742164912E+03 -0.15440559409E+03  0.16250812998E+02  0.20090680196E+03  0.47000000000E+01 0. -1.
        -13    1    4    4    0    0  0.13899574872E+02 -0.14533278288E+03 -0.33277577206E+02  0.14974048586E+03  0.00000000000E+00 0.  1.
         14    1    4    4    0    0 -0.49857725185E+01  0.88463523282E+01 -0.10171578411E+02  0.14372782768E+02  0.00000000000E+00 0. -1.
         -5    1    5    5    0  502 -0.12593610485E+03  0.17503781638E+03  0.29293142258E+03  0.36377059805E+03  0.47000000000E+01 0.  1.
         13    1    6    6    0    0 -0.20427825819E+02  0.57879810931E+01  0.10782441754E+03  0.10989495808E+03  0.00000000000E+00 0. -1.
        -14    1    6    6    0    0  0.10028479193E+02  0.11006622716E+03  0.19824955461E+03  0.22697583718E+03  0.00000000000E+00 0.  1.
</event>
<event>
12    1  0.8358445E-002  0.1751807E+03  0.7818608E-02  0.1172759E+00
         21   -1    0    0  503  502  0.00000000000E+00  0.00000000000E+00  0.80160099773E+02  0.80160099773E+02  0.00000000000E+00 0. -1.
         21   -1    0    0  501  503 -0.00000000000E+00 -0.00000000000E+00 -0.38532134611E+03  0.38532134611E+03  0.00000000000E+00 0. -1.
          6    2    1    2  501    0  0.21376360106E+02 -0.26749675689E+02 -0.12835310541E+03  0.21716997044E+03  0.17180157878E+03 0.  0.
         24    2    3    3    0    0 -0.55382237919E+02 -0.16053907076E+02 -0.77021591588E+02  0.12409314116E+03  0.78370031924E+02 0.  0.
         -6    2    1    2    0  502 -0.21376360106E+02  0.26749675689E+02 -0.17680814092E+03  0.24831147544E+03  0.17095314041E+03 0.  0.
        -24    2    5    5    0    0  0.12603389121E+02  0.19724667981E+02 -0.17666304510E+02  0.85363053577E+02  0.80167603536E+02 0.  0.
          5    1    3    3  501    0  0.76758598026E+02 -0.10695768613E+02 -0.51331513824E+02  0.93076829278E+02  0.47000000000E+01 0. -1.
        -13    1    4    4    0    0 -0.96935801693E+01  0.29973744135E+02 -0.33526859500E+02  0.46004794771E+02  0.00000000000E+00 0.  1.
         14    1    4    4    0    0 -0.45688657750E+02 -0.46027651211E+02 -0.43494732088E+02  0.78088346393E+02  0.00000000000E+00 0. -1.
         -5    1    5    5    0  502 -0.33979749227E+02  0.70250077074E+01 -0.15914183641E+03  0.16294842186E+03  0.47000000000E+01 0.  1.
         13    1    6    6    0    0 -0.79606693763E+01  0.42315693761E+02  0.99378601017E+01  0.44189945223E+02  0.00000000000E+00 0. -1.
        -14    1    6    6    0    0  0.20564058497E+02 -0.22591025779E+02 -0.27604164612E+02  0.41173108355E+02  0.00000000000E+00 0.  1.
</event>
<event>
12    1  0.8358445E-002  0.1780423E+03  0.7818608E-02  0.1170446E+00
         21   -1    0    0  503  502  0.00000000000E+00  0.00000000000E+00  0.21930913059E+03  0.21930913059E+03  0.00000000000E+00 0. -1.
         21   -1    0    0  501  503 -0.00000000000E+00 -0.00000000000E+00 -0.20682177112E+03  0.20682177112E+03  0.00000000000E+00 0. -1.
          6    2    1    2  501    0 -0.88074305573E+01 -0.34801844057E+02 -0.11293940729E+03  0.20834442054E+03  0.17135737121E+03 0.  0.
         24    2    3    3    0    0  0.10856598228E+02  0.29627916096E+02 -0.98048237996E+01  0.85069523125E+02  0.78390114540E+02 0.  0.
         -6    2    1    2    0  502  0.88074305573E+01  0.34801844057E+02  0.12542676676E+03  0.21778648117E+03  0.17438560255E+03 0.  0.
        -24    2    5    5    0    0  0.47489652472E+02  0.97705895571E+00  0.14084286604E+03  0.16393319440E+03  0.69145915109E+02 0.  0.
          5    1    3    3  501    0 -0.19664028785E+02 -0.64429760153E+02 -0.10313458349E+03  0.12327489741E+03  0.47000000000E+01 0. -1.
        -11    1    4    4    0    0  0.25154030908E+02  0.44845206131E+01  0.27714623708E+02  0.37695312219E+02  0.00000000000E+00 0.  1.
         12    1    4    4    0    0 -0.14297432680E+02  0.25143395483E+02 -0.37519447507E+02  0.47374210905E+02  0.00000000000E+00 0. -1.
         -5    1    5    5    0  502 -0.38682221914E+02  0.33824785101E+02 -0.15416099276E+02  0.53853286773E+02  0.47000000000E+01 0.  1.
         13    1    6    6    0    0 -0.16407234561E+02 -0.68879542079E+01  0.45830548108E+02  0.49163811884E+02  0.00000000000E+00 0. -1.
        -14    1    6    6    0    0  0.63896887033E+02  0.78650131636E+01  0.95012317929E+02  0.11476938251E+03  0.00000000000E+00 0.  1.
</event>
<event>
12    1  0.8358445E-002  0.1794708E+03  0.7818608E-02  0.1168373E+00
         21   -1    0    0  503  502  0.00000000000E+00  0.00000000000E+00  0.11371399005E+03  0.11371399005E+03  0.00000000000E+00 0. -1.
         21   -1    0    0  501  503 -0.00000000000E+00 -0.00000000000E+00 -0.47180754097E+03  0.47180754097E+03  0.00000000000E+00 0. -1.
          6    2    1    2  501    0 -0.36600346234E+02  0.27949686266E+02 -0.36423258978E+03  0.40594574612E+03  0.17322182029E+03 0.  0.
         24    2    3    3    0    0 -0.37256958775E+02  0.84594811921E+02 -0.23524543011E+03  0.26498873579E+03  0.79588030046E+02 0.  0.
         -6    2    1    2    0  502  0.36600346234E+02 -0.27949686266E+02  0.61390388629E+01  0.17957578490E+03  0.17346182409E+03 0.  0.
        -24    2    5    5    0    0  0.83908957093E+02 -0.51467909956E+02  0.50423716021E-01  0.12618690271E+03  0.78952346617E+02 0.  0.
          5    1    3    3  501    0  0.65661254103E+00 -0.56645125656E+02 -0.12898715967E+03  0.14095701033E+03  0.47000000000E+01 0. -1.
        -11    1    4    4    0    0 -0.47736413784E+02  0.15586866688E+02 -0.12240544033E+03  0.13230573470E+03  0.00000000000E+00 0.  1.
         12    1    4    4    0    0  0.10479455010E+02  0.69007945234E+02 -0.11283998978E+03  0.13268300109E+03  0.00000000000E+00 0. -1.
         -5    1    5    5    0  502 -0.47308610859E+02  0.23518223691E+02  0.60886151469E+01  0.53388882189E+02  0.47000000000E+01 0.  1.
         13    1    6    6    0    0 -0.13633192999E+02 -0.13454786666E+02  0.89095734580E+01  0.21125239284E+02  0.00000000000E+00 0. -1.
        -14    1    6    6    0    0  0.97542150092E+02 -0.38013123290E+02 -0.88591497419E+01  0.10506166342E+03  0.00000000000E+00 0.  1.
</event>
<event>
12    1  0.8358445E-002  0.1946654E+03  0.7818608E-02  0.1155422E+00
         21   -1    0    0  503  502  0.00000000000E+00  0.00000000000E+00  0.62391572809E+03  0.62391572809E+03  0.00000000000E+00 0. -1.
         21   -1    0    0  501  503 -0.00000000000E+00 -0.00000000000E+00 -0.85993788372E+02  0.85993788372E+02  0.00000000000E+00 0.  1.
          6    2    1    2  501    0  0.79308268049E+02  0.20399148232E+01  0.68423278644E+02  0.20165406340E+03  0.17230395699E+03 0.  0.
         24    2    3    3    0    0  0.24916625242E+00  0.45069344441E+02  0.68371271221E+02  0.11152101677E+03  0.75703358984E+02 0.  0.
         -6    2    1    2    0  502 -0.79308268049E+02 -0.20399148232E+01  0.46949866107E+03  0.50825545306E+03  0.17776571711E+03 0.  0.
        -24    2    5    5    0    0 -0.49287502672E+02 -0.48579191504E+02  0.42264804804E+03  0.43556280852E+03  0.79337203697E+02 0.  0.
          5    1    3    3  501    0  0.79059101797E+02 -0.43029429617E+02  0.52007423196E-01  0.90133046630E+02  0.47000000000E+01 0. -1.
        -11    1    4    4    0    0 -0.20185444137E+02 -0.81059860229E+01  0.44932790846E+02  0.49921086302E+02  0.00000000000E+00 0.  1.
         12    1    4    4    0    0  0.20434610389E+02  0.53175330463E+02  0.23438480376E+02  0.61599930470E+02  0.00000000000E+00 0. -1.
         -5    1    5    5    0  502 -0.30020765377E+02  0.46539276681E+02  0.46850613030E+02  0.72692644533E+02  0.47000000000E+01 0.  1.
         13    1    6    6    0    0 -0.44914880840E+02  0.58991524757E+01  0.26161111314E+03  0.26550427688E+03  0.00000000000E+00 0. -1.
        -14    1    6    6    0    0 -0.43726218324E+01 -0.54478343980E+02  0.16103693490E+03  0.17005853165E+03  0.00000000000E+00 0.  1.
</event>
<event>
12    1  0.8358445E-002  0.1841167E+03  0.7818608E-02  0.1164061E+00
         21   -1    0    0  503  502  0.00000000000E+00  0.00000000000E+00  0.61432800627E+02  0.61432800627E+02  0.00000000000E+00 0. -1.
         21   -1    0    0  501  503 -0.00000000000E+00 -0.00000000000E+00 -0.61660107255E+03  0.61660107255E+03  0.00000000000E+00 0.  1.
          6    2    1    2  501    0  0.61819227679E+02 -0.15069217378E+02 -0.16624794929E+03  0.24806720439E+03  0.17277227506E+03 0.  0.
         24    2    3    3    0    0  0.86824067464E+02  0.31513752404E+02 -0.14846182163E+03  0.19208817775E+03  0.79532510771E+02 0.  0.
         -6    2    1    2    0  502 -0.61819227679E+02  0.15069217378E+02 -0.38892032264E+03  0.42996666879E+03  0.17194074760E+03 0.  0.
        -24    2    5    5    0    0 -0.49956572807E+01  0.68027305671E+02 -0.19646046968E+03  0.22237003522E+03  0.78734017477E+02 0.  0.
          5    1    3    3  501    0 -0.25004839785E+02 -0.46582969782E+02 -0.17786127659E+02  0.55979026640E+02  0.47000000000E+01 0. -1.
        -13    1    4    4    0    0 -0.49105106310E+00  0.33349541039E+02 -0.29618985660E+02  0.44606247658E+02  0.00000000000E+00 0.  1.
         14    1    4    4    0    0  0.87315118527E+02 -0.18357886350E+01 -0.11884283597E+03  0.14748193010E+03  0.00000000000E+00 0. -1.
         -5    1    5    5    0  502 -0.56823570398E+02 -0.52958088292E+02 -0.19245985296E+03  0.20759663357E+03  0.47000000000E+01 0.  1.
         13    1    6    6    0    0  0.11754862378E+01  0.29790176239E+02 -0.92799390293E+01  0.31224247575E+02  0.00000000000E+00 0. -1.
        -14    1    6    6    0    0 -0.61711435185E+01  0.38237129432E+02 -0.18718053065E+03  0.19114578764E+03  0.00000000000E+00 0.  1.
</event>
<event>
12    1  0.8358445E-002  0.2129333E+03  0.7818608E-02  0.1140065E+00
         21   -1    0    0  501  502  0.00000000000E+00  0.00000000000E+00  0.39829167084E+03  0.39829167084E+03  0.00000000000E+00 0.  1.
         21   -1    0    0  502  503 -0.00000000000E+00 -0.00000000000E+00 -0.17462099619E+03  0.17462099619E+03  0.00000000000E+00 0.  1.
         -6    2    1    2    0  503  0.11702405193E+03  0.17295648938E+02 -0.59463830464E+02  0.22108042121E+03  0.17705038070E+03 0.  0.
        -24    2    3    3    0    0  0.23156269213E+02  0.32747167621E+02  0.26921150863E+02  0.92494399184E+02  0.78878867420E+02 0.  0.
          6    2    1    2  501    0 -0.11702405193E+03 -0.17295648938E+02  0.28313450512E+03  0.35183224582E+03  0.17212499240E+03 0.  0.
         24    2    5    5    0    0 -0.15012552929E+03 -0.24275326312E+02  0.21594915147E+03  0.27646391398E+03  0.81677987846E+02 0.  0.
          5    1    5    5  501    0  0.33101477364E+02  0.69796773740E+01  0.67185353642E+02  0.75368331838E+02  0.47000000000E+01 0. -1.
        -13    1    6    6    0    0 -0.11483475106E+03  0.11937452953E+02  0.11191970917E+03  0.16079659243E+03  0.00000000000E+00 0.  1.
         14    1    6    6    0    0 -0.35290778228E+02 -0.36212779265E+02  0.10402944230E+03  0.11566732155E+03  0.00000000000E+00 0. -1.
         -5    1    3    3    0  503  0.93867782713E+02 -0.15451518682E+02 -0.86384981327E+02  0.12858602202E+03  0.47000000000E+01 0.  1.
         13    1    4    4    0    0 -0.25165327176E+02 -0.69814514823E+00  0.22153217364E+02  0.33534253206E+02  0.00000000000E+00 0. -1.
        -14    1    4    4    0    0  0.48321596389E+02  0.33445312769E+02  0.47679334993E+01  0.58960145977E+02  0.00000000000E+00 0.  1.
</event>
<event>
12    1  0.8358445E-002  0.1997694E+03  0.7818608E-02  0.1150008E+00
         21   -1    0    0  501  502  0.00000000000E+00  0.00000000000E+00  0.49632020987E+03  0.49632020987E+03  0.00000000000E+00 0. -1.
         21   -1    0    0  502  503 -0.00000000000E+00 -0.00000000000E+00 -0.10118567708E+03  0.10118567708E+03  0.00000000000E+00 0. -1.
         -6    2    1    2    0  503  0.89652046146E+02 -0.48104185301E+02  0.61864520989E+02  0.20912923494E+03  0.17191950421E+03 0.  0.
        -24    2    3    3    0    0  0.12329381407E+03 -0.35160371966E+02  0.77081564829E+02  0.16972163066E+03  0.80163881717E+02 0.  0.
          6    2    1    2  501    0 -0.89652046146E+02  0.48104185301E+02  0.33327001180E+03  0.38837665201E+03  0.17151099394E+03 0.  0.
         24    2    5    5    0    0 -0.81522310715E+02 -0.12925509072E+02  0.29222448337E+03  0.31423124354E+03  0.80828026111E+02 0.  0.
          5    1    5    5  501    0 -0.81297354306E+01  0.61029694373E+02  0.41045528423E+02  0.74145408468E+02  0.47000000000E+01 0. -1.
        -13    1    6    6    0    0 -0.38855992483E+02 -0.31321141476E+02  0.63141347874E+02  0.80483736659E+02  0.00000000000E+00 0.  1.
         14    1    6    6    0    0 -0.42666318231E+02  0.18395632404E+02  0.22908313550E+03  0.23374750688E+03  0.00000000000E+00 0. -1.
         -5    1    3    3    0  503 -0.33641767921E+02 -0.12943813335E+02 -0.15217043840E+02  0.39407604288E+02  0.47000000000E+01 0.  1.
         11    1    4    4    0    0  0.63009162531E+02  0.22785505099E+02  0.41750692634E+02  0.78945893755E+02  0.00000000000E+00 0. -1.
        -12    1    4    4    0    0  0.60284651536E+02 -0.57945877065E+02  0.35330872195E+02  0.90775736900E+02  0.00000000000E+00 0.  1.
</event>
<event>
12    1  0.8358445E-002  0.1906196E+03  0.7818608E-02  0.1158100E+00
         21   -1    0    0  503  502  0.00000000000E+00  0.00000000000E+00  0.77387999686E+03  0.77387999686E+03  0.00000000000E+00 0.  1.
         21   -1    0    0  501  503 -0.00000000000E+00 -0.00000000000E+00 -0.57546756913E+02  0.57546756913E+02  0.00000000000E+00 0. -1.
          6    2    1    2  501    0 -0.95952918586E+01 -0.80344502790E+02  0.17733604752E+03  0.25971547059E+03  0.17162966865E+03 0.  0.
         24    2    3    3    0    0  0.14930466287E+02  0.16136178883E+02  0.10982038237E+03  0.13933902028E+03  0.82894819483E+02 0.  0.
         -6    2    1    2    0  502  0.95952918586E+01  0.80344502790E+02  0.53899719242E+03  0.57171128318E+03  0.17259347936E+03 0.  0.
        -24    2    5    5    0    0  0.20588398049E+02  0.50822770271E+02  0.13490244207E+03  0.16636323724E+03  0.80443904176E+02 0.  0.
          5    1    3    3  501    0 -0.24525758146E+02 -0.96480681672E+02  0.67515665152E+02  0.12037645031E+03  0.47000000000E+01 0. -1.
        -13    1    4    4    0    0 -0.76334095285E+01  0.46388567050E+02  0.71362983029E+02  0.85456675812E+02  0.00000000000E+00 0.  1.
         14    1    4    4    0    0  0.22563875815E+02 -0.30252388167E+02  0.38457399342E+02  0.53882344472E+02  0.00000000000E+00 0. -1.
         -5    1    5    5    0  502 -0.10993106190E+02  0.29521732519E+02  0.40409475036E+03  0.40534804593E+03  0.47000000000E+01 0.  1.
         11    1    6    6    0    0  0.21634189439E+02 -0.97266632739E+01  0.68122549698E+01  0.24678998134E+02  0.00000000000E+00 0. -1.
        -12    1    6    6    0    0 -0.10457913896E+01  0.60549433545E+02  0.12809018710E+03  0.14168423911E+03  0.00000000000E+00 0.  1.
</event>
<event>
12    1  0.8358445E-002  0.2267998E+03  0.7818608E-02  0.1128963E+00
         21   -1    0    0  501  502  0.00000000000E+00  0.00000000000E+00  0.10054545176E+03  0.10054545176E+03  0.00000000000E+00 0. -1.
         21   -1    0    0  502  503 -0.00000000000E+00 -0.00000000000E+00 -0.76603802232E+03  0.76603802232E+03  0.00000000000E+00 0.  1.
         -6    2    1    2    0  503  0.83342782078E+02  0.11854376834E+03 -0.58263860031E+03  0.62512348525E+03  0.17410625748E+03 0.  0.
        -24    2    3    3    0    0 -0.14008847545E+02  0.54034792566E+02 -0.16981779522E+03  0.19607587149E+03  0.80570820974E+02 0.  0.
          6    2    1    2  501    0 -0.83342782078E+02 -0.11854376834E+03 -0.82853970244E+02  0.24145998884E+03  0.17446919925E+03 0.  0.
         24    2    5    5    0    0 -0.41995045490E+02 -0.79783558987E+02  0.22275060117E+02  0.12193512877E+03  0.79012639457E+02 0.  0.
          5    1    5    5  501    0 -0.41347736588E+02 -0.38760209354E+02 -0.10512903036E+03  0.11952486007E+03  0.47000000000E+01 0. -1.
        -11    1    6    6    0    0 -0.59251328578E+02 -0.32862044578E+02  0.24086542221E+02  0.71908243117E+02  0.00000000000E+00 0.  1.
         12    1    6    6    0    0  0.17256283087E+02 -0.46921514409E+02 -0.18114821040E+01  0.50026885650E+02  0.00000000000E+00 0. -1.
         -5    1    3    3    0  503  0.97351629623E+02  0.64508975774E+02 -0.41282080510E+03  0.42904761375E+03  0.47000000000E+01 0.  1.
         11    1    4    4    0    0 -0.72193951939E+00  0.57669521814E+02 -0.17263633595E+03  0.18201538240E+03  0.00000000000E+00 0. -1.
        -12    1    4    4    0    0 -0.13286908026E+02 -0.36347292479E+01  0.28185407288E+01  0.14060489089E+02  0.00000000000E+00 0.  1.
</event>
<event>
12    1  0.8358445E-002  0.1902921E+03  0.7818608E-02  0.1158349E+00
         21   -1    0    0  501  502  0.00000000000E+00  0.00000000000E+00  0.24184299117E+03  0.24184299117E+03  0.00000000000E+00 0.  1.
         21   -1    0    0  502  503 -0.00000000000E+00 -0.00000000000E+00 -0.15008554888E+03  0.15008554888E+03  0.00000000000E+00 0.  1.
         -6    2    1    2    0  503 -0.74588550903E+02 -0.28914784218E+02  0.60828830696E+02  0.19913936277E+03  0.17192097745E+03 0.  0.
        -24    2    3    3    0    0 -0.44348591067E+02  0.47381103826E+02  0.47136142335E+02  0.11580211169E+03  0.83525724347E+02 0.  0.
          6    2    1    2  501    0  0.74588550903E+02  0.28914784218E+02  0.30928611595E+02  0.19278917729E+03  0.17266027682E+03 0.  0.
         24    2    5    5    0    0  0.31200175091E+02  0.78650417313E+02  0.39874878612E+02  0.12601859957E+03  0.84447276003E+02 0.  0.
          5    1    5    5  501    0  0.43388375813E+02 -0.49735633095E+02 -0.89462670164E+01  0.66770577716E+02  0.47000000000E+01 0. -1.
        -11    1    6    6    0    0  0.38312017367E+02  0.23847458187E+02 -0.15568406680E+02  0.47737691851E+02  0.00000000000E+00 0.  1.
         12    1    6    6    0    0 -0.71118422768E+01  0.54802959126E+02  0.55443285291E+02  0.78280907720E+02  0.00000000000E+00 0. -1.
         -5    1    3    3    0  503 -0.30239959837E+02 -0.76295888044E+02  0.13692688362E+02  0.83337251082E+02  0.47000000000E+01 0.  1.
         13    1    4    4    0    0 -0.59342496722E+00  0.26622314545E+02 -0.19799819853E+02  0.33183318868E+02  0.00000000000E+00 0. -1.
        -14    1    4    4    0    0 -0.43755166099E+02  0.20758789281E+02  0.66935962188E+02  0.82618792819E+02  0.00000000000E+00 0.  1.
</event>
<event>
12    1  0.8358445E-002  0.1754433E+03  0.7818608E-02  0.1172436E+00
         21   -1    0    0  503  502  0.00000000000E+00  0.00000000000E+00  0.79116423081E+03  0.79116423081E+03  0.00000000000E+00 0.  1.
         21   -1    0    0  501  503 -0.00000000000E+00 -0.00000000000E+00 -0.74497486091E+02  0.74497486091E+02  0.00000000000E+00 0.  1.
          6    2    1    2  501    0 -0.26164566308E+02  0.15590704879E+02  0.58921597571E+02  0.18507325057E+03  0.17277933560E+03 0.  0.
         24    2    3    3    0    0 -0.73717895111E+02  0.19051630093E+02  0.21419194778E+01  0.11078113169E+03  0.80439907080E+02 0.  0.
         -6    2    1    2    0  502  0.26164566308E+02 -0.15590704879E+02  0.65774514714E+03  0.68058846632E+03  0.17217528072E+03 0.  0.
        -24    2    5    5    0    0  0.54037886765E+02  0.39522126727E+02  0.51075896103E+03  0.52108493937E+03  0.78566570896E+02 0.  0.
          5    1    3    3  501    0  0.47553328804E+02 -0.34609252142E+01  0.56779678093E+02  0.74292118882E+02  0.47000000000E+01 0. -1.
        -13    1    4    4    0    0 -0.22536011087E+02 -0.11198755197E+02 -0.33167156128E+02  0.41633450005E+02  0.00000000000E+00 0.  1.
         14    1    4    4    0    0 -0.51181884025E+02  0.30250385291E+02  0.35309075606E+02  0.69147681687E+02  0.00000000000E+00 0. -1.
         -5    1    5    5    0  502 -0.27873320458E+02 -0.55112831607E+02  0.14698618612E+03  0.15950352695E+03  0.47000000000E+01 0.  1.
         11    1    6    6    0    0 -0.14715024765E+02 -0.84801983353E+01  0.13619674932E+03  0.13725159468E+03  0.00000000000E+00 0. -1.
        -12    1    6    6    0    0  0.68752911530E+02  0.48002325063E+02  0.37456221170E+03  0.38383334468E+03  0.00000000000E+00 0.  1.
</event>
<event>
12    1  0.8358445E-002  0.1988153E+03  0.7818608E-02  0.1150828E+00
         21   -1    0    0  501  502  0.00000000000E+00  0.00000000000E+00  0.24083985363E+03  0.24083985363E+03  0.00000000000E+00 0.  1.
         21   -1    0    0  502  503 -0.00000000000E+00 -0.00000000000E+00 -0.18106743761E+03  0.18106743761E+03  0.00000000000E+00 0.  1.
         -6    2    1    2    0  503  0.42269532459E+02  0.88373335032E+02 -0.35303815256E+02  0.20152806986E+03  0.17254171626E+03 0.  0.
        -24    2    3    3    0    0 -0.35591024182E+02  0.22013127426E+02 -0.26223631735E+02  0.98715214794E+02  0.85473481204E+02 0.  0.
          6    2    1    2  501    0 -0.42269532459E+02 -0.88373335032E+02  0.95076231272E+02  0.22037922138E+03  0.17300564079E+03 0.  0.
         24    2    5    5    0    0 -0.52507174914E+02  0.70634733557E+01  0.18342491893E+02  0.97403002228E+02  0.79649242061E+02 0.  0.
          5    1    5    5  501    0  0.10237642455E+02 -0.95436808388E+02  0.76733739379E+02  0.12297621915E+03  0.47000000000E+01 0. -1.
        -11    1    6    6    0    0 -0.38815564136E+02 -0.19224864184E+02  0.41348062446E+02  0.59882432233E+02  0.00000000000E+00 0.  1.
         12    1    6    6    0    0 -0.13691610778E+02  0.26288337540E+02 -0.23005570553E+02  0.37520569995E+02  0.00000000000E+00 0. -1.
         -5    1    3    3    0  503  0.77860556641E+02  0.66360207606E+02 -0.90801835216E+01  0.10281285507E+03  0.47000000000E+01 0.  1.
         11    1    4    4    0    0 -0.50185844172E+02  0.37425912974E+02  0.29064032032E+01  0.62671884421E+02  0.00000000000E+00 0. -1.
        -12    1    4    4    0    0  0.14594819990E+02 -0.15412785548E+02 -0.29130034938E+02  0.36043330373E+02  0.00000000000E+00 0.  1.
</event>
<event>
12    1  0.8358445E-002  0.2020400E+03  0.7818608E-02  0.1148721E+00
         21   -1    0    0  501  502  0.00000000000E+00  0.00000000000E+00  0.12982711142E+03  0.12982711142E+03  0.00000000000E+00 0.  1.
         21   -1    0    0  502  503 -0.00000000000E+00 -0.00000000000E+00 -0.67244260686E+03  0.67244260686E+03  0.00000000000E+00 0.  1.
         -6    2    1    2    0  503  0.90260318783E+02 -0.49717064838E+02 -0.56505435993E+03  0.59898752539E+03  0.16994385607E+03 0.  0.
        -24    2    3    3    0    0  0.39978345713E+02 -0.94204807062E+02 -0.40556093154E+03  0.42587577038E+03  0.80110478747E+02 0.  0.
          6    2    1    2  501    0 -0.90260318783E+02  0.49717064838E+02  0.22438864488E+02  0.20328219288E+03  0.17378560246E+03 0.  0.
         24    2    5    5    0    0 -0.28228982679E+02  0.32360881982E+02  0.77211873235E+02  0.11859868664E+03  0.79119358939E+02 0.  0.
          5    1    5    5  501    0 -0.62031336104E+02  0.17356182856E+02 -0.54773008747E+02  0.84683506242E+02  0.47000000000E+01 0. -1.
        -11    1    6    6    0    0 -0.44289561257E+02  0.43740296967E+02  0.33568855649E+02  0.70722322393E+02  0.00000000000E+00 0.  1.
         12    1    6    6    0    0  0.16060578578E+02 -0.11379414985E+02  0.43643017586E+02  0.47876364249E+02  0.00000000000E+00 0. -1.
         -5    1    3    3    0  503  0.50281973069E+02  0.44487742224E+02 -0.15949342839E+03  0.17311175501E+03  0.47000000000E+01 0.  1.
         11    1    4    4    0    0 -0.12652591282E+02 -0.24516021252E+02 -0.20867712958E+03  0.21049291621E+03  0.00000000000E+00 0. -1.
        -12    1    4    4    0    0  0.52630936995E+02 -0.69688785810E+02 -0.19688380196E+03  0.21538285417E+03  0.00000000000E+00 0.  1.
</event>
<event>
12    1  0.8358445E-002  0.1767230E+03  0.7818608E-02  0.1171615E+00
         21   -1    0    0  501  502  0.00000000000E+00  0.00000000000E+00  0.37901306559E+03  0.37901306559E+03  0.00000000000E+00 0. -1.
         21   -1    0    0  502  503 -0.00000000000E+00 -0.00000000000E+00 -0.11175409417E+03  0.11175409417E+03  0.00000000000E+00 0. -1.
         -6    2    1    2    0  503  0.28858195233E+02  0.23936779466E+02  0.61610843614E+01  0.17683038065E+03  0.17269991233E+03 0.  0.
        -24    2    3    3    0    0 -0.44161546402E+02  0.40651863801E+02  0.11401962324E+02  0.10159186980E+03  0.81167031819E+02 0.  0.
          6    2    1    2  501    0 -0.28858195233E+02 -0.23936779466E+02  0.26109788706E+03  0.31393677911E+03  0.17023051962E+03 0.  0.
         24    2    5    5    0    0 -0.48267014083E+02 -0.63095053835E+02  0.24024915719E+03  0.26528667903E+03  0.79666015792E+02 0.  0.
          5    1    5    5  501    0  0.19408818850E+02  0.39158274369E+02  0.20848729862E+02  0.48650100078E+02  0.47000000000E+01 0. -1.
        -11    1    6    6    0    0 -0.65766608083E+02 -0.25068482880E+02  0.14174527547E+03  0.15825738115E+03  0.00000000000E+00 0.  1.
         12    1    6    6    0    0  0.17499594000E+02 -0.38026570956E+02  0.98503881727E+02  0.10702929788E+03  0.00000000000E+00 0. -1.
         -5    1    3    3    0  503  0.73019741636E+02 -0.16715084335E+02 -0.52408779625E+01  0.75238510848E+02  0.47000000000E+01 0.  1.
         11    1    4    4    0    0 -0.11385134084E+02  0.59887663684E+02 -0.27907801568E+01  0.61024109936E+02  0.00000000000E+00 0. -1.
        -12    1    4    4    0    0 -0.32776412318E+02 -0.19235799883E+02  0.14192742481E+02  0.40567759868E+02  0.00000000000E+00 0.  1.
</event>
<event>
12    1  0.8358445E-002  0.1896930E+03  0.7818608E-02  0.1159817E+00
         21   -1    0    0  501  502  0.00000000000E+00  0.00000000000E+00  0.94650837805E+02  0.94650837805E+02  0.00000000000E+00 0. -1.
         21   -1    0    0  502  503 -0.00000000000E+00 -0.00000000000E+00 -0.38967064024E+03  0.38967064024E+03  0.00000000000E+00 0. -1.
         -6    2    1    2    0  503 -0.68308756298E+02 -0.15946731892E+02 -0.20257622336E+03  0.27752581196E+03  0.17624717186E+03 0.  0.
        -24    2    3    3    0    0 -0.10934440276E+03  0.16942556157E+02 -0.13909459664E+03  0.19495683183E+03  0.80109992134E+02 0.  0.
          6    2    1    2  501    0  0.68308756298E+02  0.15946731892E+02 -0.92443579076E+02  0.20679566608E+03  0.17116730924E+03 0.  0.
         24    2    5    5    0    0 -0.12504762470E+02  0.31345043594E+02 -0.89115020665E+02  0.12432687126E+03  0.79854888181E+02 0.  0.
          5    1    5    5  501    0  0.80813518768E+02 -0.15398311702E+02 -0.33285584111E+01  0.82468794826E+02  0.47000000000E+01 0. -1.
        -13    1    6    6    0    0  0.23017288565E+01  0.53502292272E+02 -0.34911519911E+02  0.63926578640E+02  0.00000000000E+00 0.  1.
         14    1    6    6    0    0 -0.14806491327E+02 -0.22157248678E+02 -0.54203500754E+02  0.60400292618E+02  0.00000000000E+00 0. -1.
         -5    1    3    3    0  503  0.41035646461E+02 -0.32889288048E+02 -0.63481626723E+02  0.82568980133E+02  0.47000000000E+01 0.  1.
         13    1    4    4    0    0 -0.94280364164E+02  0.12449153151E+02 -0.55944540086E+02  0.11033385721E+03  0.00000000000E+00 0. -1.
        -14    1    4    4    0    0 -0.15064038595E+02  0.44934030063E+01 -0.83150056552E+02  0.84622974623E+02  0.00000000000E+00 0.  1.
</event>
<event>
12    1  0.8358445E-002  0.2033730E+03  0.7818608E-02  0.1147047E+00
         21   -1    0    0  503  502  0.00000000000E+00  0.00000000000E+00  0.14864906565E+03  0.14864906565E+03  0.00000000000E+00 0.  1.
         21   -1    0    0  501  503 -0.00000000000E+00 -0.00000000000E+00 -0.27802590376E+03  0.27802590376E+03  0.00000000000E+00 0.  1.
          6    2    1    2  501    0 -0.99268937394E+01  0.10528393093E+03 -0.54702345618E+02  0.21002579328E+03  0.17301802766E+03 0.  0.
         24    2    3    3    0    0  0.31586527895E+02  0.14728820787E+02  0.16617459274E+02  0.87419934048E+02  0.78431231088E+02 0.  0.
         -6    2    1    2    0  502  0.99268937394E+01 -0.10528393093E+03 -0.74674492495E+02  0.21664917612E+03  0.17371625242E+03 0.  0.
        -24    2    5    5    0    0  0.12737948145E+02 -0.11686764778E+03 -0.10953433255E+03  0.17950913074E+03  0.80034090173E+02 0.  0.
          5    1    3    3  501    0 -0.41513421634E+02  0.90555110145E+02 -0.71319804892E+02  0.12260585924E+03  0.47000000000E+01 0. -1.
        -13    1    4    4    0    0  0.11581702886E+02  0.10384907187E+02 -0.31498490444E+02  0.35130286638E+02  0.00000000000E+00 0.  1.
         14    1    4    4    0    0  0.20004825008E+02  0.43439135996E+01  0.48115949718E+02  0.52289647410E+02  0.00000000000E+00 0. -1.
         -5    1    5    5    0  502 -0.28110544058E+01  0.11583716853E+02  0.34859840051E+02  0.37140045388E+02  0.47000000000E+01 0.  1.
         11    1    6    6    0    0  0.42870409216E+02 -0.37401107745E+02 -0.50031729340E+02  0.75762053744E+02  0.00000000000E+00 0. -1.
        -12    1    6    6    0    0 -0.30132461070E+02 -0.79466540040E+02 -0.59502603207E+02  0.10374707699E+03  0.00000000000E+00 0.  1.
</event>
<event>
12    1  0.8358445E-002  0.1808188E+03  0.7818608E-02  0.1167324E+00
         21   -1    0    0  501  502  0.00000000000E+00  0.00000000000E+00  0.18322321435E+03  0.18322321435E+03  0.00000000000E+00 0.  1.
         21   -1    0    0  502  503 -0.00000000000E+00 -0.00000000000E+00 -0.17954575028E+03  0.17954575028E+03  0.00000000000E+00 0.  1.
         -6    2    1    2    0  503  0.78785599457E+01  0.31331949095E+02  0.22686099405E+02  0.18223636903E+03  0.17790916882E+03 0.  0.
        -24    2    3    3    0    0 -0.63425498401E+02  0.35825581588E+02  0.22789034962E+02  0.11063635461E+03  0.80092425999E+02 0.  0.
          6    2    1    2  501    0 -0.78785599457E+01 -0.31331949095E+02 -0.19008635342E+02  0.18053259560E+03  0.17659820814E+03 0.  0.
         24    2    5    5    0    0  0.44400115853E+02  0.20603381862E+01  0.35690225127E+02  0.97694439360E+02  0.79339750636E+02 0.  0.
          5    1    5    5  501    0 -0.52278675799E+02 -0.33392287281E+02 -0.54698860469E+02  0.82838156243E+02  0.47000000000E+01 0. -1.
        -13    1    6    6    0    0  0.39868297512E+02 -0.24881597498E+01 -0.17862801054E+02  0.43757876399E+02  0.00000000000E+00 0.  1.
         14    1    6    6    0    0  0.45318183418E+01  0.45484979360E+01  0.53553026181E+02  0.53936562962E+02  0.00000000000E+00 0. -1.
         -5    1    3    3    0  503  0.71304058346E+02 -0.44936324930E+01 -0.10293555738E+00  0.71600014423E+02  0.47000000000E+01 0.  1.
         11    1    4    4    0    0  0.14810864630E+02  0.10840786034E+02  0.21804819677E+02  0.28501482664E+02  0.00000000000E+00 0. -1.
        -12    1    4    4    0    0 -0.78236363030E+02  0.24984795554E+02  0.98421528510E+00  0.82134871941E+02  0.00000000000E+00 0.  1.
</event>
<event>
12    1  0.8358445E-002  0.2678050E+03  0.7818608E-02  0.1103111E+00
         21   -1    0    0  503  502  0.00000000000E+00  0.00000000000E+00  0.15677758034E+03  0.15677758034E+03  0.00000000000E+00 0.  1.
         21   -1    0    0  501  503 -0.00000000000E+00 -0.00000000000E+00 -0.65531722088E+03  0.65531722088E+03  0.00000000000E+00 0. -1.
          6    2    1    2  501    0  0.18359866226E+03 -0.77803485480E+02 -0.47483349691E+03  0.54324261246E+03  0.17286941623E+03 0.  0.
         24    2    3    3    0    0  0.14215798934E+03 -0.12007456157E+03 -0.32985686323E+03  0.38657580819E+03  0.77514585654E+02 0.  0.
         -6    2    1    2    0  502 -0.18359866226E+03  0.77803485480E+02 -0.23706143629E+02  0.26885218876E+03  0.17876707477E+03 0.  0.
        -24    2    5    5    0    0 -0.12535533230E+02  0.29302957780E+02 -0.29140702632E+02  0.90901297415E+02  0.79987889044E+02 0.  0.
          5    1    3    3  501    0  0.41440672920E+02  0.42271076091E+02 -0.14497663368E+03  0.15666680427E+03  0.47000000000E+01 0. -1.
        -11    1    4    4    0    0  0.77603308563E+01 -0.44435289996E+02 -0.52420115363E+02  0.69156245031E+02  0.00000000000E+00 0.  1.
         12    1    4    4    0    0  0.13439765848E+03 -0.75639271576E+02 -0.27743674786E+03  0.31741956316E+03  0.00000000000E+00 0. -1.
         -5    1    5    5    0  502 -0.17106312903E+03  0.48500527700E+02  0.54345590028E+01  0.17795089135E+03  0.47000000000E+01 0.  1.
         13    1    6    6    0    0 -0.13043028124E+02  0.56113657728E+02 -0.28020113526E+02  0.64062390904E+02  0.00000000000E+00 0. -1.
        -14    1    6    6    0    0  0.50749489442E+00 -0.26810699948E+02 -0.11205891064E+01  0.26838906511E+02  0.00000000000E+00 0.  1.
</event>
<event>
12    1  0.8358445E-002  0.2049003E+03  0.7818608E-02  0.1145781E+00
         21   -1    0    0  501  502  0.00000000000E+00  0.00000000000E+00  0.17544892077E+04  0.17544892077E+04  0.00000000000E+00 0. -1.
         21   -1    0    0  502  503 -0.00000000000E+00 -0.00000000000E+00 -0.24717806919E+02  0.24717806919E+02  0.00000000000E+00 0. -1.
         -6    2    1    2    0  503  0.10791658248E+03  0.22636960201E+02  0.10311699044E+04  0.10513303499E+04  0.17270122218E+03 0.  0.
        -24    2    3    3    0    0  0.36977265259E+02  0.63446092856E+02  0.76424462249E+03  0.77210111046E+03  0.81716319810E+02 0.  0.
          6    2    1    2  501    0 -0.10791658248E+03 -0.22636960201E+02  0.69860149637E+03  0.72787666470E+03  0.17205222333E+03 0.  0.
         24    2    5    5    0    0 -0.67374357718E+02  0.37137702930E+02  0.25369384951E+03  0.27711998247E+03  0.80724236453E+02 0.  0.
          5    1    5    5  501    0 -0.40542224767E+02 -0.59774663132E+02  0.44490764686E+03  0.45075668223E+03  0.47000000000E+01 0. -1.
        -13    1    6    6    0    0 -0.76729225743E+02  0.22224584071E+02  0.13297791164E+03  0.15512714529E+03  0.00000000000E+00 0.  1.
         14    1    6    6    0    0  0.93548680254E+01  0.14913118859E+02  0.12071593786E+03  0.12199283718E+03  0.00000000000E+00 0. -1.
         -5    1    3    3    0  503  0.70939317225E+02 -0.40809132654E+02  0.26692528190E+03  0.27922923943E+03  0.47000000000E+01 0.  1.
         13    1    4    4    0    0  0.32161097399E+02 -0.11779122796E+02  0.21596171321E+03  0.21866080008E+03  0.00000000000E+00 0. -1.
        -14    1    4    4    0    0  0.48161678601E+01  0.75225215651E+02  0.54828290928E+03  0.55344031038E+03  0.00000000000E+00 0.  1.
</event>
<event>
12    1  0.8358445E-002  0.2247805E+03  0.7818608E-02  0.1130595E+00
         21   -1    0    0  503  502  0.00000000000E+00  0.00000000000E+00  0.71297447891E+03  0.71297447891E+03  0.00000000000E+00 0. -1.
         21   -1    0    0  501  503 -0.00000000000E+00 -0.00000000000E+00 -0.83258655429E+02  0.83258655429E+02  0.00000000000E+00 0.  1.
          6    2    1    2  501    0  0.10361159034E+03 -0.10152591213E+03  0.47160132307E+03  0.52243095482E+03  0.17170737359E+03 0.  0.
         24    2    3    3    0    0  0.69021874612E+01 -0.10316522917E+03  0.28043786238E+03  0.30813920353E+03  0.74924424573E+02 0.  0.
         -6    2    1    2    0  502 -0.10361159034E+03  0.10152591213E+03  0.15811450041E+03  0.27380217952E+03  0.17007223696E+03 0.  0.
        -24    2    5    5    0    0 -0.19470157069E+02  0.12729286426E+01  0.10709387589E+03  0.13324743710E+03  0.76844478507E+02 0.  0.
          5    1    3    3  501    0  0.96709402876E+02  0.16393170411E+01  0.19116346069E+03  0.21429175129E+03  0.47000000000E+01 0. -1.
        -13    1    4    4    0    0  0.15828869789E+01  0.67056818687E+01 -0.10320694880E-01  0.68899787393E+01  0.00000000000E+00 0.  1.
         14    1    4    4    0    0  0.53193004823E+01 -0.10987091104E+03  0.28044818307E+03  0.30124922479E+03  0.00000000000E+00 0. -1.
         -5    1    5    5    0  502 -0.84141433268E+02  0.10025298349E+03  0.51020624520E+02  0.14055474242E+03  0.47000000000E+01 0.  1.
         13    1    6    6    0    0 -0.31169085062E+02 -0.27391258239E+02  0.86859300518E+02  0.96261783580E+02  0.00000000000E+00 0. -1.
        -14    1    6    6    0    0  0.11698927993E+02  0.28664186881E+02  0.20234575369E+02  0.36985653518E+02  0.00000000000E+00 0.  1.
</event>
<event>
12    1  0.8358445E-002  0.1883441E+03  0.7818608E-02  0.1161266E+00
         21   -1    0    0  503  502  0.00000000000E+00  0.00000000000E+00  0.75769726343E+03  0.75769726343E+03  0.00000000000E+00 0.  1.
         21   -1    0    0  501  503 -0.00000000000E+00 -0.00000000000E+00 -0.78413526285E+02  0.78413526285E+02  0.00000000000E+00 0.  1.
          6    2    1    2  501    0 -0.55531251247E+02 -0.28326914367E+02  0.65548951211E+02  0.19412645909E+03  0.17176228682E+03 0.  0.
         24    2    3    3    0    0 -0.36458740996E+02  0.47838372013E+01  0.10625084158E+03  0.13810131834E+03  0.80191071191E+02 0.  0.
         -6    2    1    2    0  502  0.55531251247E+02  0.28326914367E+02  0.61373478594E+03  0.64198433062E+03  0.17772833020E+03 0.  0.
        -24    2    5    5    0    0 -0.83285691597E+01  0.44845398039E+02  0.51427837958E+03  0.52254981412E+03  0.80595172014E+02 0.  0.
          5    1    3    3  501    0 -0.19072510251E+02 -0.33110751569E+02 -0.40701890368E+02  0.56025140751E+02  0.47000000000E+01 0. -1.
        -13    1    4    4    0    0 -0.52635547163E+02  0.57616583134E+01  0.31494455532E+02  0.61608426866E+02  0.00000000000E+00 0.  1.
         14    1    4    4    0    0  0.16176806167E+02 -0.97782111214E+00  0.74756386047E+02  0.76492891478E+02  0.00000000000E+00 0. -1.
         -5    1    5    5    0  502  0.63859820406E+02 -0.16518483672E+02  0.99456406359E+02  0.11943451650E+03  0.47000000000E+01 0.  1.
         11    1    6    6    0    0 -0.17232467270E+02 -0.71362674466E+00  0.21376124625E+02  0.27466450359E+02  0.00000000000E+00 0. -1.
        -12    1    6    6    0    0  0.89038981103E+01  0.45559024784E+02  0.49290225495E+03  0.49508336377E+03  0.00000000000E+00 0.  1.
</event>
<event>
12    1  0.8358445E-002  0.2152409E+03  0.7818608E-02  0.1137621E+00
         21   -1    0    0  503  502  0.00000000000E+00  0.00000000000E+00  0.55044392796E+03  0.55044392796E+03  0.00000000000E+00 0.  1.
         21   -1    0    0  501  503 -0.00000000000E+00 -0.00000000000E+00 -0.88402907459E+02  0.88402907459E+02  0.00000000000E+00 0.  1.
          6    2    1    2  501    0  0.12697435691E+03 -0.22440824279E+02  0.30288326715E+03  0.37115332396E+03  0.17143639771E+03 0.  0.
         24    2    3    3    0    0  0.12079913003E+03  0.35097812934E+02  0.16864649211E+03  0.22489864891E+03  0.79457389171E+02 0.  0.
         -6    2    1    2    0  502 -0.12697435691E+03  0.22440824279E+02  0.15915775335E+03  0.26769351145E+03  0.17234427092E+03 0.  0.
        -24    2    5    5    0    0 -0.12139259917E+03  0.64903125795E+02  0.91939500045E+02  0.18785250290E+03  0.88809415646E+02 0.  0.
          5    1    3    3  501    0  0.61752268794E+01 -0.57538637213E+02  0.13423677505E+03  0.14625467505E+03  0.47000000000E+01 0. -1.
        -13    1    4    4    0    0  0.21776950567E+02  0.22086015550E+02  0.97394066321E+02  0.10221365767E+03  0.00000000000E+00 0.  1.
         14    1    4    4    0    0  0.99022179463E+02  0.13011797384E+02  0.71252425786E+02  0.12268499125E+03  0.00000000000E+00 0. -1.
         -5    1    5    5    0  502 -0.55817577389E+01 -0.42462301515E+02  0.67218253300E+02  0.79841008549E+02  0.47000000000E+01 0.  1.
         11    1    6    6    0    0 -0.10197352809E+03  0.78488968466E+01  0.68959506582E+02  0.12335160785E+03  0.00000000000E+00 0. -1.
        -12    1    6    6    0    0 -0.19419071083E+02  0.57054228948E+02  0.22979993464E+02  0.64500895049E+02  0.00000000000E+00 0.  1.
</event>
<event>
12    1  0.8358445E-002  0.1883953E+03  0.7818608E-02  0.1160743E+00
         21   -1    0    0  501  502  0.00000000000E+00  0.00000000000E+00  0.46046362726E+02  0.46046362726E+02  0.00000000000E+00 0. -1.
         21   -1    0    0  502  503 -0.00000000000E+00 -0.00000000000E+00 -0.79019240300E+03  0.79019240300E+03  0.00000000000E+00 0. -1.
         -6    2    1    2    0  503  0.73697720299E+02  0.11118566600E+02 -0.46222188437E+03  0.49914112442E+03  0.17302547557E+03 0.  0.
        -24    2    3    3    0    0  0.24058150874E+02  0.69325120990E+01 -0.43350048132E+03  0.44144694015E+03  0.79535396644E+02 0.  0.
          6    2    1    2  501    0 -0.73697720299E+02 -0.11118566600E+02 -0.28192415591E+03  0.33709764131E+03  0.16911124620E+03 0.  0.
         24    2    5    5    0    0 -0.10583995676E+03 -0.42466239249E+02 -0.21884484548E+03  0.25952903072E+03  0.80354050733E+02 0.  0.
          5    1    5    5  501    0  0.32142236460E+02  0.31347672649E+02 -0.63079310426E+02  0.77568610591E+02  0.47000000000E+01 0. -1.
        -11    1    6    6    0    0 -0.26230559835E+02  0.43474729940E+01 -0.12524885195E+03  0.12803990669E+03  0.00000000000E+00 0.  1.
         12    1    6    6    0    0 -0.79609396924E+02 -0.46813712243E+02 -0.93595993533E+02  0.13148912403E+03  0.00000000000E+00 0. -1.
         -5    1    3    3    0  503  0.49639569425E+02  0.41860545006E+01 -0.28721403052E+02  0.57694184267E+02  0.47000000000E+01 0.  1.
         11    1    4    4    0    0 -0.16605008149E+02  0.28961165687E+02 -0.24950602862E+03  0.25172948523E+03  0.00000000000E+00 0. -1.
        -12    1    4    4    0    0  0.40663159023E+02 -0.22028653588E+02 -0.18399445269E+03  0.18971745492E+03  0.00000000000E+00 0.  1.
</event>
<event>
12    1  0.8358445E-002  0.1980577E+03  0.7818608E-02  0.1151400E+00
         21   -1    0    0  501  502  0.00000000000E+00  0.00000000000E+00  0.20975243336E+04  0.20975243336E+04  0.00000000000E+00 0. -1.
         21   -1    0    0  502  503 -0.00000000000E+00 -0.00000000000E+00 -0.20788131911E+02  0.20788131911E+02  0.00000000000E+00 0.  1.
         -6    2    1    2    0  503 -0.13378165480E+01  0.98485286095E+02  0.70225910231E+03  0.72963894326E+03  0.17176728273E+03 0.  0.
        -24    2    3    3    0    0 -0.40128402106E+02  0.10583620378E+03  0.65061694038E+03  0.66446419042E+03  0.73475618808E+02 0.  0.
          6    2    1    2  501    0  0.13378165480E+01 -0.98485286095E+02  0.13744770993E+04  0.13886735222E+04  0.17183047852E+03 0.  0.
         24    2    5    5    0    0 -0.93230616920E+01  0.15564249410E+02  0.51423438211E+03  0.52082527890E+03  0.80577950188E+02 0.  0.
          5    1    5    5  501    0  0.10660878240E+02 -0.11404953550E+03  0.86024271724E+03  0.86784824332E+03  0.47000000000E+01 0. -1.
        -11    1    6    6    0    0  0.16060605480E+02  0.52958318234E+00  0.44834178683E+03  0.44862967058E+03  0.00000000000E+00 0.  1.
         12    1    6    6    0    0 -0.25383667172E+02  0.15034666227E+02  0.65892595274E+02  0.72195608312E+02  0.00000000000E+00 0. -1.
         -5    1    3    3    0  503  0.38790585558E+02 -0.73509176806E+01  0.51642161927E+02  0.65174752835E+02  0.47000000000E+01 0.  1.
         13    1    4    4    0    0 -0.33785745958E+02  0.53366748512E+02  0.17747504528E+03  0.18837961188E+03  0.00000000000E+00 0. -1.
        -14    1    4    4    0    0 -0.63426561481E+01  0.52469455263E+02  0.47314189510E+03  0.47608457854E+03  0.00000000000E+00 0.  1.
</event>
<event>
12    1  0.8358445E-002  0.2462983E+03  0.7818608E-02  0.1116921E+00
         21   -1    0    0  503  502  0.00000000000E+00  0.00000000000E+00  0.54297878778E+03  0.54297878778E+03  0.00000000000E+00 0. -1.
         21   -1    0    0  501  503 -0.00000000000E+00 -0.00000000000E+00 -0.18873642475E+03  0.18873642475E+03  0.00000000000E+00 0.  1.
          6    2    1    2  501    0  0.14964246941E+03 -0.96262987696E+02 -0.63342682729E+02  0.24690582586E+03  0.15903068867E+03 0.  0.
         24    2    3    3    0    0  0.97084286017E+02 -0.92922081901E-01 -0.53399592759E+02  0.13676047099E+03  0.80165720185E+02 0.  0.
         -6    2    1    2    0  502 -0.14964246941E+03  0.96262987696E+02  0.41758504576E+03  0.48480938667E+03  0.17030396210E+03 0.  0.
        -24    2    5    5    0    0 -0.15516893040E+03  0.12256192981E+03  0.33035014607E+03  0.39340810741E+03  0.80869625700E+02 0.  0.
          5    1    3    3  501    0  0.52558183395E+02 -0.96170065614E+02 -0.99430899697E+01  0.11014535487E+03  0.47000000000E+01 0. -1.
        -13    1    4    4    0    0 -0.56991120940E+01 -0.19919155526E+02 -0.43946352524E+01  0.21179363884E+02  0.00000000000E+00 0.  1.
         14    1    4    4    0    0  0.10278339811E+03  0.19826233444E+02 -0.49004957507E+02  0.11558110711E+03  0.00000000000E+00 0. -1.
         -5    1    5    5    0  502  0.55264609874E+01 -0.26298942114E+02  0.87234899690E+02  0.91401279265E+02  0.47000000000E+01 0.  1.
         13    1    6    6    0    0 -0.44304674960E+02 -0.50465023170E+01  0.69193416876E+02  0.82317072032E+02  0.00000000000E+00 0. -1.
        -14    1    6    6    0    0 -0.11086425544E+03  0.12760843213E+03  0.26115672920E+03  0.31109103537E+03  0.00000000000E+00 0.  1.
</event>
<event>
12    1  0.8358445E-002  0.2186168E+03  0.7818608E-02  0.1134991E+00
         21   -1    0    0  501  502  0.00000000000E+00  0.00000000000E+00  0.27838988850E+03  0.27838988850E+03  0.00000000000E+00 0.  1.
         21   -1    0    0  502  503 -0.00000000000E+00 -0.00000000000E+00 -0.20833371543E+03  0.20833371543E+03  0.00000000000E+00 0.  1.
         -6    2    1    2    0  503 -0.91584680743E+02 -0.99832027905E+02 -0.67447693804E+02  0.22878482467E+03  0.17157831174E+03 0.  0.
        -24    2    3    3    0    0 -0.45327972165E+02 -0.55209215139E+02  0.35965034339E+02  0.10693589834E+03  0.70986760464E+02 0.  0.
          6    2    1    2  501    0  0.91584680743E+02  0.99832027905E+02  0.13750386688E+03  0.25793877925E+03  0.17108744224E+03 0.  0.
         24    2    5    5    0    0  0.75579352384E+01  0.10047140925E+03  0.11253204716E+03  0.17015162445E+03  0.78335733875E+02 0.  0.
          5    1    5    5  501    0  0.84026745504E+02 -0.63938134598E+00  0.24971819715E+02  0.87787154803E+02  0.47000000000E+01 0. -1.
        -13    1    6    6    0    0 -0.16584794152E+02  0.38114305642E+02  0.90765454187E+02  0.99830473130E+02  0.00000000000E+00 0.  1.
         14    1    6    6    0    0  0.24142729390E+02  0.62357103609E+02  0.21766592976E+02  0.70321151318E+02  0.00000000000E+00 0. -1.
         -5    1    3    3    0  503 -0.46256708578E+02 -0.44622812766E+02 -0.10341272814E+03  0.12184892634E+03  0.47000000000E+01 0.  1.
         13    1    4    4    0    0  0.18030367134E+02 -0.11202316114E+02  0.17755401957E+02  0.27673820191E+02  0.00000000000E+00 0. -1.
        -14    1    4    4    0    0 -0.63358339299E+02 -0.44006899025E+02  0.18209632382E+02  0.79262078146E+02  0.00000000000E+00 0.  1.
</event>
<event>
12    1  0.8358445E-002  0.2583600E+03  0.7818608E-02  0.1108266E+00
         21   -1    0    0  501  502  0.00000000000E+00  0.00000000000E+00  0.35324163104E+03  0.35324163104E+03  0.00000000000E+00 0.  1.
         21   -1    0    0  502  503 -0.00000000000E+00 -0.00000000000E+00 -0.34775283980E+03  0.34775283980E+03  0.00000000000E+00 0.  1.
         -6    2    1    2    0  503  0.11615558872E+03 -0.15363397990E+03 -0.23457316385E+03  0.34896199484E+03  0.17220448331E+03 0.  0.
        -24    2    3    3    0    0  0.59111206528E+02 -0.17111133564E+03 -0.18845895588E+03  0.27340982955E+03  0.80392368530E+02 0.  0.
          6    2    1    2  501    0 -0.11615558872E+03  0.15363397990E+03  0.24006195510E+03  0.35203247600E+03  0.17088476029E+03 0.  0.
         24    2    5    5    0    0 -0.96185728735E+02  0.16599090956E+03  0.14269104714E+03  0.25175948495E+03  0.78850661748E+02 0.  0.
          5    1    5    5  501    0 -0.19969859990E+02 -0.12356929657E+02  0.97370907954E+02  0.10027299105E+03  0.47000000000E+01 0. -1.
        -13    1    6    6    0    0 -0.10833970763E+03  0.15942988849E+03  0.13839753686E+03  0.23729572226E+03  0.00000000000E+00 0.  1.
         14    1    6    6    0    0  0.12153978899E+02  0.65610210696E+01  0.42935102821E+01  0.14463762688E+02  0.00000000000E+00 0. -1.
         -5    1    3    3    0  503  0.57044382197E+02  0.17477355744E+02 -0.46114207972E+02  0.75552165296E+02  0.47000000000E+01 0.  1.
         13    1    4    4    0    0 -0.10831749591E+02  0.20994575957E+01 -0.13877025716E+02  0.17728687603E+02  0.00000000000E+00 0. -1.
        -14    1    4    4    0    0  0.69942956119E+02 -0.17321079324E+03 -0.17458193017E+03  0.25568114194E+03  0.00000000000E+00 0.  1.
</event>
<event>
12    1  0.8358445E-002  0.2008565E+03  0.7818608E-02  0.1151032E+00
         21   -1    0    0  501  502  0.00000000000E+00  0.00000000000E+00  0.40443344915E+02  0.40443344915E+02  0.00000000000E+00 0.  1.
         21   -1    0    0  502  503 -0.00000000000E+00 -0.00000000000E+00 -0.10326503389E+04  0.10326503389E+04  0.00000000000E+00 0.  1.
         -6    2    1    2    0  503  0.41694782959E+02 -0.77172958242E+02 -0.65727706630E+03  0.68728194409E+03  0.18069091949E+03 0.  0.
        -24    2    3    3    0    0  0.67059236608E+02  0.11711793042E+02 -0.29735963960E+03  0.31565511707E+03  0.81125152459E+02 0.  0.
          6    2    1    2  501    0 -0.41694782959E+02  0.77172958242E+02 -0.33492992768E+03  0.38581173972E+03  0.17023078933E+03 0.  0.
         24    2    5    5    0    0 -0.65158030492E+02  0.11114717640E+03 -0.27754715831E+03  0.31496229579E+03  0.74629477556E+02 0.  0.
          5    1    5    5  501    0  0.23463247532E+02 -0.33974218161E+02 -0.57382769372E+02  0.70849443930E+02  0.47000000000E+01 0. -1.
        -13    1    6    6    0    0 -0.98235554136E+00  0.61251494008E+02 -0.75838978064E+02  0.97489800155E+02  0.00000000000E+00 0.  1.
         14    1    6    6    0    0 -0.64175674950E+02  0.49895682396E+02 -0.20170818025E+03  0.21747249563E+03  0.00000000000E+00 0. -1.
         -5    1    3    3    0  503 -0.25364453649E+02 -0.88884751284E+02 -0.35991742670E+03  0.37162682702E+03  0.47000000000E+01 0.  1.
         11    1    4    4    0    0  0.50789981852E+02  0.74989458617E+01 -0.29408548244E+03  0.29853329366E+03  0.00000000000E+00 0. -1.
        -12    1    4    4    0    0  0.16269254756E+02  0.42128471802E+01 -0.32741571593E+01  0.17121823407E+02  0.00000000000E+00 0.  1.
</event>
<event>
12    1  0.8358445E-002  0.2024924E+03  0.7818608E-02  0.1147795E+00
         21   -1    0    0  501  502  0.00000000000E+00  0.00000000000E+00  0.53717543486E+03  0.53717543486E+03  0.00000000000E+00 0. -1.
         21   -1    0    0  502  503 -0.00000000000E+00 -0.00000000000E+00 -0.76180135764E+02  0.76180135764E+02  0.00000000000E+00 0. -1.
         -6    2    1    2    0  503  0.50169131486E+02  0.93256215754E+02  0.24235678909E+03  0.31581635224E+03  0.17259632556E+03 0.  0.
        -24    2    3    3    0    0  0.12904773190E+01  0.11654528116E+03  0.21791303246E+03  0.25622532407E+03  0.67682044025E+02 0.  0.
          6    2    1    2  501    0 -0.50169131486E+02 -0.93256215754E+02  0.21863851001E+03  0.29753921838E+03  0.17179384414E+03 0.  0.
         24    2    5    5    0    0  0.29989271560E+02 -0.79952728539E+02  0.15505275666E+03  0.19425519067E+03  0.80012040007E+02 0.  0.
          5    1    5    5  501    0 -0.80158403046E+02 -0.13303487215E+02  0.63585753350E+02  0.10328402771E+03  0.47000000000E+01 0. -1.
        -11    1    6    6    0    0  0.13817106056E+02  0.65982388487E+01  0.70636017568E+02  0.72276525605E+02  0.00000000000E+00 0.  1.
         12    1    6    6    0    0  0.16172165504E+02 -0.86550967387E+02  0.84416739091E+02  0.12197866507E+03  0.00000000000E+00 0. -1.
         -5    1    3    3    0  503  0.48878654167E+02 -0.23289065408E+02  0.24443756622E+02  0.59591028172E+02  0.47000000000E+01 0.  1.
         11    1    4    4    0    0  0.62192347513E+01  0.64141103380E+02  0.54023955185E+02  0.84091306076E+02  0.00000000000E+00 0. -1.
        -12    1    4    4    0    0 -0.49287574323E+01  0.52404177782E+02  0.16388907728E+03  0.17213401799E+03  0.00000000000E+00 0.  1.
</event>
<event>
12    1  0.8358445E-002  0.2168145E+03  0.7818608E-02  0.1136549E+00
         21   -1    0    0  503  502  0.00000000000E+00  0.00000000000E+00  0.19009607985E+03  0.19009607985E+03  0.00000000000E+00 0.  1.
         21   -1    0    0  501  503 -0.00000000000E+00 -0.00000000000E+00 -0.26318853073E+03  0.26318853073E+03  0.00000000000E+00 0.  1.
          6    2    1    2  501    0 -0.88653749221E+02 -0.94957496297E+02 -0.94888644973E+02  0.23537724401E+03  0.17182019293E+03 0.  0.
         24    2    3    3    0    0 -0.11978048901E+03 -0.10143659483E+03 -0.10056825126E+03  0.20273983334E+03  0.79703943099E+02 0.  0.
         -6    2    1    2    0  502  0.88653749221E+02  0.94957496297E+02  0.21796194098E+02  0.21790736657E+03  0.17358609672E+03 0.  0.
        -24    2    5    5    0    0 -0.19595431556E+02  0.50482461847E+02 -0.10120002958E+02  0.96512772531E+02  0.79245447249E+02 0.  0.
          5    1    3    3  501    0  0.31126739785E+02  0.64790985295E+01  0.56796062849E+01  0.32637410665E+02  0.47000000000E+01 0. -1.
        -11    1    4    4    0    0 -0.65550168393E+02 -0.35638543062E+02 -0.89869362124E+02  0.11680510510E+03  0.00000000000E+00 0.  1.
         12    1    4    4    0    0 -0.54230320613E+02 -0.65798051765E+02 -0.10698889133E+02  0.85934728244E+02  0.00000000000E+00 0. -1.
         -5    1    5    5    0  502  0.10824918078E+03  0.44475034450E+02  0.31916197056E+02  0.12139459404E+03  0.47000000000E+01 0.  1.
         11    1    6    6    0    0  0.10840525597E+00  0.53476891941E+02  0.22716003921E+02  0.58101691520E+02  0.00000000000E+00 0. -1.
        -12    1    6    6    0    0 -0.19703836812E+02 -0.29944300934E+01 -0.32836006879E+02  0.38411081011E+02  0.00000000000E+00 0.  1.
</event>
<event>
12    1  0.8358445E-002  0.1806406E+03  0.7818608E-02  0.1167513E+00
         21   -1    0    0  501  502  0.00000000000E+00  0.00000000000E+00  0.15374205704E+03  0.15374205704E+03  0.00000000000E+00 0. -1.
         21   -1    0    0  502  503 -0.00000000000E+00 -0.00000000000E+00 -0.35064120784E+03  0.35064120784E+03  0.00000000000E+00 0. -1.
         -6    2    1    2    0  503 -0.10528500070E+01  0.56719571050E+02 -0.25802074645E+03  0.31496940325E+03  0.17150160686E+03 0.  0.
        -24    2    3    3    0    0  0.49803430501E+02 -0.77650296111E+01 -0.16344978169E+03  0.18962833909E+03  0.81868177443E+02 0.  0.
          6    2    1    2  501    0  0.10528500070E+01 -0.56719571050E+02  0.61121595651E+02  0.18941386163E+03  0.17006923087E+03 0.  0.
         24    2    5    5    0    0 -0.37933288972E+02 -0.29759614539E+02  0.92554963096E+02  0.13234456273E+03  0.81388531265E+02 0.  0.
          5    1    5    5  501    0  0.38986138979E+02 -0.26959956511E+02 -0.31433367445E+02  0.57069298896E+02  0.47000000000E+01 0. -1.
        -11    1    6    6    0    0 -0.31086891673E+02  0.12292235509E+02  0.34862450688E+01  0.33610233447E+02  0.00000000000E+00 0.  1.
         12    1    6    6    0    0 -0.68463972991E+01 -0.42051850048E+02  0.89068718028E+02  0.98734329286E+02  0.00000000000E+00 0. -1.
         -5    1    3    3    0  503 -0.50856280508E+02  0.64484600661E+02 -0.94570964760E+02  0.12534106416E+03  0.47000000000E+01 0.  1.
         13    1    4    4    0    0 -0.72850046763E+01  0.20654509625E+02 -0.88738787357E+02  0.91401599781E+02  0.00000000000E+00 0. -1.
        -14    1    4    4    0    0  0.57088435177E+02 -0.28419539236E+02 -0.74710994328E+02  0.98226739307E+02  0.00000000000E+00 0.  1.
</event>
<event>
12    1  0.8358445E-002  0.2285191E+03  0.7818608E-02  0.1127735E+00
         21   -1    0    0  501  502  0.00000000000E+00  0.00000000000E+00  0.42073061470E+03  0.42073061470E+03  0.00000000000E+00 0. -1.
         21   -1    0    0  502  503 -0.00000000000E+00 -0.00000000000E+00 -0.22718381683E+03  0.22718381683E+03  0.00000000000E+00 0.  1.
         -6    2    1    2    0  503 -0.15088883216E+03  0.12786542390E+02 -0.12161293311E+03  0.25862450947E+03  0.17078054943E+03 0.  0.
        -24    2    3    3    0    0 -0.29982529360E+02  0.31241374639E+02 -0.10004953170E+03  0.13434263159E+03  0.78505148319E+02 0.  0.
          6    2    1    2  501    0  0.15088883216E+03 -0.12786542390E+02  0.31515973099E+03  0.38928992206E+03  0.17114336692E+03 0.  0.
         24    2    5    5    0    0  0.13921605405E+03 -0.29553367079E+02  0.32686270782E+03  0.36528096903E+03  0.79601792429E+02 0.  0.
          5    1    5    5  501    0  0.11672778107E+02  0.16766824689E+02 -0.11702976830E+02  0.24008953029E+02  0.47000000000E+01 0. -1.
        -11    1    6    6    0    0  0.19077711763E+02  0.55407447118E+01  0.58152768722E+01  0.20699671088E+02  0.00000000000E+00 0.  1.
         12    1    6    6    0    0  0.12013834229E+03 -0.35094111791E+02  0.32104743095E+03  0.34458129794E+03  0.00000000000E+00 0. -1.
         -5    1    3    3    0  503 -0.12090630280E+03 -0.18454832248E+02 -0.21563401418E+02  0.12428187789E+03  0.47000000000E+01 0.  1.
         11    1    4    4    0    0 -0.20181530874E+02  0.97639836984E+01  0.79543502454E+01  0.23788679112E+02  0.00000000000E+00 0. -1.
        -12    1    4    4    0    0 -0.98009984856E+01  0.21477390940E+02 -0.10800388194E+03  0.11055395247E+03  0.00000000000E+00 0.  1.
</event>
<event>
12    1  0.8358445E-002  0.2745452E+03  0.7818608E-02  0.1098936E+00
         21   -1    0    0  503  502  0.00000000000E+00  0.00000000000E+00  0.44736246234E+03  0.44736246234E+03  0.00000000000E+00 0.  1.
         21   -1    0    0  501  503 -0.00000000000E+00 -0.00000000000E+00 -0.18581292536E+03  0.18581292536E+03  0.00000000000E+00 0. -1.
          6    2    1    2  501    0 -0.19570407313E+03  0.82293520220E+02  0.31698621257E+02  0.27636912073E+03  0.17407693872E+03 0.  0.
         24    2    3    3    0    0 -0.10084489938E+03  0.95056829888E+01  0.74394124459E+02  0.14932059423E+03  0.80635614755E+02 0.  0.
         -6    2    1    2    0  502  0.19570407313E+03 -0.82293520220E+02  0.22985091573E+03  0.35680626697E+03  0.17148457942E+03 0.  0.
        -24    2    5    5    0    0  0.10429392316E+03 -0.58576491320E+02  0.47489959689E+02  0.15138980885E+03  0.79719195993E+02 0.  0.
          5    1    3    3  501    0 -0.94859173749E+02  0.72787837231E+02 -0.42695503202E+02  0.12704852650E+03  0.47000000000E+01 0. -1.
        -11    1    4    4    0    0 -0.53043688243E+02  0.12580381453E+02  0.84315214225E+02  0.10040395515E+03  0.00000000000E+00 0.  1.
         12    1    4    4    0    0 -0.47801211134E+02 -0.30746984639E+01 -0.99210897655E+01  0.48916639078E+02  0.00000000000E+00 0. -1.
         -5    1    5    5    0  502  0.91410149965E+02 -0.23717028900E+02  0.18236095604E+03  0.20541645811E+03  0.47000000000E+01 0.  1.
         13    1    6    6    0    0  0.87474807559E+02 -0.73513437372E+02  0.56114867209E+02  0.12729864789E+03  0.00000000000E+00 0. -1.
        -14    1    6    6    0    0  0.16819115602E+02  0.14936946052E+02 -0.86249075206E+01  0.24091160967E+02  0.00000000000E+00 0.  1.
</event>
<event>
12    1  0.8358445E-002  0.2093096E+03  0.7818608E-02  0.1142138E+00
         21   -1    0    0  503  502  0.00000000000E+00  0.00000000000E+00  0.19925575406E+03  0.19925575406E+03  0.00000000000E+00 0.  1.
         21   -1    0    0  501  503 -0.00000000000E+00 -0.00000000000E+00 -0.52203715209E+03  0.52203715209E+03  0.00000000000E+00 0.  1.
          6    2    1    2  501    0 -0.92190783545E+02 -0.74720793374E+02 -0.43585010036E+03  0.48350369631E+03  0.17241860927E+03 0.  0.
         24    2    3    3    0    0 -0.12860750278E+03 -0.35703068991E+02 -0.31299227944E+03  0.34947125837E+03  0.79695636864E+02 0.  0.
         -6    2    1    2    0  502  0.92190783545E+02  0.74720793374E+02  0.11306870233E+03  0.23778920984E+03  0.17226967039E+03 0.  0.
        -24    2    5    5    0    0  0.10219768916E+03  0.93896080010E+02  0.43763434408E+02  0.16503524129E+03  0.77849541838E+02 0.  0.
          5    1    3    3  501    0  0.36416719234E+02 -0.39017724383E+02 -0.12285782092E+03  0.13403243793E+03  0.47000000000E+01 0. -1.
        -13    1    4    4    0    0 -0.26037173714E+02 -0.17395866565E+02 -0.16902447716E+02  0.35584312939E+02  0.00000000000E+00 0.  1.
         14    1    4    4    0    0 -0.10257032907E+03 -0.18307202426E+02 -0.29608983172E+03  0.31388694544E+03  0.00000000000E+00 0. -1.
         -5    1    5    5    0  502 -0.10006905619E+02 -0.19175286636E+02  0.69305267925E+02  0.72753968550E+02  0.47000000000E+01 0.  1.
         13    1    6    6    0    0 -0.10718537744E+02  0.10923224653E+02  0.16089321399E+02  0.22205182982E+02  0.00000000000E+00 0. -1.
        -14    1    6    6    0    0  0.11291622691E+03  0.82972855357E+02  0.27674113009E+02  0.14283005831E+03  0.00000000000E+00 0.  1.
</event>
<event>
12    1  0.8358445E-002  0.1738177E+03  0.7818608E-02  0.1174334E+00
         21   -1    0    0  501  502  0.00000000000E+00  0.00000000000E+00  0.62661219444E+02  0.62661219444E+02  0.00000000000E+00 0.  1.
         21   -1    0    0  502  503 -0.00000000000E+00 -0.00000000000E+00 -0.50538853835E+03  0.50538853835E+03  0.00000000000E+00 0.  1.
         -6    2    1    2    0  503 -0.46480589951E+01 -0.33341128919E+01 -0.28687352097E+03  0.33459097003E+03  0.17211036990E+03 0.  0.
        -24    2    3    3    0    0 -0.49147570640E+01  0.44207103719E+02 -0.75805250608E+02  0.11818361535E+03  0.79009544112E+02 0.  0.
          6    2    1    2  501    0  0.46480589951E+01  0.33341128919E+01 -0.15585379793E+03  0.23345878777E+03  0.17372356920E+03 0.  0.
         24    2    5    5    0    0 -0.60272707407E+02 -0.84352049560E+01 -0.12443524038E+03  0.16023011503E+03  0.80533277414E+02 0.  0.
          5    1    5    5  501    0  0.64920766402E+02  0.11769317848E+02 -0.31418557550E+02  0.73228672741E+02  0.47000000000E+01 0. -1.
        -11    1    6    6    0    0 -0.57944977520E+02 -0.59833073685E+01 -0.29613537882E+02  0.65348159979E+02  0.00000000000E+00 0.  1.
         12    1    6    6    0    0 -0.23277298877E+01 -0.24518975875E+01 -0.94821702501E+02  0.94881955046E+02  0.00000000000E+00 0. -1.
         -5    1    3    3    0  503  0.26669806885E+00 -0.47541216611E+02 -0.21106827037E+03  0.21640735468E+03  0.47000000000E+01 0.  1.
         11    1    4    4    0    0 -0.35972339836E+02  0.28111443956E+01 -0.17114182939E+02  0.39935035041E+02  0.00000000000E+00 0. -1.
        -12    1    4    4    0    0  0.31057582772E+02  0.41395959324E+02 -0.58691067669E+02  0.78248580307E+02  0.00000000000E+00 0.  1.
</event>
<event>
12    1  0.8358445E-002  0.1863345E+03  0.7818608E-02  0.1162629E+00
         21   -1    0    0  503  502  0.00000000000E+00  0.00000000000E+00  0.15732231635E+03  0.15732231635E+03  0.00000000000E+00 0.  1.
         21   -1    0    0  501  503 -0.00000000000E+00 -0.00000000000E+00 -0.52536046271E+03  0.52536046271E+03  0.00000000000E+00 0.  1.
          6    2    1    2  501    0 -0.54009605076E+02  0.31739554114E+02 -0.44643184318E+03  0.48375812057E+03  0.17548815310E+03 0.  0.
         24    2    3    3    0    0 -0.13262690680E+02  0.83635731328E+02 -0.23335124458E+03  0.26064614030E+03  0.79452958329E+02 0.  0.
         -6    2    1    2    0  502  0.54009605076E+02 -0.31739554114E+02  0.78393696815E+02  0.19892465849E+03  0.17175858442E+03 0.  0.
        -24    2    5    5    0    0  0.79778729189E+02 -0.15339092555E+02  0.10801906045E+03  0.15611373621E+03  0.78124566057E+02 0.  0.
          5    1    3    3  501    0 -0.40746914396E+02 -0.51896177214E+02 -0.21308059859E+03  0.22311198027E+03  0.47000000000E+01 0. -1.
        -11    1    4    4    0    0 -0.25875488431E+02  0.28612562930E+02 -0.17598297409E+03  0.18016166859E+03  0.00000000000E+00 0.  1.
         12    1    4    4    0    0  0.12612797752E+02  0.55023168399E+02 -0.57368270494E+02  0.80484471715E+02  0.00000000000E+00 0. -1.
         -5    1    5    5    0  502 -0.25769124113E+02 -0.16400461560E+02 -0.29625363630E+02  0.42810922288E+02  0.47000000000E+01 0.  1.
         11    1    6    6    0    0  0.19038352083E+02  0.17221909244E+02 -0.25781996252E+01  0.25801165116E+02  0.00000000000E+00 0. -1.
        -12    1    6    6    0    0  0.60740377106E+02 -0.32561001799E+02  0.11059726007E+03  0.13031257109E+03  0.00000000000E+00 0.  1.
</event>
<event>
12    1  0.8358445E-002  0.1817715E+03  0.7818608E-02  0.1166641E+00
         21   -1    0    0  501  502  0.00000000000E+00  0.00000000000E+00  0.12662190346E+03  0.12662190346E+03  0.00000000000E+00 0. -1.
         21   -1    0    0  502  503 -0.00000000000E+00 -0.00000000000E+00 -0.37910204917E+03  0.37910204917E+03  0.00000000000E+00 0. -1.
         -6    2    1    2    0  503  0.53731231008E+02  0.20627649793E+02 -0.26878483525E+03  0.32322263450E+03  0.17004422564E+03 0.  0.
        -24    2    3    3    0    0 -0.46313976224E+01 -0.44814740480E+02 -0.13462415744E+03  0.16287900246E+03  0.79850453154E+02 0.  0.
          6    2    1    2  501    0 -0.53731231008E+02 -0.20627649793E+02  0.16304689535E+02  0.18250131813E+03  0.17241909145E+03 0.  0.
         24    2    5    5    0    0 -0.48085334426E+02 -0.45261603256E+02 -0.45550886558E+02  0.11551691618E+03  0.83117161530E+02 0.  0.
          5    1    5    5  501    0 -0.56458965820E+01  0.24633953463E+02  0.61855576093E+02  0.66984401955E+02  0.47000000000E+01 0. -1.
        -11    1    6    6    0    0  0.16356348163E+02 -0.37899122289E+02 -0.18751820397E+02  0.45337670470E+02  0.00000000000E+00 0.  1.
         12    1    6    6    0    0 -0.64441682589E+02 -0.73624809670E+01 -0.26799066161E+02  0.70179245707E+02  0.00000000000E+00 0. -1.
         -5    1    3    3    0  503  0.58362628630E+02  0.65442390273E+02 -0.13416067781E+03  0.16034363204E+03  0.47000000000E+01 0.  1.
         13    1    4    4    0    0  0.74961296334E+01  0.20146594973E+02 -0.57094402189E+02  0.61006950504E+02  0.00000000000E+00 0. -1.
        -14    1    4    4    0    0 -0.12127527256E+02 -0.64961335453E+02 -0.77529755250E+02  0.10187205196E+03  0.00000000000E+00 0.  1.
</event>
<event>
12    1  0.8358445E-002  0.2259991E+03  0.7818608E-02  0.1129636E+00
         21   -1    0    0  501  502  0.00000000000E+00  0.00000000000E+00  0.19968752509E+03  0.19968752509E+03  0.00000000000E+00 0. -1.
         21   -1    0    0  502  503 -0.00000000000E+00 -0.00000000000E+00 -0.39175101063E+03  0.39175101063E+03  0.00000000000E+00 0.  1.
         -6    2    1    2    0  503  0.10185903666E+03 -0.10379061150E+03 -0.27073232696E+03  0.35213871933E+03  0.17192419961E+03 0.  0.
        -24    2    3    3    0    0  0.11381452980E+03 -0.32135618997E+02 -0.12796203440E+03  0.19188012142E+03  0.80357037952E+02 0.  0.
          6    2    1    2  501    0 -0.10185903666E+03  0.10379061150E+03  0.78668841418E+02  0.23929981639E+03  0.17299670844E+03 0.  0.
         24    2    5    5    0    0 -0.50177764762E+02  0.99263835091E+02  0.11257498829E+03  0.17714547330E+03  0.79600714118E+02 0.  0.
          5    1    5    5  501    0 -0.51681271896E+02  0.45267764049E+01 -0.33906146870E+02  0.62154343090E+02  0.47000000000E+01 0. -1.
        -11    1    6    6    0    0  0.91873128427E+01 -0.65224353794E+01  0.25334844856E+02  0.27727301427E+02  0.00000000000E+00 0.  1.
         12    1    6    6    0    0 -0.59365077605E+02  0.10578627047E+03  0.87240143433E+02  0.14941817187E+03  0.00000000000E+00 0. -1.
         -5    1    3    3    0  503 -0.11955493142E+02 -0.71654992498E+02 -0.14277029256E+03  0.16025859791E+03  0.47000000000E+01 0.  1.
         11    1    4    4    0    0  0.15610235048E+02  0.26976383089E+01  0.10191862530E+02  0.18836951785E+02  0.00000000000E+00 0. -1.
        -12    1    4    4    0    0  0.98204294752E+02 -0.34833257306E+02 -0.13815389693E+03  0.17304316964E+03  0.00000000000E+00 0.  1.
</event>
<event>
12    1  0.8358445E-002  0.3086767E+03  0.7818608E-02  0.1081297E+00
         21   -1    0    0  503  502  0.00000000000E+00  0.00000000000E+00  0.30609071009E+03  0.30609071009E+03  0.00000000000E+00 0.  1.
         21   -1    0    0  501  503 -0.00000000000E+00 -0.00000000000E+00 -0.12075198793E+04  0.12075198793E+04  0.00000000000E+00 0. -1.
          6    2    1    2  501    0  0.15896454500E+03  0.19763985420E+03 -0.11041535803E+04  0.11464887451E+04  0.17592633437E+03 0.  0.
         24    2    3    3    0    0  0.11447945587E+03  0.21850794578E+03 -0.93934731041E+03  0.97444922345E+03  0.79540249705E+02 0.  0.
         -6    2    1    2    0  502 -0.15896454500E+03 -0.19763985420E+03  0.20272441112E+03  0.36712184431E+03  0.17131848462E+03 0.  0.
        -24    2    5    5    0    0 -0.17868703090E+03 -0.13348899237E+03  0.17386322498E+03  0.29391414261E+03  0.80054582183E+02 0.  0.
          5    1    3    3  501    0  0.44485089133E+02 -0.20868091577E+02 -0.16480626993E+03  0.17203952165E+03  0.47000000000E+01 0. -1.
        -11    1    4    4    0    0  0.51844521987E+02  0.11817336230E+03 -0.34270926902E+03  0.36620000149E+03  0.00000000000E+00 0.  1.
         12    1    4    4    0    0  0.62634933882E+02  0.10033458348E+03 -0.59663804138E+03  0.60824922195E+03  0.00000000000E+00 0. -1.
         -5    1    5    5    0  502  0.19722485902E+02 -0.64150861826E+02  0.28861186143E+02  0.73207701704E+02  0.47000000000E+01 0.  1.
         11    1    6    6    0    0 -0.14187437055E+02  0.54772979784E+01 -0.26961668035E+01  0.15445176553E+02  0.00000000000E+00 0. -1.
        -12    1    6    6    0    0 -0.16449959385E+03 -0.13896629035E+03  0.17655939178E+03  0.27846896606E+03  0.00000000000E+00 0.  1.
</event>
<event>
12    1  0.8358445E-002  0.1771799E+03  0.7818608E-02  0.1170886E+00
         21   -1    0    0  501  502  0.00000000000E+00  0.00000000000E+00  0.36462469257E+03  0.36462469257E+03  0.00000000000E+00 0. -1.
         21   -1    0    0  502  503 -0.00000000000E+00 -0.00000000000E+00 -0.96396533429E+02  0.96396533429E+02  0.00000000000E+00 0.  1.
         -6    2    1    2    0  503  0.35857368743E+02  0.19903993376E+02  0.21131634933E+03  0.27492536205E+03  0.17101881580E+03 0.  0.
        -24    2    3    3    0    0  0.50767690617E+01  0.73015203005E+02  0.99594723861E+02  0.14736338691E+03  0.80248771488E+02 0.  0.
          6    2    1    2  501    0 -0.35857368743E+02 -0.19903993376E+02  0.56911809812E+02  0.18609586395E+03  0.17236820078E+03 0.  0.
         24    2    5    5    0    0  0.32285384306E+02 -0.16905420311E+02 -0.11037803233E+02  0.89702575045E+02  0.81219330173E+02 0.  0.
          5    1    5    5  501    0 -0.68142753049E+02 -0.29985730650E+01  0.67949613046E+02  0.96393288908E+02  0.47000000000E+01 0. -1.
        -13    1    6    6    0    0 -0.94147241006E+01 -0.34839100259E+02  0.12974018394E+02  0.38350033769E+02  0.00000000000E+00 0.  1.
         14    1    6    6    0    0  0.41700108407E+02  0.17933679948E+02 -0.24011821628E+02  0.51352541276E+02  0.00000000000E+00 0. -1.
         -5    1    3    3    0  503  0.30780599681E+02 -0.53111209628E+02  0.11172162547E+03  0.12756197514E+03  0.47000000000E+01 0.  1.
         13    1    4    4    0    0 -0.10911597388E+01 -0.13573300828E+02  0.39507472960E+02  0.41788342210E+02  0.00000000000E+00 0. -1.
        -14    1    4    4    0    0  0.61679288006E+01  0.86588503833E+02  0.60087250901E+02  0.10557504470E+03  0.00000000000E+00 0.  1.
</event>
<event>
12    1  0.8358445E-002  0.2221641E+03  0.7818608E-02  0.1135180E+00
         21   -1    0    0  501  502  0.00000000000E+00  0.00000000000E+00  0.44268803516E+03  0.44268803516E+03  0.00000000000E+00 0.  1.
         21   -1    0    0  502  503 -0.00000000000E+00 -0.00000000000E+00 -0.10413718299E+03  0.10413718299E+03  0.00000000000E+00 0.  1.
         -6    2    1    2    0  503 -0.39032313251E+02  0.10972366745E+03  0.16560487738E+03  0.27709542173E+03  0.18919326799E+03 0.  0.
        -24    2    3    3    0    0 -0.96778933820E+02  0.10687501471E+03  0.12058781230E+03  0.20366917874E+03  0.78430115996E+02 0.  0.
          6    2    1    2  501    0  0.39032313251E+02 -0.10972366745E+03  0.17294597479E+03  0.26972979642E+03  0.17111705995E+03 0.  0.
         24    2    5    5    0    0 -0.88733932677E+01 -0.33477845011E+02  0.17825705205E+02  0.90306358172E+02  0.81473795454E+02 0.  0.
          5    1    5    5  501    0  0.47905706518E+02 -0.76245822437E+02  0.15512026959E+03  0.17942343825E+03  0.47000000000E+01 0. -1.
        -11    1    6    6    0    0 -0.14816426829E+02 -0.52805007647E+02  0.33899752376E+02  0.64475487960E+02  0.00000000000E+00 0.  1.
         12    1    6    6    0    0  0.59430335614E+01  0.19327162636E+02 -0.16074047170E+02  0.25830870212E+02  0.00000000000E+00 0. -1.
         -5    1    3    3    0  503  0.57746620569E+02  0.28486527367E+01  0.45017065088E+02  0.73426242984E+02  0.47000000000E+01 0.  1.
         11    1    4    4    0    0 -0.32914816609E+02  0.18963797440E+02  0.78378666024E+02  0.87098944043E+02  0.00000000000E+00 0. -1.
        -12    1    4    4    0    0 -0.63864117212E+02  0.87911217271E+02  0.42209146273E+02  0.11657023470E+03  0.00000000000E+00 0.  1.
</event>
<event>
12    1  0.8358445E-002  0.2335103E+03  0.7818608E-02  0.1124293E+00
         21   -1    0    0  503  502  0.00000000000E+00  0.00000000000E+00  0.12687357572E+03  0.12687357572E+03  0.00000000000E+00 0.  1.
         21   -1    0    0  501  503 -0.00000000000E+00 -0.00000000000E+00 -0.92985455021E+03  0.92985455021E+03  0.00000000000E+00 0. -1.
          6    2    1    2  501    0 -0.59289356291E+02 -0.14660417813E+03 -0.78960463942E+03  0.82340909230E+03  0.17181104118E+03 0.  0.
         24    2    3    3    0    0 -0.11294795563E+03 -0.10839167862E+03 -0.56067907264E+03  0.58514779555E+03  0.59421574114E+02 0.  0.
         -6    2    1    2    0  502  0.59289356291E+02  0.14660417813E+03 -0.13376335070E+02  0.23331903363E+03  0.17102874700E+03 0.  0.
        -24    2    5    5    0    0  0.17790870905E+02  0.96333060487E+02 -0.72085546054E+02  0.14546591182E+03  0.79796189892E+02 0.  0.
          5    1    3    3  501    0  0.53658599334E+02 -0.38212499513E+02 -0.22892556679E+03  0.23826129675E+03  0.47000000000E+01 0. -1.
        -11    1    4    4    0    0 -0.11563121058E+02 -0.27943537497E+02 -0.50993715087E+02  0.59286642971E+02  0.00000000000E+00 0.  1.
         12    1    4    4    0    0 -0.10138483457E+03 -0.80448141119E+02 -0.50968535755E+03  0.52586115258E+03  0.00000000000E+00 0. -1.
         -5    1    5    5    0  502  0.41498485386E+02  0.50271117642E+02  0.58709210983E+02  0.87853121815E+02  0.47000000000E+01 0.  1.
         13    1    6    6    0    0  0.40614680101E+02  0.90267580072E+02 -0.42789798303E+02  0.10783670567E+03  0.00000000000E+00 0. -1.
        -14    1    6    6    0    0 -0.22823809197E+02  0.60654804154E+01 -0.29295747750E+02  0.37629206146E+02  0.00000000000E+00 0.  1.
</event>
<event>
12    1  0.8358445E-002  0.2227215E+03  0.7818608E-02  0.1132431E+00
         21   -1    0    0  503  502  0.00000000000E+00  0.00000000000E+00  0.30313489854E+03  0.30313489854E+03  0.00000000000E+00 0. -1.
         21   -1    0    0  501  503 -0.00000000000E+00 -0.00000000000E+00 -0.16142800515E+03  0.16142800515E+03  0.00000000000E+00 0. -1.
          6    2    1    2  501    0  0.13450583694E+03 -0.29933600158E+02  0.68408724176E+02  0.23009011383E+03  0.17109607345E+03 0.  0.
         24    2    3    3    0    0  0.82482855248E+02 -0.39173824085E+01  0.10947984150E+03  0.15873073541E+03  0.79942750606E+02 0.  0.
         -6    2    1    2    0  502 -0.13450583694E+03  0.29933600158E+02  0.73298169210E+02  0.23447278986E+03  0.17497721848E+03 0.  0.
        -24    2    5    5    0    0 -0.92001412975E+02  0.82292630565E+02  0.73633393446E+02  0.16686882180E+03  0.84776117070E+02 0.  0.
          5    1    3    3  501    0  0.52022981695E+02 -0.26016217750E+02 -0.41071117323E+02  0.71359378421E+02  0.47000000000E+01 0. -1.
        -11    1    4    4    0    0 -0.10935857424E+01 -0.12395490697E+01  0.63077799920E+02  0.63099455263E+02  0.00000000000E+00 0.  1.
         12    1    4    4    0    0  0.83576440990E+02 -0.26778333388E+01  0.46402041579E+02  0.95631280148E+02  0.00000000000E+00 0. -1.
         -5    1    5    5    0  502 -0.42504423968E+02 -0.52359030406E+02 -0.33522423526E+00  0.67603968058E+02  0.47000000000E+01 0.  1.
         13    1    6    6    0    0 -0.10511834551E+03  0.85075549089E+02  0.72426508487E+02  0.15340571941E+03  0.00000000000E+00 0. -1.
        -14    1    6    6    0    0  0.13116932539E+02 -0.27829185246E+01  0.12068849583E+01  0.13463102393E+02  0.00000000000E+00 0.  1.
</event>
<event>
12    1  0.8358445E-002  0.1804982E+03  0.7818608E-02  0.1167491E+00
         21   -1    0    0  501  502  0.00000000000E+00  0.00000000000E+00  0.25000956850E+03  0.25000956850E+03  0.00000000000E+00 0.  1.
         21   -1    0    0  502  503 -0.00000000000E+00 -0.00000000000E+00 -0.14312669093E+03  0.14312669093E+03  0.00000000000E+00 0.  1.
         -6    2    1    2    0  503 -0.38412192040E+02  0.40316376914E+02 -0.66188317999E+01  0.17991752681E+03  0.17095496709E+03 0.  0.
        -24    2    3    3    0    0 -0.63718980580E+02  0.63985389729E+02  0.33786421917E+02  0.12648223658E+03  0.81865714924E+02 0.  0.
          6    2    1    2  501    0  0.38412192040E+02 -0.40316376914E+02  0.11350170936E+03  0.21321873262E+03  0.17169357346E+03 0.  0.
         24    2    5    5    0    0  0.21560693734E+02  0.43130806417E+02  0.69805140359E+02  0.11741223209E+03  0.81164922516E+02 0.  0.
          5    1    5    5  501    0  0.16851498306E+02 -0.83447183331E+02  0.43696569006E+02  0.95806500530E+02  0.47000000000E+01 0. -1.
        -11    1    6    6    0    0  0.30310812115E+02 -0.34174821345E+01 -0.29000279870E+01  0.30640409226E+02  0.00000000000E+00 0.  1.
         12    1    6    6    0    0 -0.87501183806E+01  0.46548288551E+02  0.72705168346E+02  0.86771822863E+02  0.00000000000E+00 0. -1.
         -5    1    3    3    0  503  0.25306788540E+02 -0.23669012814E+02 -0.40405253717E+02  0.53435290228E+02  0.47000000000E+01 0.  1.
         13    1    4    4    0    0  0.68217830971E+01  0.11364533919E+02  0.36089586020E+02  0.38446684837E+02  0.00000000000E+00 0. -1.
        -14    1    4    4    0    0 -0.70540763677E+02  0.52620855810E+02 -0.23031641034E+01  0.88035551746E+02  0.00000000000E+00 0.  1.
</event>
<event>
12    1  0.8358445E-002  0.1768220E+03  0.7818608E-02  0.1171095E+00
         21   -1    0    0  501  502  0.00000000000E+00  0.00000000000E+00  0.18022189547E+03  0.18022189547E+03  0.00000000000E+00 0. -1.
         21   -1    0    0  502  503 -0.00000000000E+00 -0.00000000000E+00 -0.18498097431E+03  0.18498097431E+03  0.00000000000E+00 0. -1.
         -6    2    1    2    0  503 -0.39602991466E+02  0.74800724551E+00 -0.49288444046E+02  0.18356295641E+03  0.17232832559E+03 0.  0.
        -24    2    3    3    0    0  0.12429341342E+02 -0.49153989788E+02 -0.59023259504E+02  0.11066282199E+03  0.78688701672E+02 0.  0.
          6    2    1    2  501    0  0.39602991466E+02 -0.74800724551E+00  0.44529365213E+02  0.18163991338E+03  0.17158449032E+03 0.  0.
         24    2    5    5    0    0 -0.10310538102E+01  0.47628070253E+02  0.68104992921E+02  0.11404353232E+03  0.78090595181E+02 0.  0.
          5    1    5    5  501    0  0.40634045277E+02 -0.48376077498E+02 -0.23575627708E+02  0.67596381053E+02  0.47000000000E+01 0. -1.
        -11    1    6    6    0    0  0.17203015620E+02  0.18448032068E+02 -0.11197340822E+02  0.27598081004E+02  0.00000000000E+00 0.  1.
         12    1    6    6    0    0 -0.18234069430E+02  0.29180038185E+02  0.79302333743E+02  0.86445451318E+02  0.00000000000E+00 0. -1.
         -5    1    3    3    0  503 -0.52032332809E+02  0.49901997034E+02  0.97348154583E+01  0.72900134414E+02  0.47000000000E+01 0.  1.
         11    1    4    4    0    0 -0.20005832862E+02  0.10438256531E+02 -0.28268276056E+02  0.36170236094E+02  0.00000000000E+00 0. -1.
        -12    1    4    4    0    0  0.32435174205E+02 -0.59592246320E+02 -0.30754983449E+02  0.74492585900E+02  0.00000000000E+00 0.  1.
</event>
<event>
12    1  0.8358445E-002  0.1794368E+03  0.7818608E-02  0.1168543E+00
         21   -1    0    0  503  502  0.00000000000E+00  0.00000000000E+00  0.97190586211E+03  0.97190586211E+03  0.00000000000E+00 0. -1.
         21   -1    0    0  501  503 -0.00000000000E+00 -0.00000000000E+00 -0.10158158845E+03  0.10158158845E+03  0.00000000000E+00 0. -1.
          6    2    1    2  501    0 -0.31980233725E+02  0.38477296412E+02 -0.62355808331E+01  0.17875020752E+03  0.17149203052E+03 0.  0.
         24    2    3    3    0    0  0.35257625683E+02  0.11446483877E+02 -0.40187728684E+02  0.98585172074E+02  0.82035726693E+02 0.  0.
         -6    2    1    2    0  502  0.31980233725E+02 -0.38477296412E+02  0.87655985449E+03  0.89473724304E+03  0.17232039309E+03 0.  0.
        -24    2    5    5    0    0  0.53181124896E+02 -0.32585498273E+02  0.86231022979E+03  0.86810393915E+03  0.78329241174E+02 0.  0.
          5    1    3    3  501    0 -0.67237859407E+02  0.27030812535E+02  0.33952147851E+02  0.80165035444E+02  0.47000000000E+01 0. -1.
        -13    1    4    4    0    0  0.12383938122E+02 -0.68930115172E+01  0.24082631494E+02  0.27943669602E+02  0.00000000000E+00 0.  1.
         14    1    4    4    0    0  0.22873687561E+02  0.18339495394E+02 -0.64270360178E+02  0.70641502471E+02  0.00000000000E+00 0. -1.
         -5    1    5    5    0  502 -0.21200891172E+02 -0.58917981393E+01  0.14249624708E+02  0.26633303890E+02  0.47000000000E+01 0.  1.
         11    1    6    6    0    0  0.55249575896E+01  0.21589565544E+02  0.35369084715E+03  0.35439222601E+03  0.00000000000E+00 0. -1.
        -12    1    6    6    0    0  0.47656167307E+02 -0.54175063817E+02  0.50861938263E+03  0.51371171314E+03  0.00000000000E+00 0.  1.
</event>
<event>
12    1  0.8358445E-002  0.1818764E+03  0.7818608E-02  0.1166255E+00
         21   -1    0    0  503  502  0.00000000000E+00  0.00000000000E+00  0.59997094812E+03  0.59997094812E+03  0.00000000000E+00 0.  1.
         21   -1    0    0  501  503 -0.00000000000E+00 -0.00000000000E+00 -0.55500480040E+02  0.55500480040E+02  0.00000000000E+00 0.  1.
          6    2    1    2  501    0 -0.34849826428E+02 -0.42564325746E+02  0.23651562165E+03  0.29835996799E+03  0.17335743130E+03 0.  0.
         24    2    3    3    0    0 -0.53979064734E+02  0.36008709305E+02  0.13114433428E+03  0.16545079676E+03  0.77231879167E+02 0.  0.
         -6    2    1    2    0  502  0.34849826428E+02  0.42564325746E+02  0.30795484643E+03  0.35711146017E+03  0.17223871607E+03 0.  0.
        -24    2    5    5    0    0  0.80690501851E+02  0.10328433899E+01  0.23848918568E+03  0.26397822457E+03  0.79343478024E+02 0.  0.
          5    1    3    3  501    0  0.19129238306E+02 -0.78573035051E+02  0.10537128737E+03  0.13290917123E+03  0.47000000000E+01 0. -1.
        -13    1    4    4    0    0 -0.14568345235E+02  0.49964633037E+02  0.41603089574E+02  0.66629710336E+02  0.00000000000E+00 0.  1.
         14    1    4    4    0    0 -0.39410719498E+02 -0.13955923732E+02  0.89541244706E+02  0.98821086424E+02  0.00000000000E+00 0. -1.
         -5    1    5    5    0  502 -0.45840675423E+02  0.41531482356E+02  0.69465660752E+02  0.93133235602E+02  0.47000000000E+01 0.  1.
         13    1    6    6    0    0  0.29421874907E+02  0.34711333375E+02  0.14657147109E+03  0.15347221092E+03  0.00000000000E+00 0. -1.
        -14    1    6    6    0    0  0.51268626944E+02 -0.33678489985E+02  0.91917714590E+02  0.11050601365E+03  0.00000000000E+00 0.  1.
</event>
<event>
12    1  0.8358445E-002  0.3689672E+03  0.7818608E-02  0.1055169E+00
         21   -1    0    0  501  502  0.00000000000E+00  0.00000000000E+00  0.14045199324E+03  0.14045199324E+03  0.00000000000E+00 0. -1.
         21   -1    0    0  502  503 -0.00000000000E+00 -0.00000000000E+00 -0.19720344829E+04  0.19720344829E+04  0.00000000000E+00 0.  1.
         -6    2    1    2    0  503  0.23883327295E+03 -0.22240377897E+03 -0.16703177894E+04  0.17105841951E+04  0.17213947142E+03 0.  0.
        -24    2    3    3    0    0  0.15911686000E+03 -0.66762920468E+02 -0.99665671176E+03  0.10145812347E+04  0.79215011059E+02 0.  0.
          6    2    1    2  501    0 -0.23883327295E+03  0.22240377897E+03 -0.16126470029E+03  0.40190228113E+03  0.17033604095E+03 0.  0.
         24    2    5    5    0    0 -0.37852937139E+02  0.78903923308E+02 -0.73702927425E+02  0.13984416157E+03  0.80408917736E+02 0.  0.
          5    1    5    5  501    0 -0.20098033581E+03  0.14349985566E+03 -0.87561772870E+02  0.26205811956E+03  0.47000000000E+01 0. -1.
        -13    1    6    6    0    0 -0.15895130888E+02 -0.37258929096E+01  0.10846743349E+02  0.19600747568E+02  0.00000000000E+00 0.  1.
         14    1    6    6    0    0 -0.21957806251E+02  0.82629816218E+02 -0.84549670774E+02  0.12024341400E+03  0.00000000000E+00 0. -1.
         -5    1    3    3    0  503  0.79716412947E+02 -0.15564085850E+03 -0.67366107764E+03  0.69600296038E+03  0.47000000000E+01 0.  1.
         13    1    4    4    0    0  0.10638654923E+02 -0.35448850227E+02 -0.15523904002E+03  0.15958997934E+03  0.00000000000E+00 0. -1.
        -14    1    4    4    0    0  0.14847820508E+03 -0.31314070241E+02 -0.84141767175E+03  0.85499125534E+03  0.00000000000E+00 0.  1.
</event>
<event>
12    1  0.8358445E-002  0.1868868E+03  0.7818608E-02  0.1161347E+00
         21   -1    0    0  503  502  0.00000000000E+00  0.00000000000E+00  0.57029921438E+03  0.57029921438E+03  0.00000000000E+00 0. -1.
         21   -1    0    0  501  503 -0.00000000000E+00 -0.00000000000E+00 -0.61304610623E+02  0.61304610623E+02  0.00000000000E+00 0.  1.
          6    2    1    2  501    0  0.57894406603E+02 -0.47265848875E+02  0.23988431132E+03  0.30396525679E+03  0.17106890931E+03 0.  0.
         24    2    3    3    0    0  0.83710462600E+02 -0.48564670268E+02  0.99785471598E+02  0.16142427821E+03  0.82065147938E+02 0.  0.
         -6    2    1    2    0  502 -0.57894406603E+02  0.47265848875E+02  0.26911029243E+03  0.32763856821E+03  0.17129173680E+03 0.  0.
        -24    2    5    5    0    0 -0.65683021439E+02  0.45591599076E+02  0.28620617543E+03  0.30820085103E+03  0.81736995965E+02 0.  0.
          5    1    3    3  501    0 -0.25816055998E+02  0.12988213932E+01  0.14009883972E+03  0.14254097859E+03  0.47000000000E+01 0. -1.
        -11    1    4    4    0    0 -0.14022019221E+02 -0.83762797783E+01  0.37013515394E+00  0.16337566710E+02  0.00000000000E+00 0.  1.
         12    1    4    4    0    0  0.97732481821E+02 -0.40188390490E+02  0.99415336444E+02  0.14508671150E+03  0.00000000000E+00 0. -1.
         -5    1    5    5    0  502  0.77886148361E+01  0.16742497984E+01 -0.17095882999E+02  0.19437717175E+02  0.47000000000E+01 0.  1.
         13    1    6    6    0    0  0.15544221691E+02  0.25197897240E+01  0.91914173517E+02  0.93253350940E+02  0.00000000000E+00 0. -1.
        -14    1    6    6    0    0 -0.81227243130E+02  0.43071809352E+02  0.19429200191E+03  0.21494750009E+03  0.00000000000E+00 0.  1.
</event>
<event>
12    1  0.8358445E-002  0.2108088E+03  0.7818608E-02  0.1141036E+00
         21   -1    0    0  503  502  0.00000000000E+00  0.00000000000E+00  0.24580448776E+03  0.24580448776E+03  0.00000000000E+00 0.  1.
         21   -1    0    0  501  503 -0.00000000000E+00 -0.00000000000E+00 -0.22519293414E+03  0.22519293414E+03  0.00000000000E+00 0.  1.
          6    2    1    2  501    0  0.10477817235E+03 -0.60130133694E+02 -0.94803839316E+02  0.23114523535E+03  0.17276068273E+03 0.  0.
         24    2    3    3    0    0  0.93040152818E+02 -0.21725108571E+02 -0.12842196882E+03  0.17856200904E+03  0.79143784459E+02 0.  0.
         -6    2    1    2    0  502 -0.10477817235E+03  0.60130133694E+02  0.11541539294E+03  0.23985218656E+03  0.17208794290E+03 0.  0.
        -24    2    5    5    0    0 -0.13109485712E+03  0.27270952947E+02  0.12043357541E+03  0.19719581760E+03  0.80326695152E+02 0.  0.
          5    1    3    3  501    0  0.11738019527E+02 -0.38405025122E+02  0.33618129507E+02  0.52583226305E+02  0.47000000000E+01 0. -1.
        -13    1    4    4    0    0  0.24913353945E+02 -0.11739018961E+02  0.54002198232E+01  0.28064962945E+02  0.00000000000E+00 0.  1.
         14    1    4    4    0    0  0.68126798873E+02 -0.99860896101E+01 -0.13382218865E+03  0.15049704610E+03  0.00000000000E+00 0. -1.
         -5    1    5    5    0  502  0.26316684779E+02  0.32859180747E+02 -0.50181824711E+01  0.42656368955E+02  0.47000000000E+01 0.  1.
         13    1    6    6    0    0 -0.47531724020E+02 -0.17765243177E+02  0.78378528051E+02  0.93370564488E+02  0.00000000000E+00 0. -1.
        -14    1    6    6    0    0 -0.83563133105E+02  0.45036196124E+02  0.42055047361E+02  0.10382525311E+03  0.00000000000E+00 0.  1.
</event>
<event>
12    1  0.8358445E-002  0.1839603E+03  0.7818608E-02  0.1164222E+00
         21   -1    0    0  501  502  0.00000000000E+00  0.00000000000E+00  0.30428818317E+03  0.30428818317E+03  0.00000000000E+00 0. -1.
         21   -1    0    0  502  503 -0.00000000000E+00 -0.00000000000E+00 -0.13519499426E+03  0.13519499426E+03  0.00000000000E+00 0. -1.
         -6    2    1    2    0  503 -0.30062344592E+02  0.54754181512E+02  0.17790398851E+03  0.25531203759E+03  0.17214134441E+03 0.  0.
        -24    2    3    3    0    0  0.13606261441E+02  0.46060687291E+02  0.18791140665E+03  0.20943434788E+03  0.79027413339E+02 0.  0.
          6    2    1    2  501    0  0.30062344592E+02 -0.54754181512E+02 -0.88107995962E+01  0.18417113984E+03  0.17303067244E+03 0.  0.
         24    2    5    5    0    0 -0.47785401006E+02 -0.31222114600E+02 -0.16583246984E+02  0.10233880756E+03  0.83306437103E+02 0.  0.
          5    1    5    5  501    0  0.77847745598E+02 -0.23532066912E+02  0.77724473882E+01  0.81832332279E+02  0.47000000000E+01 0. -1.
        -11    1    6    6    0    0 -0.38767578462E+02 -0.13847854213E+02  0.30575222796E+02  0.51278966986E+02  0.00000000000E+00 0.  1.
         12    1    6    6    0    0 -0.90178225443E+01 -0.17374260388E+02 -0.47158469781E+02  0.51059840575E+02  0.00000000000E+00 0. -1.
         -5    1    3    3    0  503 -0.43668606034E+02  0.86934942210E+01 -0.10007418143E+02  0.45877689704E+02  0.47000000000E+01 0.  1.
         13    1    4    4    0    0 -0.23385032446E+02  0.25091971618E+02  0.14508456408E+03  0.14908386069E+03  0.00000000000E+00 0. -1.
        -14    1    4    4    0    0  0.36991293888E+02  0.20968715673E+02  0.42826842573E+02  0.60350487199E+02  0.00000000000E+00 0.  1.
</event>
<event>
12    1  0.8358445E-002  0.2324677E+03  0.7818608E-02  0.1124923E+00
         21   -1    0    0  501  502  0.00000000000E+00  0.00000000000E+00  0.20815472213E+03  0.20815472213E+03  0.00000000000E+00 0. -1.
         21   -1    0    0  502  503 -0.00000000000E+00 -0.00000000000E+00 -0.41966729165E+03  0.41966729165E+03  0.00000000000E+00 0. -1.
         -6    2    1    2    0  503  0.15630288538E+03  0.99234269679E+01 -0.29963574639E+03  0.37921205465E+03  0.17172983288E+03 0.  0.
        -24    2    3    3    0    0  0.16751331009E+03 -0.17997659779E+02 -0.19982957280E+03  0.27486348977E+03  0.85049720922E+02 0.  0.
          6    2    1    2  501    0 -0.15630288538E+03 -0.99234269679E+01  0.88123176868E+02  0.24860995913E+03  0.17179100995E+03 0.  0.
         24    2    5    5    0    0 -0.29901592446E+02  0.16563288016E+02 -0.19615154356E+02  0.80358745346E+02  0.70030892701E+02 0.  0.
          5    1    5    5  501    0 -0.12640129293E+03 -0.26486714983E+02  0.10773833122E+03  0.16825121379E+03  0.47000000000E+01 0. -1.
        -11    1    6    6    0    0 -0.78515513071E+01 -0.27423937439E+02 -0.99698070704E+01  0.30217813547E+02  0.00000000000E+00 0.  1.
         12    1    6    6    0    0 -0.22050041139E+02  0.43987225454E+02 -0.96453472860E+01  0.50140931799E+02  0.00000000000E+00 0. -1.
         -5    1    3    3    0  503 -0.11210424708E+02  0.27921086747E+02 -0.99806173589E+02  0.10434856489E+03  0.47000000000E+01 0.  1.
         11    1    4    4    0    0  0.17754340669E+02 -0.21491940997E+02 -0.74516858399E+02  0.79560557602E+02  0.00000000000E+00 0. -1.
        -12    1    4    4    0    0  0.14975896942E+03  0.34942812180E+01 -0.12531271440E+03  0.19530293217E+03  0.00000000000E+00 0.  1.
</event>
<event>
12    1  0.8358445E-002  0.1790407E+03  0.7818608E-02  0.1168802E+00
         21   -1    0    0  503  502  0.00000000000E+00  0.00000000000E+00  0.14436453159E+04  0.14436453159E+04  0.00000000000E+00 0. -1.
         21   -1    0    0  501  503 -0.00000000000E+00 -0.00000000000E+00 -0.23003056747E+02  0.23003056747E+02  0.00000000000E+00 0. -1.
          6    2    1    2  501    0  0.22771773534E+02 -0.42766462609E+02  0.57132362672E+03  0.59872051112E+03  0.17236020421E+03 0.  0.
         24    2    3    3    0    0 -0.28991621605E+02  0.28117582856E+01  0.45947498281E+03  0.46723274576E+03  0.79628881505E+02 0.  0.
         -6    2    1    2    0  502 -0.22771773534E+02  0.42766462609E+02  0.84931863247E+03  0.86792786156E+03  0.17207297703E+03 0.  0.
        -24    2    5    5    0    0 -0.78354629265E+02  0.48221130174E+02  0.61357415856E+03  0.62561245919E+03  0.80330415879E+02 0.  0.
          5    1    3    3  501    0  0.51763395139E+02 -0.45578220894E+02  0.11184864390E+03  0.13148776536E+03  0.47000000000E+01 0. -1.
        -11    1    4    4    0    0 -0.10560587061E+02 -0.13193366469E+02  0.42303426725E+03  0.42337168326E+03  0.00000000000E+00 0.  1.
         12    1    4    4    0    0 -0.18431034544E+02  0.16005124754E+02  0.36440715560E+02  0.43861062496E+02  0.00000000000E+00 0. -1.
         -5    1    5    5    0  502  0.55582855731E+02 -0.54546675653E+01  0.23574447390E+03  0.24231540237E+03  0.47000000000E+01 0.  1.
         11    1    6    6    0    0 -0.46166606111E+02  0.47118347965E+02  0.55378957456E+03  0.55770456975E+03  0.00000000000E+00 0. -1.
        -12    1    6    6    0    0 -0.32188023154E+02  0.11027822090E+01  0.59784584007E+02  0.67907889439E+02  0.00000000000E+00 0.  1.
</event>
<event>
12    1  0.8358445E-002  0.3011048E+03  0.7818608E-02  0.1084702E+00
         21   -1    0    0  501  502  0.00000000000E+00  0.00000000000E+00  0.10600271249E+03  0.10600271249E+03  0.00000000000E+00 0. -1.
         21   -1    0    0  502  503 -0.00000000000E+00 -0.00000000000E+00 -0.96789535547E+03  0.96789535547E+03  0.00000000000E+00 0.  1.
         -6    2    1    2    0  503 -0.12709566522E+03  0.21199720744E+03 -0.61425646835E+03  0.68404199031E+03  0.17177401291E+03 0.  0.
        -24    2    3    3    0    0 -0.47746057725E+01  0.10121396301E+03 -0.19466224620E+03  0.23313538125E+03  0.78687055641E+02 0.  0.
          6    2    1    2  501    0  0.12709566522E+03 -0.21199720744E+03 -0.24763617463E+03  0.38985607765E+03  0.17195337220E+03 0.  0.
         24    2    5    5    0    0  0.11838000350E+03 -0.15292823336E+03 -0.25462842465E+03  0.32955609408E+03  0.79816757127E+02 0.  0.
          5    1    5    5  501    0  0.87156617204E+01 -0.59068974078E+02  0.69922500172E+01  0.60299983567E+02  0.47000000000E+01 0. -1.
        -13    1    6    6    0    0  0.94374900533E+02 -0.13572836913E+03 -0.15860644249E+03  0.22909564735E+03  0.00000000000E+00 0.  1.
         14    1    6    6    0    0  0.24005102971E+02 -0.17199864226E+02 -0.96021982164E+02  0.10046044673E+03  0.00000000000E+00 0. -1.
         -5    1    3    3    0  503 -0.12232105945E+03  0.11078324443E+03 -0.41959422215E+03  0.45090660906E+03  0.47000000000E+01 0.  1.
         13    1    4    4    0    0 -0.18327512216E+02  0.10397516931E+03 -0.19190739577E+03  0.21903237681E+03  0.00000000000E+00 0. -1.
        -14    1    4    4    0    0  0.13552906443E+02 -0.27612063091E+01 -0.27548504304E+01  0.14103004440E+02  0.00000000000E+00 0.  1.
</event>
<event>
12    1  0.8358445E-002  0.1817881E+03  0.7818608E-02  0.1167926E+00
         21   -1    0    0  501  502  0.00000000000E+00  0.00000000000E+00  0.69711494524E+03  0.69711494524E+03  0.00000000000E+00 0.  1.
         21   -1    0    0  502  503 -0.00000000000E+00 -0.00000000000E+00 -0.86295593922E+02  0.86295593922E+02  0.00000000000E+00 0.  1.
         -6    2    1    2    0  503  0.18093611622E+02 -0.56025649234E+02  0.32580030959E+02  0.17726893928E+03  0.16400172640E+03 0.  0.
        -24    2    3    3    0    0  0.18965221373E+02  0.28457594483E+02  0.24686674959E+02  0.92283215532E+02  0.82080726378E+02 0.  0.
          6    2    1    2  501    0 -0.18093611622E+02  0.56025649234E+02  0.57823932036E+03  0.60614159988E+03  0.17199033503E+03 0.  0.
         24    2    5    5    0    0 -0.13317750533E+02  0.97758927340E+02  0.31766922913E+03  0.34216558242E+03  0.80183391693E+02 0.  0.
          5    1    5    5  501    0 -0.47758610889E+01 -0.41733278105E+02  0.26057009123E+03  0.26397601746E+03  0.47000000000E+01 0. -1.
        -13    1    6    6    0    0  0.16806892288E+02  0.91932311466E+02  0.26752286838E+03  0.28337696912E+03  0.00000000000E+00 0.  1.
         14    1    6    6    0    0 -0.30124642821E+02  0.58266158731E+01  0.50146360748E+02  0.58788613302E+02  0.00000000000E+00 0. -1.
         -5    1    3    3    0  503 -0.87160975135E+00 -0.84483243718E+02  0.78933559998E+01  0.84985723751E+02  0.47000000000E+01 0.  1.
         13    1    4    4    0    0 -0.29319901842E+02  0.12504156784E+02  0.26420724853E+02  0.41401271511E+02  0.00000000000E+00 0. -1.
        -14    1    4    4    0    0  0.48285123215E+02  0.15953437699E+02 -0.17340498940E+01  0.50881944021E+02  0.00000000000E+00 0.  1.
</event>
<event>
12    1  0.8358445E-002  0.1901934E+03  0.7818608E-02  0.1158440E+00
         21   -1    0    0  501  502  0.00000000000E+00  0.00000000000E+00  0.75027487759E+03  0.75027487759E+03  0.00000000000E+00 0.  1.
         21   -1    0    0  502  503 -0.00000000000E+00 -0.00000000000E+00 -0.12097993009E+03  0.12097993009E+03  0.00000000000E+00 0. -1.
         -6    2    1    2    0  503  0.28352239619E+02  0.74940730041E+02 -0.23377042825E+02  0.19162464011E+03  0.17249218549E+03 0.  0.
        -24    2    3    3    0    0  0.56642580262E+02  0.95522231347E+02 -0.54488619350E+02  0.14457188500E+03  0.74827412843E+02 0.  0.
          6    2    1    2  501    0 -0.28352239619E+02 -0.74940730041E+02  0.65267199032E+03  0.67963016757E+03  0.17174537899E+03 0.  0.
         24    2    5    5    0    0 -0.44646650077E+02 -0.63788616130E+02  0.32890417714E+03  0.35522677007E+03  0.10929679557E+03 0.  0.
          5    1    5    5  501    0  0.16294410458E+02 -0.11152113910E+02  0.32376781318E+03  0.32440339750E+03  0.47000000000E+01 0. -1.
        -13    1    6    6    0    0  0.31639708756E+02  0.35196447046E+01  0.64580844985E+02  0.72001004215E+02  0.00000000000E+00 0.  1.
         14    1    6    6    0    0 -0.76286358834E+02 -0.67308260835E+02  0.26432333215E+03  0.28322576585E+03  0.00000000000E+00 0. -1.
         -5    1    3    3    0  503 -0.28290340643E+02 -0.20581501307E+02  0.31111576526E+02  0.47052755112E+02  0.47000000000E+01 0.  1.
         11    1    4    4    0    0  0.42829881849E+02  0.62414082527E+01 -0.13275306469E+02  0.45272372569E+02  0.00000000000E+00 0. -1.
        -12    1    4    4    0    0  0.13812698413E+02  0.89280823095E+02 -0.41213312881E+02  0.99299512429E+02  0.00000000000E+00 0.  1.
</event>
<event>
12    1  0.8358445E-002  0.1766613E+03  0.7818608E-02  0.1171506E+00
         21   -1    0    0  503  502  0.00000000000E+00  0.00000000000E+00  0.36275176698E+03  0.36275176698E+03  0.00000000000E+00 0.  1.
         21   -1    0    0  501  503 -0.00000000000E+00 -0.00000000000E+00 -0.49638786637E+03  0.49638786637E+03  0.00000000000E+00 0.  1.
          6    2    1    2  501    0  0.29840318140E+02 -0.20562932393E+02 -0.45773391016E+03  0.49002095073E+03  0.17113421888E+03 0.  0.
         24    2    3    3    0    0 -0.17282548170E+02 -0.30625455230E+02 -0.41800705704E+03  0.42739402558E+03  0.81848325500E+02 0.  0.
         -6    2    1    2    0  502 -0.29840318140E+02  0.20562932393E+02  0.32409781077E+03  0.36911868261E+03  0.17290440172E+03 0.  0.
        -24    2    5    5    0    0 -0.10606854526E+02 -0.28014090985E+02  0.29870819591E+03  0.31084024865E+03  0.80608803602E+02 0.  0.
          5    1    3    3  501    0  0.47122866311E+02  0.10062522836E+02 -0.39726853121E+02  0.62626925152E+02  0.47000000000E+01 0. -1.
        -13    1    4    4    0    0  0.92446944874E+01 -0.53195899720E+02 -0.26975846957E+03  0.27510888758E+03  0.00000000000E+00 0.  1.
         14    1    4    4    0    0 -0.26527242657E+02  0.22570444491E+02 -0.14824858747E+03  0.15228513800E+03  0.00000000000E+00 0. -1.
         -5    1    5    5    0  502 -0.19233463615E+02  0.48577023379E+02  0.25389614855E+02  0.58278433965E+02  0.47000000000E+01 0.  1.
         11    1    6    6    0    0  0.26741418915E+02 -0.33095739420E+01  0.39643537328E+02  0.47933983948E+02  0.00000000000E+00 0. -1.
        -12    1    6    6    0    0 -0.37348273441E+02 -0.24704517043E+02  0.25906465858E+03  0.26290626470E+03  0.00000000000E+00 0.  1.
</event>
<event>
12    1  0.8358445E-002  0.2340678E+03  0.7818608E-02  0.1124183E+00
         21   -1    0    0  503  502  0.00000000000E+00  0.00000000000E+00  0.17188409213E+03  0.17188409213E+03  0.00000000000E+00 0.  1.
         21   -1    0    0  501  503 -0.00000000000E+00 -0.00000000000E+00 -0.31769441701E+03  0.31769441701E+03  0.00000000000E+00 0. -1.
          6    2    1    2  501    0 -0.15792826738E+03 -0.51476525610E+01 -0.92097555158E+02  0.25153469349E+03  0.17268441272E+03 0.  0.
         24    2    3    3    0    0 -0.18335382853E+02 -0.36375589945E+02 -0.36173955082E+02  0.97876317437E+02  0.81313274935E+02 0.  0.
         -6    2    1    2    0  502  0.15792826738E+03  0.51476525610E+01 -0.53712769730E+02  0.23804381565E+03  0.16974086301E+03 0.  0.
        -24    2    5    5    0    0  0.19432873202E+02  0.73319774550E+01 -0.57803073186E+02  0.99391134228E+02  0.78140948542E+02 0.  0.
          5    1    3    3  501    0 -0.13959288453E+03  0.31227937384E+02 -0.55923600076E+02  0.15365837605E+03  0.47000000000E+01 0. -1.
        -11    1    4    4    0    0 -0.25634610880E+02 -0.50671198838E+02  0.16257858077E+01  0.56809742528E+02  0.00000000000E+00 0.  1.
         12    1    4    4    0    0  0.72992280275E+01  0.14295608893E+02 -0.37799740890E+02  0.41066574909E+02  0.00000000000E+00 0. -1.
         -5    1    5    5    0  502  0.13849539418E+03 -0.21843248940E+01  0.40903034560E+01  0.13865268143E+03  0.47000000000E+01 0.  1.
         13    1    6    6    0    0  0.19426160238E+01 -0.34979827927E+02 -0.26534599055E+02  0.43948231658E+02  0.00000000000E+00 0. -1.
        -14    1    6    6    0    0  0.17490257178E+02  0.42311805382E+02 -0.31268474131E+02  0.55442902570E+02  0.00000000000E+00 0.  1.
</event>
<event>
12    1  0.8358445E-002  0.1785346E+03  0.7818608E-02  0.1169660E+00
         21   -1    0    0  501  502  0.00000000000E+00  0.00000000000E+00  0.65836367886E+03  0.65836367886E+03  0.00000000000E+00 0.  1.
         21   -1    0    0  502  503 -0.00000000000E+00 -0.00000000000E+00 -0.51359803572E+02  0.51359803572E+02  0.00000000000E+00 0. -1.
         -6    2    1    2    0  503  0.58015493528E+02  0.17101498092E+02  0.21053348952E+03  0.27490931370E+03  0.16610996907E+03 0.  0.
        -24    2    3    3    0    0  0.60787264604E+02  0.13559506994E+02  0.45900841617E+02  0.11014819216E+03  0.78401436262E+02 0.  0.
          6    2    1    2  501    0 -0.58015493528E+02 -0.17101498092E+02  0.39647038577E+03  0.43481416873E+03  0.16797718836E+03 0.  0.
         24    2    5    5    0    0  0.41247613325E+01 -0.61936397666E+02  0.21142778385E+03  0.23447836559E+03  0.80157751557E+02 0.  0.
          5    1    5    5  501    0 -0.62140254861E+02  0.44834899574E+02  0.18504260191E+03  0.20033580313E+03  0.47000000000E+01 0. -1.
        -11    1    6    6    0    0 -0.33906862877E+02 -0.16142895974E+02  0.11676059119E+03  0.12265114796E+03  0.00000000000E+00 0.  1.
         12    1    6    6    0    0  0.38031624209E+02 -0.45793501692E+02  0.94667192658E+02  0.11182721763E+03  0.00000000000E+00 0. -1.
         -5    1    3    3    0  503 -0.27717710756E+01  0.35419910975E+01  0.16463264790E+03  0.16476112154E+03  0.47000000000E+01 0.  1.
         11    1    4    4    0    0  0.18151909266E+02 -0.32435673586E+02  0.13401871861E+02  0.39511705865E+02  0.00000000000E+00 0. -1.
        -12    1    4    4    0    0  0.42635355338E+02  0.45995180581E+02  0.32498969756E+02  0.70636486299E+02  0.00000000000E+00 0.  1.
</event>
<event>
12    1  0.8358445E-002  0.2929367E+03  0.7818608E-02  0.1088902E+00
         21   -1    0    0  503  502  0.00000000000E+00  0.00000000000E+00  0.88390404762E+03  0.88390404762E+03  0.00000000000E+00 0. -1.
         21   -1    0    0  501  503 -0.00000000000E+00 -0.00000000000E+00 -0.11685290903E+03  0.11685290903E+03  0.00000000000E+00 0.  1.
          6    2    1    2  501    0  0.17470165043E+03  0.15996772174E+03  0.17701001924E+03  0.34226370352E+03  0.17234139717E+03 0.  0.
         24    2    3    3    0    0  0.16419374996E+03  0.18256391251E+03  0.18369772078E+03  0.31603739685E+03  0.76456614588E+02 0.  0.
         -6    2    1    2    0  502 -0.17470165043E+03 -0.15996772174E+03  0.59004111934E+03  0.65849325313E+03  0.17133155938E+03 0.  0.
        -24    2    5    5    0    0 -0.29366811073E+02 -0.86711457874E+02  0.33245597030E+03  0.35376239691E+03  0.78990978962E+02 0.  0.
          5    1    3    3  501    0  0.10507900472E+02 -0.22596190772E+02 -0.66877015368E+01  0.26226306671E+02  0.47000000000E+01 0. -1.
        -13    1    4    4    0    0  0.50846289218E+01  0.27399376079E+02  0.25934593061E+00  0.27868378516E+02  0.00000000000E+00 0.  1.
         14    1    4    4    0    0  0.15910912104E+03  0.15516453643E+03  0.18343837485E+03  0.28816901834E+03  0.00000000000E+00 0. -1.
         -5    1    5    5    0  502 -0.14533483936E+03 -0.73256263865E+02  0.25758514904E+03  0.30473085622E+03  0.47000000000E+01 0.  1.
         13    1    6    6    0    0 -0.26849317069E+02 -0.10197323658E+03  0.28983102849E+03  0.30841765819E+03  0.00000000000E+00 0. -1.
        -14    1    6    6    0    0 -0.25174940039E+01  0.15261778704E+02  0.42624941811E+02  0.45344738721E+02  0.00000000000E+00 0.  1.
</event>
<event>
12    1  0.8358445E-002  0.1902026E+03  0.7818608E-02  0.1159033E+00
         21   -1    0    0  503  502  0.00000000000E+00  0.00000000000E+00  0.17065445650E+03  0.17065445650E+03  0.00000000000E+00 0.  1.
         21   -1    0    0  501  503 -0.00000000000E+00 -0.00000000000E+00 -0.22225745833E+03  0.22225745833E+03  0.00000000000E+00 0.  1.
          6    2    1    2  501    0 -0.75620857926E+02  0.18567432555E+02 -0.74805848497E+02  0.20129925574E+03  0.16988882155E+03 0.  0.
         24    2    3    3    0    0 -0.76129561468E+02  0.40587751497E+02 -0.10849405221E+03  0.16077595016E+03  0.81454717999E+02 0.  0.
         -6    2    1    2    0  502  0.75620857926E+02 -0.18567432555E+02  0.23202846662E+02  0.19161265909E+03  0.17353321101E+03 0.  0.
        -24    2    5    5    0    0 -0.16817625545E+01 -0.70634544043E+02 -0.20247237890E+02  0.88672486757E+02  0.49606371848E+02 0.  0.
          5    1    3    3  501    0  0.50870354214E+00 -0.22020318942E+02  0.33688203714E+02  0.40523305579E+02  0.47000000000E+01 0. -1.
        -11    1    4    4    0    0 -0.73479824205E+02  0.17286521114E+02 -0.34206293209E+02  0.82874476605E+02  0.00000000000E+00 0.  1.
         12    1    4    4    0    0 -0.26497372639E+01  0.23301230382E+02 -0.74287759002E+02  0.77901473557E+02  0.00000000000E+00 0. -1.
         -5    1    5    5    0  502  0.77302620481E+02  0.52067111488E+02  0.43450084552E+02  0.10294017233E+03  0.47000000000E+01 0.  1.
         13    1    6    6    0    0 -0.40650011416E+01 -0.48095442015E+02 -0.36725787541E+02  0.60650467825E+02  0.00000000000E+00 0. -1.
        -14    1    6    6    0    0  0.23832385871E+01 -0.22539102028E+02  0.16478549651E+02  0.28022018931E+02  0.00000000000E+00 0.  1.
</event>
<event>
12    1  0.8358445E-002  0.2548900E+03  0.7818608E-02  0.1110291E+00
         21   -1    0    0  501  502  0.00000000000E+00  0.00000000000E+00  0.16480319616E+04  0.16480319616E+04  0.00000000000E+00 0.  1.
         21   -1    0    0  502  503 -0.00000000000E+00 -0.00000000000E+00 -0.40817444108E+02  0.40817444108E+02  0.00000000000E+00 0. -1.
         -6    2    1    2    0  503  0.17887973163E+03 -0.57361889798E+02  0.64496425852E+03  0.69341258958E+03  0.17191212824E+03 0.  0.
        -24    2    3    3    0    0  0.14043429692E+03  0.27365429374E+02  0.43256728168E+03  0.46148299718E+03  0.73358333029E+02 0.  0.
          6    2    1    2  501    0 -0.17887973163E+03  0.57361889798E+02  0.96225025895E+03  0.99543681610E+03  0.17228043769E+03 0.  0.
         24    2    5    5    0    0 -0.17130502742E+03 -0.77206253008E+01  0.69739228392E+03  0.72255415478E+03  0.79520364929E+02 0.  0.
          5    1    5    5  501    0 -0.75747042117E+01  0.65082515099E+02  0.26485797502E+03  0.27288266132E+03  0.47000000000E+01 0. -1.
        -13    1    6    6    0    0 -0.12535911891E+03 -0.33135452964E+02  0.57385163392E+03  0.58831842118E+03  0.00000000000E+00 0.  1.
         14    1    6    6    0    0 -0.45945908508E+02  0.25414827663E+02  0.12354065000E+03  0.13423573360E+03  0.00000000000E+00 0. -1.
         -5    1    3    3    0  503  0.38445434712E+02 -0.84727319172E+02  0.21239697683E+03  0.23192959240E+03  0.47000000000E+01 0.  1.
         11    1    4    4    0    0  0.13466007309E+03  0.11108899890E+02  0.31642087755E+03  0.34406237035E+03  0.00000000000E+00 0. -1.
        -12    1    4    4    0    0  0.57742238336E+01  0.16256529485E+02  0.11614640414E+03  0.11742062683E+03  0.00000000000E+00 0.  1.
</event>
<event>
12    1  0.8358445E-002  0.1795016E+03  0.7818608E-02  0.1168677E+00
         21   -1    0    0  503  502  0.00000000000E+00  0.00000000000E+00  0.75373685859E+02  0.75373685859E+02  0.00000000000E+00 0.  1.
         21   -1    0    0  501  503 -0.00000000000E+00 -0.00000000000E+00 -0.76071510872E+03  0.76071510872E+03  0.00000000000E+00 0.  1.
          6    2    1    2  501    0 -0.47938492351E+02 -0.12835522823E+02 -0.62007424257E+03  0.64508975250E+03  0.17083873328E+03 0.  0.
         24    2    3    3    0    0 -0.49838772428E+02 -0.15488964821E+02 -0.62801696755E+03  0.63530053910E+03  0.80483862808E+02 0.  0.
         -6    2    1    2    0  502  0.47938492351E+02  0.12835522823E+02 -0.65267180292E+02  0.19099904208E+03  0.17250501313E+03 0.  0.
        -24    2    5    5    0    0 -0.33708144020E+02  0.20260734234E+02 -0.63195123202E+02  0.10885471534E+03  0.79429145341E+02 0.  0.
          5    1    3    3  501    0  0.19002800768E+01  0.26534419981E+01  0.79427249872E+01  0.97892134020E+01  0.47000000000E+01 0. -1.
        -13    1    4    4    0    0 -0.49663622564E+02  0.20236438056E+02 -0.25509095314E+03  0.26066718859E+03  0.00000000000E+00 0.  1.
         14    1    4    4    0    0 -0.17514986376E+00 -0.35725402877E+02 -0.37292601441E+03  0.37463335051E+03  0.00000000000E+00 0. -1.
         -5    1    5    5    0  502  0.81646636371E+02 -0.74252114113E+01 -0.20720570907E+01  0.82144326742E+02  0.47000000000E+01 0.  1.
         13    1    6    6    0    0 -0.24865700049E+02 -0.28661387958E+02 -0.19474863515E+02  0.42650304894E+02  0.00000000000E+00 0. -1.
        -14    1    6    6    0    0 -0.88424439711E+01  0.48922122192E+02 -0.43720259686E+02  0.66204410443E+02  0.00000000000E+00 0.  1.
</event>
<event>
12    1  0.8358445E-002  0.1811475E+03  0.7818608E-02  0.1166863E+00
         21   -1    0    0  501  502  0.00000000000E+00  0.00000000000E+00  0.32221642449E+03  0.32221642449E+03  0.00000000000E+00 0. -1.
         21   -1    0    0  502  503 -0.00000000000E+00 -0.00000000000E+00 -0.11785144408E+03  0.11785144408E+03  0.00000000000E+00 0. -1.
         -6    2    1    2    0  503 -0.55655333436E+02 -0.13377064402E+02  0.20271562318E+02  0.18227826295E+03  0.17186613079E+03 0.  0.
        -24    2    3    3    0    0 -0.76036995841E+02  0.31789406035E+02  0.49511680929E+02  0.12455048150E+03  0.79178436596E+02 0.  0.
          6    2    1    2  501    0  0.55655333436E+02  0.13377064402E+02  0.18409341809E+03  0.25778960563E+03  0.17113921875E+03 0.  0.
         24    2    5    5    0    0  0.72722189513E+02  0.28635339087E+02  0.52232769710E+02  0.12387391158E+03  0.80672078474E+02 0.  0.
          5    1    5    5  501    0 -0.17066856077E+02 -0.15258274686E+02  0.13186064838E+03  0.13391569406E+03  0.47000000000E+01 0. -1.
        -11    1    6    6    0    0  0.54721286025E+02 -0.89843219771E+01  0.59727111494E+02  0.81501319211E+02  0.00000000000E+00 0.  1.
         12    1    6    6    0    0  0.18000903487E+02  0.37619661065E+02 -0.74943417843E+01  0.42372592365E+02  0.00000000000E+00 0. -1.
         -5    1    3    3    0  503  0.20381662405E+02 -0.45166470437E+02 -0.29240118611E+02  0.57727781444E+02  0.47000000000E+01 0.  1.
         13    1    4    4    0    0  0.14825196150E+02 -0.33805357404E+00  0.17634048907E+02  0.23040408025E+02  0.00000000000E+00 0. -1.
        -14    1    4    4    0    0 -0.90862191990E+02  0.32127459609E+02  0.31877632021E+02  0.10151007348E+03  0.00000000000E+00 0.  1.
</event>
<event>
12    1  0.8358445E-002  0.1845184E+03  0.7818608E-02  0.1163824E+00
         21   -1    0    0  503  502  0.00000000000E+00  0.00000000000E+00  0.16092205165E+03  0.16092205165E+03  0.00000000000E+00 0. -1.
         21   -1    0    0  501  503 -0.00000000000E+00 -0.00000000000E+00 -0.26436956135E+03  0.26436956135E+03  0.00000000000E+00 0. -1.
          6    2    1    2  501    0  0.60360847296E+02 -0.24068009153E+02 -0.14800258175E+03  0.23547009793E+03  0.17122704769E+03 0.  0.
         24    2    3    3    0    0  0.22039971415E+02  0.50709160778E+02 -0.96156357969E+02  0.13662559585E+03  0.79770476593E+02 0.  0.
         -6    2    1    2    0  502 -0.60360847296E+02  0.24068009153E+02  0.44555072049E+02  0.18982151507E+03  0.17269728483E+03 0.  0.
        -24    2    5    5    0    0 -0.17060470211E+02 -0.28482224319E+02  0.75916809764E+02  0.11470761298E+03  0.79323248332E+02 0.  0.
          5    1    3    3  501    0  0.38320875881E+02 -0.74777169930E+02 -0.51846223783E+02  0.98844502081E+02  0.47000000000E+01 0. -1.
        -11    1    4    4    0    0 -0.43195117315E+01  0.68047874083E+01 -0.83482977189E+02  0.83871155909E+02  0.00000000000E+00 0.  1.
         12    1    4    4    0    0  0.26359483147E+02  0.43904373369E+02 -0.12673380781E+02  0.52754439938E+02  0.00000000000E+00 0. -1.
         -5    1    5    5    0  502 -0.43300377085E+02  0.52550233471E+02 -0.31361737715E+02  0.75113902083E+02  0.47000000000E+01 0.  1.
         13    1    6    6    0    0 -0.37238908636E+02  0.10898038654E+02  0.20793414372E+02  0.44021240829E+02  0.00000000000E+00 0. -1.
        -14    1    6    6    0    0  0.20178438424E+02 -0.39380262973E+02  0.55123395392E+02  0.70686372156E+02  0.00000000000E+00 0.  1.
</event>
<event>
12    1  0.8358445E-002  0.2354869E+03  0.7818608E-02  0.1122905E+00
         21   -1    0    0  503  502  0.00000000000E+00  0.00000000000E+00  0.41273418502E+03  0.41273418502E+03  0.00000000000E+00 0. -1.
         21   -1    0    0  501  503 -0.00000000000E+00 -0.00000000000E+00 -0.21406913048E+03  0.21406913048E+03  0.00000000000E+00 0. -1.
          6    2    1    2  501    0 -0.57014757066E+02 -0.14978330996E+03 -0.92132193274E+02  0.25286840787E+03  0.17253512163E+03 0.  0.
         24    2    3    3    0    0 -0.56306588338E+02 -0.10683669028E+03  0.67746135239E+01  0.14493528007E+03  0.79848792986E+02 0.  0.
         -6    2    1    2    0  502  0.57014757066E+02  0.14978330996E+03  0.29079724781E+03  0.37393490763E+03  0.17198416596E+03 0.  0.
        -24    2    5    5    0    0  0.47588476589E+02  0.31136029193E+02  0.65052308439E+02  0.11869208276E+03  0.81375010031E+02 0.  0.
          5    1    3    3  501    0 -0.70816872768E+00 -0.42946619679E+02 -0.98906806798E+02  0.10793312780E+03  0.47000000000E+01 0. -1.
        -11    1    4    4    0    0 -0.44822339193E+02 -0.13828266810E+02 -0.13987759433E+02  0.48948140594E+02  0.00000000000E+00 0.  1.
         12    1    4    4    0    0 -0.11484249146E+02 -0.93008423468E+02  0.20762372957E+02  0.95987139479E+02  0.00000000000E+00 0. -1.
         -5    1    5    5    0  502  0.94262804769E+01  0.11864728076E+03  0.22574493937E+03  0.25524282487E+03  0.47000000000E+01 0.  1.
         13    1    6    6    0    0  0.51998462423E+02  0.49991829275E+02  0.67967732136E+02  0.99109210976E+02  0.00000000000E+00 0. -1.
        -14    1    6    6    0    0 -0.44099858337E+01 -0.18855800082E+02 -0.29154236974E+01  0.19582871779E+02  0.00000000000E+00 0.  1.
</event>
<event>
12    1  0.8358445E-002  0.1808384E+03  0.7818608E-02  0.1167110E+00
         21   -1    0    0  501  502  0.00000000000E+00  0.00000000000E+00  0.12221778609E+04  0.12221778609E+04  0.00000000000E+00 0.  1.
         21   -1    0    0  502  503 -0.00000000000E+00 -0.00000000000E+00 -0.30776861274E+02  0.30776861274E+02  0.00000000000E+00 0. -1.
         -6    2    1    2    0  503 -0.51533842312E+02  0.16276718112E+02  0.36799858572E+03  0.41003107424E+03  0.17257419938E+03 0.  0.
        -24    2    3    3    0    0 -0.30733984693E+02  0.60986675774E+02  0.12476179361E+03  0.16180166134E+03  0.77138317526E+02 0.  0.
          6    2    1    2  501    0  0.51533842312E+02 -0.16276718112E+02  0.82340241392E+03  0.84292364795E+03  0.17206996417E+03 0.  0.
         24    2    5    5    0    0  0.92721235872E+02  0.31861475534E+01  0.43457332169E+03  0.45140690822E+03  0.79415651745E+02 0.  0.
          5    1    5    5  501    0 -0.41187393560E+02 -0.19462865665E+02  0.38882909222E+03  0.39151673973E+03  0.47000000000E+01 0. -1.
        -11    1    6    6    0    0  0.31881184379E+02  0.85541853327E+01  0.31885874846E+03  0.32056276370E+03  0.00000000000E+00 0.  1.
         12    1    6    6    0    0  0.60840051493E+02 -0.53680377794E+01  0.11571457324E+03  0.13084414452E+03  0.00000000000E+00 0. -1.
         -5    1    3    3    0  503 -0.20799857619E+02 -0.44709957662E+02  0.24323679212E+03  0.24822941290E+03  0.47000000000E+01 0.  1.
         11    1    4    4    0    0 -0.13427698007E+01  0.16756449026E+02 -0.81439480507E+01  0.18679012408E+02  0.00000000000E+00 0. -1.
        -12    1    4    4    0    0 -0.29391214892E+02  0.44230226748E+02  0.13290574166E+03  0.14312264893E+03  0.00000000000E+00 0.  1.
</event>
<event>
12    1  0.8358445E-002  0.2101280E+03  0.7818608E-02  0.1141611E+00
         21   -1    0    0  501  502  0.00000000000E+00  0.00000000000E+00  0.29390151217E+02  0.29390151217E+02  0.00000000000E+00 0.  1.
         21   -1    0    0  502  503 -0.00000000000E+00 -0.00000000000E+00 -0.17812965831E+04  0.17812965831E+04  0.00000000000E+00 0. -1.
         -6    2    1    2    0  503 -0.60505153380E+02  0.10491478961E+03 -0.12363042703E+04  0.12539108827E+04  0.17081061530E+03 0.  0.
        -24    2    3    3    0    0 -0.79810096145E+02  0.10782222635E+03 -0.12072519723E+04  0.12185943141E+04  0.97567892076E+02 0.  0.
          6    2    1    2  501    0  0.60505153380E+02 -0.10491478961E+03 -0.51560216164E+03  0.55677585169E+03  0.17171421976E+03 0.  0.
         24    2    5    5    0    0 -0.30367332620E+02 -0.50596439055E+02 -0.28356257886E+03  0.30168224162E+03  0.84393508303E+02 0.  0.
          5    1    5    5  501    0  0.90872486000E+02 -0.54318350554E+02 -0.23203958279E+03  0.25509361007E+03  0.47000000000E+01 0. -1.
        -13    1    6    6    0    0 -0.43578197433E+02 -0.24966347154E+02 -0.25893882449E+03  0.26376446427E+03  0.00000000000E+00 0.  1.
         14    1    6    6    0    0  0.13210864813E+02 -0.25630091901E+02 -0.24623754362E+02  0.37917777346E+02  0.00000000000E+00 0. -1.
         -5    1    3    3    0  503  0.19304942764E+02 -0.29074367447E+01 -0.29052297923E+02  0.35316568607E+02  0.47000000000E+01 0.  1.
         11    1    4    4    0    0 -0.25265922874E+02  0.98289564657E+02 -0.95268213392E+03  0.95807225911E+03  0.00000000000E+00 0. -1.
        -12    1    4    4    0    0 -0.54544173270E+02  0.95326616964E+01 -0.25456983842E+03  0.26052205494E+03  0.00000000000E+00 0.  1.
</event>
<event>
12    1  0.8358445E-002  0.2126382E+03  0.7818608E-02  0.1139640E+00
         21   -1    0    0  501  502  0.00000000000E+00  0.00000000000E+00  0.41152163988E+02  0.41152163988E+02  0.00000000000E+00 0. -1.
         21   -1    0    0  502  503 -0.00000000000E+00 -0.00000000000E+00 -0.16869866883E+04  0.16869866883E+04  0.00000000000E+00 0.  1.
         -6    2    1    2    0  503 -0.36348030736E+02 -0.11727975157E+03 -0.13357796687E+04  0.13525983566E+04  0.17360665756E+03 0.  0.
        -24    2    3    3    0    0 -0.54771825217E+02 -0.10706598794E+03 -0.13135101706E+04  0.13215858153E+04  0.82565249691E+02 0.  0.
          6    2    1    2  501    0  0.36348030736E+02  0.11727975157E+03 -0.31005485558E+03  0.37554049564E+03  0.17268737918E+03 0.  0.
         24    2    5    5    0    0  0.10414820225E+02 -0.93019180737E+01 -0.11007520828E+03  0.13740314067E+03  0.81043676047E+02 0.  0.
          5    1    5    5  501    0  0.25933210510E+02  0.12658166965E+03 -0.19997964730E+03  0.23813735497E+03  0.47000000000E+01 0. -1.
        -13    1    6    6    0    0 -0.21235166482E+02  0.15888729040E+02 -0.81515458837E+01  0.27745841244E+02  0.00000000000E+00 0.  1.
         14    1    6    6    0    0  0.31649986707E+02 -0.25190647114E+02 -0.10192366240E+03  0.10965729943E+03  0.00000000000E+00 0. -1.
         -5    1    3    3    0  503  0.18423794481E+02 -0.10213763638E+02 -0.22269498127E+02  0.31012541295E+02  0.47000000000E+01 0.  1.
         13    1    4    4    0    0 -0.11118962473E+02  0.12567210567E+02 -0.98392578351E+02  0.99813153354E+02  0.00000000000E+00 0. -1.
        -14    1    4    4    0    0 -0.43652862744E+02 -0.11963319850E+03 -0.12151175922E+04  0.12217726620E+04  0.00000000000E+00 0.  1.
</event>
<event>
12    1  0.8358445E-002  0.2163515E+03  0.7818608E-02  0.1136890E+00
         21   -1    0    0  501  502  0.00000000000E+00  0.00000000000E+00  0.68137501212E+02  0.68137501212E+02  0.00000000000E+00 0.  1.
         21   -1    0    0  502  503 -0.00000000000E+00 -0.00000000000E+00 -0.95152364047E+03  0.95152364047E+03  0.00000000000E+00 0.  1.
         -6    2    1    2    0  503 -0.22713717637E+02  0.12852143888E+03 -0.71366533858E+03  0.74573869095E+03  0.17255232967E+03 0.  0.
        -24    2    3    3    0    0  0.17453351602E+02  0.14440388831E+03 -0.47941222778E+03  0.50749038442E+03  0.80952477946E+02 0.  0.
          6    2    1    2  501    0  0.22713717637E+02 -0.12852143888E+03 -0.16972080068E+03  0.27392245073E+03  0.17086452414E+03 0.  0.
         24    2    5    5    0    0  0.71722713882E+02 -0.10641354823E+03 -0.15672971738E+03  0.21841120153E+03  0.81677767543E+02 0.  0.
          5    1    5    5  501    0 -0.49008996246E+02 -0.22107890658E+02 -0.12991083300E+02  0.55511249199E+02  0.47000000000E+01 0. -1.
        -11    1    6    6    0    0  0.54203393899E+02 -0.10724741526E+03 -0.16047162765E+03  0.20047732857E+03  0.00000000000E+00 0.  1.
         12    1    6    6    0    0  0.17519319984E+02  0.83386703499E+00  0.37419102669E+01  0.17933872961E+02  0.00000000000E+00 0. -1.
         -5    1    3    3    0  503 -0.40167069238E+02 -0.15882449424E+02 -0.23425311079E+03  0.23824830653E+03  0.47000000000E+01 0.  1.
         11    1    4    4    0    0  0.49308706993E+01 -0.15737621650E-01  0.15408854623E+01  0.51660489288E+01  0.00000000000E+00 0. -1.
        -12    1    4    4    0    0  0.12522480902E+02  0.14441962593E+03 -0.48095311325E+03  0.50232433549E+03  0.00000000000E+00 0.  1.
</event>
<event>
12    1  0.8358445E-002  0.1784622E+03  0.7818608E-02  0.1170435E+00
         21   -1    0    0  501  502  0.00000000000E+00  0.00000000000E+00  0.16796799200E+03  0.16796799200E+03  0.00000000000E+00 0.  1.
         21   -1    0    0  502  503 -0.00000000000E+00 -0.00000000000E+00 -0.21573042014E+03  0.21573042014E+03  0.00000000000E+00 0.  1.
         -6    2    1    2    0  503  0.15707067006E+02  0.25732915526E+02 -0.96275994741E+02  0.19875968255E+03  0.17125258932E+03 0.  0.
        -24    2    3    3    0    0  0.43693692913E+02  0.22362966284E+02 -0.12657316883E+03  0.15711095454E+03  0.79081248779E+02 0.  0.
          6    2    1    2  501    0 -0.15707067006E+02 -0.25732915526E+02  0.48513566598E+02  0.18493872959E+03  0.17589733557E+03 0.  0.
         24    2    5    5    0    0 -0.10262704493E+02 -0.82179670253E+02  0.57981752037E+02  0.12725325708E+03  0.77283158338E+02 0.  0.
          5    1    5    5  501    0 -0.54443625127E+01  0.56446754728E+02 -0.94681854392E+01  0.57685472504E+02  0.47000000000E+01 0. -1.
        -11    1    6    6    0    0 -0.18996496276E+02 -0.75321887719E+02  0.10376964599E+02  0.78370498496E+02  0.00000000000E+00 0.  1.
         12    1    6    6    0    0  0.87337917825E+01 -0.68577825347E+01  0.47604787437E+02  0.48882758588E+02  0.00000000000E+00 0. -1.
         -5    1    3    3    0  503 -0.27986625907E+02  0.33699492414E+01  0.30297174084E+02  0.41648728013E+02  0.47000000000E+01 0.  1.
         13    1    4    4    0    0  0.94494256171E+01 -0.26468635017E+02 -0.18421775478E+02  0.33604197594E+02  0.00000000000E+00 0. -1.
        -14    1    4    4    0    0  0.34244267296E+02  0.48831601302E+02 -0.10815139335E+03  0.12350675695E+03  0.00000000000E+00 0.  1.
</event>
<event>
12    1  0.8358445E-002  0.2492304E+03  0.7818608E-02  0.1113825E+00
         21   -1    0    0  503  502  0.00000000000E+00  0.00000000000E+00  0.12133218547E+03  0.12133218547E+03  0.00000000000E+00 0. -1.
         21   -1    0    0  501  503 -0.00000000000E+00 -0.00000000000E+00 -0.76087697450E+03  0.76087697450E+03  0.00000000000E+00 0.  1.
          6    2    1    2  501    0 -0.16368240023E+03 -0.75021055826E+02 -0.57237911659E+03  0.62428650403E+03  0.17232440058E+03 0.  0.
         24    2    3    3    0    0 -0.23081249299E+02 -0.14943727926E+02 -0.12424663570E+03  0.15076482617E+03  0.80850153081E+02 0.  0.
         -6    2    1    2    0  502  0.16368240023E+03  0.75021055826E+02 -0.67165672441E+02  0.25792265594E+03  0.17202552697E+03 0.  0.
        -24    2    5    5    0    0  0.12405421998E+03  0.89486220560E+02 -0.10775717872E+03  0.19919111379E+03  0.68324644770E+02 0.  0.
          5    1    3    3  501    0 -0.14060115093E+03 -0.60077327900E+02 -0.44813248089E+03  0.47352167786E+03  0.47000000000E+01 0. -1.
        -13    1    4    4    0    0 -0.51571885979E+02 -0.49102271816E+01 -0.97548842482E+02  0.11045155691E+03  0.00000000000E+00 0.  1.
         14    1    4    4    0    0  0.28490636679E+02 -0.10033500745E+02 -0.26697793221E+02  0.40313269261E+02  0.00000000000E+00 0. -1.
         -5    1    5    5    0  502  0.39628180250E+02 -0.14465164734E+02  0.40591506279E+02  0.58731542145E+02  0.47000000000E+01 0.  1.
         13    1    6    6    0    0  0.50631482221E+02  0.65928567067E+02 -0.26686281618E+02  0.87305673207E+02  0.00000000000E+00 0. -1.
        -14    1    6    6    0    0  0.73422737760E+02  0.23557653493E+02 -0.81070897101E+02  0.11188544059E+03  0.00000000000E+00 0.  1.
</event>
<event>
12    1  0.8358445E-002  0.1938755E+03  0.7818608E-02  0.1155490E+00
         21   -1    0    0  501  502  0.00000000000E+00  0.00000000000E+00  0.60723164940E+02  0.60723164940E+02  0.00000000000E+00 0.  1.
         21   -1    0    0  502  503 -0.00000000000E+00 -0.00000000000E+00 -0.73927740375E+03  0.73927740375E+03  0.00000000000E+00 0.  1.
         -6    2    1    2    0  503  0.73134494159E+02  0.50375038404E+02 -0.50360043336E+03  0.53885592063E+03  0.16989999408E+03 0.  0.
        -24    2    3    3    0    0  0.49815981321E+02  0.49602592618E+02 -0.14954999732E+03  0.18400644413E+03  0.80938993033E+02 0.  0.
          6    2    1    2  501    0 -0.73134494159E+02 -0.50375038404E+02 -0.17495380546E+03  0.26114464807E+03  0.17234092503E+03 0.  0.
         24    2    5    5    0    0 -0.68800822565E+02 -0.59566282446E+02 -0.20001987041E+03  0.23369182875E+03  0.79512433477E+02 0.  0.
          5    1    5    5  501    0 -0.43336715947E+01  0.91912440420E+01  0.25066064947E+02  0.27452819317E+02  0.47000000000E+01 0. -1.
        -11    1    6    6    0    0 -0.34133097192E+02  0.15310309931E+02 -0.76351426781E+02  0.85023610166E+02  0.00000000000E+00 0.  1.
         12    1    6    6    0    0 -0.34667725373E+02 -0.74876592377E+02 -0.12366844362E+03  0.14866821858E+03  0.00000000000E+00 0. -1.
         -5    1    3    3    0  503  0.23318512839E+02  0.77244578602E+00 -0.35405043604E+03  0.35484947650E+03  0.47000000000E+01 0.  1.
         13    1    4    4    0    0 -0.63643071906E+01  0.45230364958E+02 -0.39576832947E+02  0.60436876378E+02  0.00000000000E+00 0. -1.
        -14    1    4    4    0    0  0.56180288511E+02  0.43722276600E+01 -0.10997316437E+03  0.12356956775E+03  0.00000000000E+00 0.  1.
</event>
<event>
12    1  0.8358445E-002  0.2445689E+03  0.7818608E-02  0.1117098E+00
         21   -1    0    0  501  502  0.00000000000E+00  0.00000000000E+00  0.27814284795E+03  0.27814284795E+03  0.00000000000E+00 0.  1.
         21   -1    0    0  502  503 -0.00000000000E+00 -0.00000000000E+00 -0.23499546412E+03  0.23499546412E+03  0.00000000000E+00 0. -1.
         -6    2    1    2    0  503 -0.86677005821E+02 -0.14930738107E+03 -0.56178651898E+02  0.25093825966E+03  0.17322924652E+03 0.  0.
        -24    2    3    3    0    0 -0.11301908454E+03 -0.16125129332E+03 -0.61314708564E+02  0.22118878522E+03  0.79935550008E+02 0.  0.
          6    2    1    2  501    0  0.86677005821E+02  0.14930738107E+03  0.99326035728E+02  0.26220005242E+03  0.17052157850E+03 0.  0.
         24    2    5    5    0    0  0.10396779356E+02  0.83877797528E+01  0.47019385018E+02  0.93573000333E+02  0.79791202232E+02 0.  0.
          5    1    5    5  501    0  0.76280226466E+02  0.14091960132E+03  0.52306650709E+02  0.16862705208E+03  0.47000000000E+01 0. -1.
        -11    1    6    6    0    0  0.43039431895E+02 -0.17211795819E+01  0.39800518397E+02  0.58646708532E+02  0.00000000000E+00 0.  1.
         12    1    6    6    0    0 -0.32642652540E+02  0.10108959335E+02  0.72188666218E+01  0.34926291801E+02  0.00000000000E+00 0. -1.
         -5    1    3    3    0  503  0.26342078717E+02  0.11943912248E+02  0.51360566664E+01  0.29749474432E+02  0.47000000000E+01 0.  1.
         13    1    4    4    0    0 -0.77866622934E+02 -0.66810315999E+02 -0.63009389017E+02  0.12040353980E+03  0.00000000000E+00 0. -1.
        -14    1    4    4    0    0 -0.35152461604E+02 -0.94440977321E+02  0.16946804525E+01  0.10078524543E+03  0.00000000000E+00 0.  1.
</event>
<event>
12    1  0.8358445E-002  0.2215912E+03  0.7818608E-02  0.1132942E+00
         21   -1    0    0  501  502  0.00000000000E+00  0.00000000000E+00  0.30504172986E+03  0.30504172986E+03  0.00000000000E+00 0. -1.
         21   -1    0    0  502  503 -0.00000000000E+00 -0.00000000000E+00 -0.19145208789E+03  0.19145208789E+03  0.00000000000E+00 0. -1.
         -6    2    1    2    0  503 -0.13557714627E+03 -0.33076750954E+02 -0.43911065065E+02  0.22463145511E+03  0.17045783920E+03 0.  0.
        -24    2    3    3    0    0 -0.30730918299E+02  0.38238994309E+02 -0.29509694353E+02  0.96928062358E+02  0.78215197924E+02 0.  0.
          6    2    1    2  501    0  0.13557714627E+03  0.33076750954E+02  0.15750070704E+03  0.27186236264E+03  0.17212622537E+03 0.  0.
         24    2    5    5    0    0  0.66434097261E+02 -0.40209571135E+02  0.43991371704E+02  0.12001340664E+03  0.80235142540E+02 0.  0.
          5    1    5    5  501    0  0.69143049005E+02  0.73286322089E+02  0.11350933533E+03  0.15184895600E+03  0.47000000000E+01 0. -1.
        -13    1    6    6    0    0  0.70518221550E+02 -0.11729095876E+01  0.17520584889E+02  0.72671632583E+02  0.00000000000E+00 0.  1.
         14    1    6    6    0    0 -0.40841242884E+01 -0.39036661547E+02  0.26470786816E+02  0.47341774054E+02  0.00000000000E+00 0. -1.
         -5    1    3    3    0  503 -0.10484622797E+03 -0.71315745263E+02 -0.14401370712E+02  0.12770339275E+03  0.47000000000E+01 0.  1.
         11    1    4    4    0    0 -0.56049199952E+02  0.36452195108E+02 -0.19515976890E+02  0.69650188064E+02  0.00000000000E+00 0. -1.
        -12    1    4    4    0    0  0.25318281653E+02  0.17867992015E+01 -0.99937174628E+01  0.27277874293E+02  0.00000000000E+00 0.  1.
</event>
<event>
12    1  0.8358445E-002  0.2236377E+03  0.7818608E-02  0.1131441E+00
         21   -1    0    0  503  502  0.00000000000E+00  0.00000000000E+00  0.10736830939E+03  0.10736830939E+03  0.00000000000E+00 0.  1.
         21   -1    0    0  501  503 -0.00000000000E+00 -0.00000000000E+00 -0.77961734078E+03  0.77961734078E+03  0.00000000000E+00 0. -1.
          6    2    1    2  501    0 -0.43218069448E+02 -0.13275939277E+03 -0.61930877848E+03  0.65845057866E+03  0.17470244288E+03 0.  0.
         24    2    3    3    0    0 -0.38129210030E+02 -0.15951015128E+03 -0.59283120151E+03  0.62017981105E+03  0.79226507787E+02 0.  0.
         -6    2    1    2    0  502  0.43218069448E+02  0.13275939277E+03 -0.52940252916E+02  0.22853507151E+03  0.17301083965E+03 0.  0.
        -24    2    5    5    0    0  0.70390059929E+02  0.10422639452E+03  0.15394712922E+02  0.14951477910E+03  0.79371091300E+02 0.  0.
          5    1    3    3  501    0 -0.50888594189E+01  0.26750758516E+02 -0.26477576971E+02  0.38270767613E+02  0.47000000000E+01 0. -1.
        -11    1    4    4    0    0  0.24540226979E+02 -0.35010308981E+02 -0.13946358665E+03  0.14586993000E+03  0.00000000000E+00 0.  1.
         12    1    4    4    0    0 -0.62669437008E+02 -0.12449984230E+03 -0.45336761485E+03  0.47430988105E+03  0.00000000000E+00 0. -1.
         -5    1    5    5    0  502 -0.27171990481E+02  0.28532998249E+02 -0.68334965838E+02  0.79020292405E+02  0.47000000000E+01 0.  1.
         13    1    6    6    0    0 -0.11510396526E+02  0.45142234615E+02  0.13521449375E+02  0.48509176116E+02  0.00000000000E+00 0. -1.
        -14    1    6    6    0    0  0.81900456455E+02  0.59084159901E+02  0.18732635467E+01  0.10100560299E+03  0.00000000000E+00 0.  1.
</event>
<event>
12    1  0.8358445E-002  0.1791969E+03  0.7818608E-02  0.1168843E+00
         21   -1    0    0  503  502  0.00000000000E+00  0.00000000000E+00  0.52099746991E+03  0.52099746991E+03  0.00000000000E+00 0. -1.
         21   -1    0    0  501  503 -0.00000000000E+00 -0.00000000000E+00 -0.99837048561E+02  0.99837048561E+02  0.00000000000E+00 0. -1.
          6    2    1    2  501    0 -0.64789447887E+00  0.48508706186E+02  0.18029124657E+02  0.18010158995E+03  0.17250512753E+03 0.  0.
         24    2    3    3    0    0  0.15463886014E+02  0.34416727111E+02  0.76811290149E+02  0.11736717894E+03  0.80320841151E+02 0.  0.
         -6    2    1    2    0  502  0.64789447887E+00 -0.48508706186E+02  0.40313129669E+03  0.44073292851E+03  0.17139765915E+03 0.  0.
        -24    2    5    5    0    0 -0.12709133613E+02 -0.45072929685E+02  0.41292715930E+03  0.42317548895E+03  0.79847132036E+02 0.  0.
          5    1    3    3  501    0 -0.16111780493E+02  0.14091979074E+02 -0.58782165492E+02  0.62734411010E+02  0.47000000000E+01 0. -1.
        -11    1    4    4    0    0 -0.30867995031E+02  0.56570709523E+01  0.14519717836E+02  0.34578284733E+02  0.00000000000E+00 0.  1.
         12    1    4    4    0    0  0.46331881045E+02  0.28759656159E+02  0.62291572313E+02  0.82788894211E+02  0.00000000000E+00 0. -1.
         -5    1    5    5    0  502  0.13357028092E+02 -0.34357765005E+01 -0.97958626112E+01  0.17557439560E+02  0.47000000000E+01 0.  1.
         11    1    6    6    0    0 -0.40550365976E+02 -0.45589551515E+02  0.22213979228E+03  0.23036672221E+03  0.00000000000E+00 0. -1.
        -12    1    6    6    0    0  0.27841232363E+02  0.51662183008E+00  0.19078736702E+03  0.19280876674E+03  0.00000000000E+00 0.  1.
</event>
<event>
12    1  0.8358445E-002  0.2344651E+03  0.7818608E-02  0.1123553E+00
         21   -1    0    0  501  502  0.00000000000E+00  0.00000000000E+00  0.97261934448E+03  0.97261934448E+03  0.00000000000E+00 0. -1.
         21   -1    0    0  502  503 -0.00000000000E+00 -0.00000000000E+00 -0.61171409024E+02  0.61171409024E+02  0.00000000000E+00 0. -1.
         -6    2    1    2    0  503  0.12525276358E+03 -0.97343986732E+02  0.31293737796E+03  0.39102900224E+03  0.17265506518E+03 0.  0.
        -24    2    3    3    0    0  0.89183734727E+02 -0.29492412467E+02  0.28137676015E+03  0.30782459389E+03  0.82216534333E+02 0.  0.
          6    2    1    2  501    0 -0.12525276358E+03  0.97343986732E+02  0.59851055750E+03  0.64276175126E+03  0.17252152014E+03 0.  0.
         24    2    5    5    0    0 -0.58945032947E+02 -0.57991732656E+01  0.16004690589E+03  0.18745120847E+03  0.77555116866E+02 0.  0.
          5    1    5    5  501    0 -0.66307730635E+02  0.10314316000E+03  0.43846365161E+03  0.45531054279E+03  0.47000000000E+01 0. -1.
        -13    1    6    6    0    0 -0.63602122201E+02  0.22000558403E+02  0.93694701697E+02  0.11536009555E+03  0.00000000000E+00 0.  1.
         14    1    6    6    0    0  0.46570892541E+01 -0.27799731669E+02  0.66352204192E+02  0.72091112922E+02  0.00000000000E+00 0. -1.
         -5    1    3    3    0  503  0.36069028855E+02 -0.67851574265E+02  0.31560617806E+02  0.83204408351E+02  0.47000000000E+01 0.  1.
         13    1    4    4    0    0  0.55368712623E+02  0.11612521009E+02  0.70808377027E+02  0.90633168536E+02  0.00000000000E+00 0. -1.
        -14    1    4    4    0    0  0.33815022104E+02 -0.41104933476E+02  0.21056838312E+03  0.21719142535E+03  0.00000000000E+00 0.  1.
</event>
<event>
12    1  0.8358445E-002  0.2065016E+03  0.7818608E-02  0.1144483E+00
         21   -1    0    0  501  502  0.00000000000E+00  0.00000000000E+00  0.44280362667E+02  0.44280362667E+02  0.00000000000E+00 0. -1.
         21   -1    0    0  502  503 -0.00000000000E+00 -0.00000000000E+00 -0.10067382608E+04  0.10067382608E+04  0.00000000000E+00 0. -1.
         -6    2    1    2    0  503  0.86858294677E+02 -0.73092301744E+02 -0.59467144803E+03  0.62950538552E+03  0.17249942424E+03 0.  0.
        -24    2    3    3    0    0  0.11631650317E+03 -0.94284191597E+02 -0.49709822090E+03  0.52529642767E+03  0.80066584838E+02 0.  0.
          6    2    1    2  501    0 -0.86858294677E+02  0.73092301744E+02 -0.36778645014E+03  0.42151323799E+03  0.17181294760E+03 0.  0.
         24    2    5    5    0    0 -0.81632937622E+02  0.74890873004E+02 -0.13844303557E+03  0.19205511322E+03  0.73797784875E+02 0.  0.
          5    1    5    5  501    0 -0.52253570554E+01 -0.17985712595E+01 -0.22934341457E+03  0.22945812477E+03  0.47000000000E+01 0. -1.
        -13    1    6    6    0    0  0.32998715354E+01 -0.11277665545E+02 -0.16666162306E+02  0.20392053803E+02  0.00000000000E+00 0.  1.
         14    1    6    6    0    0 -0.84932809157E+02  0.86168538548E+02 -0.12177687326E+03  0.17166305942E+03  0.00000000000E+00 0. -1.
         -5    1    3    3    0  503 -0.29458208488E+02  0.21191889853E+02 -0.97573227135E+02  0.10420895785E+03  0.47000000000E+01 0.  1.
         11    1    4    4    0    0  0.70141256307E+02 -0.97689346664E+02 -0.40065367291E+03  0.41831372187E+03  0.00000000000E+00 0. -1.
        -12    1    4    4    0    0  0.46175246858E+02  0.34051550674E+01 -0.96444547986E+02  0.10698270580E+03  0.00000000000E+00 0.  1.
</event>
<event>
12    1  0.8358445E-002  0.3609850E+03  0.7818608E-02  0.1058208E+00
         21   -1    0    0  503  502  0.00000000000E+00  0.00000000000E+00  0.57779244881E+03  0.57779244881E+03  0.00000000000E+00 0. -1.
         21   -1    0    0  501  503 -0.00000000000E+00 -0.00000000000E+00 -0.24473954030E+03  0.24473954030E+03  0.00000000000E+00 0. -1.
          6    2    1    2  501    0 -0.26375237592E+02  0.31649023969E+03  0.51082040827E+02  0.36458137445E+03  0.17160559060E+03 0.  0.
         24    2    3    3    0    0  0.92735408281E+01  0.88407071467E+02  0.56861371784E+02  0.13360895685E+03  0.81953211673E+02 0.  0.
         -6    2    1    2    0  502  0.26375237592E+02 -0.31649023969E+03  0.28197086768E+03  0.45795061465E+03  0.17131687092E+03 0.  0.
        -24    2    5    5    0    0  0.54187630789E+02 -0.23013273902E+03  0.26833314089E+03  0.36608536155E+03  0.78220461097E+02 0.  0.
          5    1    3    3  501    0 -0.35648778420E+02  0.22808316822E+03 -0.57793309568E+01  0.23097241761E+03  0.47000000000E+01 0. -1.
        -11    1    4    4    0    0 -0.19922068476E+02  0.50163302333E+02  0.65343702499E+02  0.84752847560E+02  0.00000000000E+00 0.  1.
         12    1    4    4    0    0  0.29195609304E+02  0.38243769135E+02 -0.84823307144E+01  0.48856109287E+02  0.00000000000E+00 0. -1.
         -5    1    5    5    0  502 -0.27812393197E+02 -0.86357500665E+02  0.13637726790E+02  0.91865253107E+02  0.47000000000E+01 0.  1.
         11    1    6    6    0    0  0.23506763123E+02 -0.18833866182E+03  0.16945407488E+03  0.25443801395E+03  0.00000000000E+00 0. -1.
        -12    1    6    6    0    0  0.30680867666E+02 -0.41794077209E+02  0.98879066010E+02  0.11164734760E+03  0.00000000000E+00 0.  1.
</event>
<event>
12    1  0.8358445E-002  0.2201297E+03  0.7818608E-02  0.1133791E+00
         21   -1    0    0  501  502  0.00000000000E+00  0.00000000000E+00  0.63107005483E+02  0.63107005483E+02  0.00000000000E+00 0.  1.
         21   -1    0    0  502  503 -0.00000000000E+00 -0.00000000000E+00 -0.82144026820E+03  0.82144026820E+03  0.00000000000E+00 0.  1.
         -6    2    1    2    0  503 -0.27503265980E+02 -0.13426763866E+03 -0.49220148565E+03  0.53917325098E+03  0.17222445721E+03 0.  0.
        -24    2    3    3    0    0  0.20084770653E+02 -0.10380887464E+03 -0.18852734690E+03  0.23025185308E+03  0.79332684627E+02 0.  0.
          6    2    1    2  501    0  0.27503265980E+02  0.13426763866E+03 -0.26613177707E+03  0.34537402271E+03  0.17225813294E+03 0.  0.
         24    2    5    5    0    0 -0.48399253555E+02  0.91279643426E+02 -0.13159547261E+03  0.18496433652E+03  0.78866826509E+02 0.  0.
          5    1    5    5  501    0  0.75902519536E+02  0.42987995231E+02 -0.13453630446E+03  0.16040968619E+03  0.47000000000E+01 0. -1.
        -13    1    6    6    0    0 -0.44558302167E+02  0.68577639106E+01 -0.39108169091E+02  0.59681823929E+02  0.00000000000E+00 0.  1.
         14    1    6    6    0    0 -0.38409513885E+01  0.84421879516E+02 -0.92487303517E+02  0.12528251259E+03  0.00000000000E+00 0. -1.
         -5    1    3    3    0  503 -0.47588036633E+02 -0.30458764022E+02 -0.30367413874E+03  0.30892139790E+03  0.47000000000E+01 0.  1.
         13    1    4    4    0    0  0.25030726607E+02 -0.49692700929E+02 -0.31172560942E+02  0.63777977044E+02  0.00000000000E+00 0. -1.
        -14    1    4    4    0    0 -0.49459559540E+01 -0.54116173706E+02 -0.15735478596E+03  0.16647387603E+03  0.00000000000E+00 0.  1.
</event>
<event>
12    1  0.8358445E-002  0.2231377E+03  0.7818608E-02  0.1133936E+00
         21   -1    0    0  501  502  0.00000000000E+00  0.00000000000E+00  0.85882686461E+03  0.85882686461E+03  0.00000000000E+00 0. -1.
         21   -1    0    0  502  503 -0.00000000000E+00 -0.00000000000E+00 -0.60428572627E+02  0.60428572627E+02  0.00000000000E+00 0. -1.
         -6    2    1    2    0  503  0.14097022968E+03  0.70343239075E+01  0.24796308932E+03  0.32531156510E+03  0.15626846564E+03 0.  0.
        -24    2    3    3    0    0  0.11524666729E+03 -0.48662820471E+02  0.18784275760E+03  0.23928588382E+03  0.79517093716E+02 0.  0.
          6    2    1    2  501    0 -0.14097022968E+03 -0.70343239075E+01  0.55043520267E+03  0.59394387215E+03  0.17282454556E+03 0.  0.
         24    2    5    5    0    0 -0.54318917915E+02 -0.66100958022E+02  0.24467894027E+03  0.27066953185E+03  0.77937989222E+02 0.  0.
          5    1    5    5  501    0 -0.86651311769E+02  0.59066634114E+02  0.30575626240E+03  0.32327434030E+03  0.47000000000E+01 0. -1.
        -13    1    6    6    0    0 -0.33923856122E+02 -0.21198537913E+02  0.28960262625E+02  0.49385249166E+02  0.00000000000E+00 0.  1.
         14    1    6    6    0    0 -0.20395061793E+02 -0.44902420109E+02  0.21571867765E+03  0.22128428268E+03  0.00000000000E+00 0. -1.
         -5    1    3    3    0  503  0.25723562393E+02  0.55697144378E+02  0.60120331717E+02  0.86025681281E+02  0.47000000000E+01 0.  1.
         11    1    4    4    0    0  0.12362824078E+03 -0.54496263428E+02  0.18421474023E+03  0.22844880206E+03  0.00000000000E+00 0. -1.
        -12    1    4    4    0    0 -0.83815734889E+01  0.58334429575E+01  0.36280173698E+01  0.10837081753E+02  0.00000000000E+00 0.  1.
</event>
<event>
12    1  0.8358445E-002  0.2436483E+03  0.7818608E-02  0.1117535E+00
         21   -1    0    0  501  502  0.00000000000E+00  0.00000000000E+00  0.16770338188E+04  0.16770338188E+04  0.00000000000E+00 0.  1.
         21   -1    0    0  502  503 -0.00000000000E+00 -0.00000000000E+00 -0.66384070716E+02  0.66384070716E+02  0.00000000000E+00 0. -1.
         -6    2    1    2    0  503 -0.16673610932E+03 -0.37047837870E+02  0.20770763564E+03  0.31947579532E+03  0.17247854779E+03 0.  0.
        -24    2    3    3    0    0 -0.95854400573E+01 -0.16241741325E+02  0.50662048953E+02  0.96283876104E+02  0.79676011265E+02 0.  0.
          6    2    1    2  501    0  0.16673610932E+03  0.37047837870E+02  0.14029421124E+04  0.14239420942E+04  0.17375570298E+03 0.  0.
         24    2    5    5    0    0  0.91881146384E+02 -0.45660442700E+02  0.82153368313E+03  0.83191018895E+03  0.81424498021E+02 0.  0.
          5    1    5    5  501    0  0.74854962939E+02  0.82708280570E+02  0.58140842932E+03  0.59203190525E+03  0.47000000000E+01 0. -1.
        -13    1    6    6    0    0  0.65435326305E+02  0.53609894038E+01  0.57656096326E+03  0.58028705525E+03  0.00000000000E+00 0.  1.
         14    1    6    6    0    0  0.26445820080E+02 -0.51021432104E+02  0.24497271986E+03  0.25162313369E+03  0.00000000000E+00 0. -1.
         -5    1    3    3    0  503 -0.15715066927E+03 -0.20806096545E+02  0.15704558669E+03  0.22319191921E+03  0.47000000000E+01 0.  1.
         13    1    4    4    0    0 -0.88476831266E+01 -0.43954407933E+02  0.82097658746E+01  0.45581484500E+02  0.00000000000E+00 0. -1.
        -14    1    4    4    0    0 -0.73775693075E+00  0.27712666608E+02  0.42452283078E+02  0.50702391604E+02  0.00000000000E+00 0.  1.
</event>
<event>
12    1  0.8358445E-002  0.1892186E+03  0.7818608E-02  0.1160299E+00
         21   -1    0    0  503  502  0.00000000000E+00  0.00000000000E+00  0.46020495404E+02  0.46020495404E+02  0.00000000000E+00 0.  1.
         21   -1    0    0  501  503 -0.00000000000E+00 -0.00000000000E+00 -0.13348715818E+04  0.13348715818E+04  0.00000000000E+00 0.  1.
          6    2    1    2  501    0 -0.57276888430E+02  0.53300453148E+02 -0.11031503158E+04  0.11192606050E+04  0.17228494545E+03 0.  0.
         24    2    3    3    0    0 -0.43576369146E+02 -0.25246126471E+02 -0.38802061183E+03  0.39968444303E+03  0.81556066254E+02 0.  0.
         -6    2    1    2    0  502  0.57276888430E+02 -0.53300453148E+02 -0.18570077063E+03  0.26163147223E+03  0.16686722504E+03 0.  0.
        -24    2    5    5    0    0  0.85896004670E+02 -0.41315997291E+02 -0.19264167530E+03  0.22949197699E+03  0.80440146640E+02 0.  0.
          5    1    3    3  501    0 -0.13700519284E+02  0.78546579619E+02 -0.71512970397E+03  0.71957616199E+03  0.47000000000E+01 0. -1.
        -11    1    4    4    0    0 -0.17044968187E+02 -0.30782646882E+02 -0.35599458249E+03  0.35772929018E+03  0.00000000000E+00 0.  1.
         12    1    4    4    0    0 -0.26531400960E+02  0.55365204105E+01 -0.32026029336E+02  0.41955152844E+02  0.00000000000E+00 0. -1.
         -5    1    5    5    0  502 -0.28619116240E+02 -0.11984455858E+02  0.69409046651E+01  0.32139495237E+02  0.47000000000E+01 0.  1.
         11    1    6    6    0    0  0.48569089910E+02  0.19995993610E+02 -0.90771384854E+02  0.10487249670E+03  0.00000000000E+00 0. -1.
        -12    1    6    6    0    0  0.37326914760E+02 -0.61311990901E+02 -0.10187029044E+03  0.12461948029E+03  0.00000000000E+00 0.  1.
</event>
<event>
12    1  0.8358445E-002  0.2377034E+03  0.7818608E-02  0.1121462E+00
         21   -1    0    0  503  502  0.00000000000E+00  0.00000000000E+00  0.11975106533E+04  0.11975106533E+04  0.00000000000E+00 0. -1.
         21   -1    0    0  501  503 -0.00000000000E+00 -0.00000000000E+00 -0.76365713391E+02  0.76365713391E+02  0.00000000000E+00 0.  1.
          6    2    1    2  501    0 -0.52807494497E+02  0.15664221418E+03  0.16525014111E+03  0.28886988666E+03  0.16974329897E+03 0.  0.
         24    2    3    3    0    0  0.24183099739E+02  0.10564689688E+03  0.14003919184E+03  0.19302753720E+03  0.76828157163E+02 0.  0.
         -6    2    1    2    0  502  0.52807494497E+02 -0.15664221418E+03  0.95589479878E+03  0.98500648001E+03  0.17081418146E+03 0.  0.
        -24    2    5    5    0    0  0.50406350835E+02 -0.18530642055E+03  0.81581401675E+03  0.84192567168E+03  0.80044094181E+02 0.  0.
          5    1    3    3  501    0 -0.76990594236E+02  0.50995317298E+02  0.25210949270E+02  0.95842349461E+02  0.47000000000E+01 0. -1.
        -13    1    4    4    0    0 -0.21710007059E+02  0.24622417024E+02  0.12531585604E+02  0.35137280264E+02  0.00000000000E+00 0.  1.
         14    1    4    4    0    0  0.45893106797E+02  0.81024479860E+02  0.12750760624E+03  0.15789025694E+03  0.00000000000E+00 0. -1.
         -5    1    5    5    0  502  0.24011436623E+01  0.28664206365E+02  0.14008078203E+03  0.14308080833E+03  0.47000000000E+01 0.  1.
         13    1    6    6    0    0  0.32002819425E+02 -0.17359872871E+02  0.20345400084E+03  0.20668593589E+03  0.00000000000E+00 0. -1.
        -14    1    6    6    0    0  0.18403531410E+02 -0.16794654767E+03  0.61236001591E+03  0.63523973579E+03  0.00000000000E+00 0.  1.
</event>
<event>
12    1  0.8358445E-002  0.2016394E+03  0.7818608E-02  0.1148441E+00
         21   -1    0    0  503  502  0.00000000000E+00  0.00000000000E+00  0.18031786284E+03  0.18031786284E+03  0.00000000000E+00 0. -1.
         21   -1    0    0  501  503 -0.00000000000E+00 -0.00000000000E+00 -0.27758895186E+03  0.27758895186E+03  0.00000000000E+00 0. -1.
          6    2    1    2  501    0 -0.90421217232E+02 -0.52839395582E+02 -0.14819267011E+03  0.24993693237E+03  0.17187031285E+03 0.  0.
         24    2    3    3    0    0 -0.11848745685E+03 -0.73641206826E+02 -0.14257508742E+03  0.21424272566E+03  0.78166394141E+02 0.  0.
         -6    2    1    2    0  502  0.90421217232E+02  0.52839395582E+02  0.50921581084E+02  0.20796988233E+03  0.17230921706E+03 0.  0.
        -24    2    5    5    0    0  0.92713072769E+02  0.81475245574E+02 -0.23180026127E+01  0.14729198043E+03  0.80346903237E+02 0.  0.
          5    1    3    3  501    0  0.28066239622E+02  0.20801811244E+02 -0.56175826914E+01  0.35694206713E+02  0.47000000000E+01 0. -1.
        -11    1    4    4    0    0 -0.72508230922E+02  0.67290922841E+00 -0.66064824699E+02  0.98094125312E+02  0.00000000000E+00 0.  1.
         12    1    4    4    0    0 -0.45979225932E+02 -0.74314116054E+02 -0.76510262716E+02  0.11614860035E+03  0.00000000000E+00 0. -1.
         -5    1    5    5    0  502 -0.22918555370E+01 -0.28635849991E+02  0.53239583697E+02  0.60677901898E+02  0.47000000000E+01 0.  1.
         13    1    6    6    0    0 -0.14493532968E+02  0.16291584644E+02 -0.20857926253E+00  0.21806460818E+02  0.00000000000E+00 0. -1.
        -14    1    6    6    0    0  0.10720660574E+03  0.65183660929E+02 -0.21094233502E+01  0.12548551961E+03  0.00000000000E+00 0.  1.
</event>
<event>
12    1  0.8358445E-002  0.1805443E+03  0.7818608E-02  0.1168157E+00
         21   -1    0    0  501  502  0.00000000000E+00  0.00000000000E+00  0.59357373577E+03  0.59357373577E+03  0.00000000000E+00 0. -1.
         21   -1    0    0  502  503 -0.00000000000E+00 -0.00000000000E+00 -0.72001977510E+02  0.72001977510E+02  0.00000000000E+00 0. -1.
         -6    2    1    2    0  503  0.86779123156E+01 -0.59999110491E+02  0.91601475837E+02  0.19923817548E+03  0.16622220300E+03 0.  0.
        -24    2    3    3    0    0  0.54555523149E+02 -0.81111524645E+02  0.69666083123E+02  0.14397751442E+03  0.79503314302E+02 0.  0.
          6    2    1    2  501    0 -0.86779123156E+01  0.59999110491E+02  0.42997028242E+03  0.46633753780E+03  0.17006191805E+03 0.  0.
         24    2    5    5    0    0 -0.12433845027E+02  0.40740248107E+02  0.93695277443E+02  0.12945776728E+03  0.78524774281E+02 0.  0.
          5    1    5    5  501    0  0.37559327113E+01  0.19258862384E+02  0.33627500498E+03  0.33687977052E+03  0.47000000000E+01 0. -1.
        -11    1    6    6    0    0 -0.17516560245E+02 -0.13713479691E+02  0.15441963490E+01  0.22299640141E+02  0.00000000000E+00 0.  1.
         12    1    6    6    0    0  0.50827152179E+01  0.54453727798E+02  0.92151081094E+02  0.10715812714E+03  0.00000000000E+00 0. -1.
         -5    1    3    3    0  503 -0.45877610834E+02  0.21112414154E+02  0.21935392714E+02  0.55260661060E+02  0.47000000000E+01 0.  1.
         11    1    4    4    0    0 -0.12499583297E+02 -0.49270344904E+02  0.19795117359E+02  0.54549547577E+02  0.00000000000E+00 0. -1.
        -12    1    4    4    0    0  0.67055106446E+02 -0.31841179741E+02  0.49870965764E+02  0.89427966845E+02  0.00000000000E+00 0.  1.
</event>
<event>
12    1  0.8358445E-002  0.1713608E+03  0.7818608E-02  0.1178472E+00
         21   -1    0    0  503  502  0.00000000000E+00  0.00000000000E+00  0.23823125835E+03  0.23823125835E+03  0.00000000000E+00 0.  1.
         21   -1    0    0  501  503 -0.00000000000E+00 -0.00000000000E+00 -0.13188412291E+03  0.13188412291E+03  0.00000000000E+00 0.  1.
          6    2    1    2  501    0 -0.66346679355E+01  0.36611451595E+00 -0.84123335349E+01  0.16387702359E+03  0.16352601825E+03 0.  0.
         24    2    3    3    0    0  0.43571952564E+02  0.32542567941E+02  0.20203302082E+02  0.97567344815E+02  0.78445392349E+02 0.  0.
         -6    2    1    2    0  502  0.66346679355E+01 -0.36611451595E+00  0.11475946897E+03  0.20623835767E+03  0.17123192341E+03 0.  0.
        -24    2    5    5    0    0 -0.45926203552E+02  0.26675703312E+02  0.11087127295E+03  0.14681518718E+03  0.80258648750E+02 0.  0.
          5    1    3    3  501    0 -0.50206620499E+02 -0.32176453425E+02 -0.28615635617E+02  0.66309678771E+02  0.47000000000E+01 0. -1.
        -11    1    4    4    0    0  0.17668660953E+02 -0.29611477046E+01 -0.27426538329E+02  0.32759196882E+02  0.00000000000E+00 0.  1.
         12    1    4    4    0    0  0.25903291611E+02  0.35503715645E+02  0.47629840411E+02  0.64808147933E+02  0.00000000000E+00 0. -1.
         -5    1    5    5    0  502  0.52560871488E+02 -0.27041817828E+02  0.38881960207E+01  0.59423170492E+02  0.47000000000E+01 0.  1.
         13    1    6    6    0    0  0.10770014009E+02 -0.19434269048E+02  0.35125712010E+02  0.41563200784E+02  0.00000000000E+00 0. -1.
        -14    1    6    6    0    0 -0.56696217561E+02  0.46109972360E+02  0.75745560944E+02  0.10525198639E+03  0.00000000000E+00 0.  1.
</event>
<event>
12    1  0.8358445E-002  0.1859791E+03  0.7818608E-02  0.1162625E+00
         21   -1    0    0  501  502  0.00000000000E+00  0.00000000000E+00  0.51056523759E+03  0.51056523759E+03  0.00000000000E+00 0. -1.
         21   -1    0    0  502  503 -0.00000000000E+00 -0.00000000000E+00 -0.69974264787E+02  0.69974264787E+02  0.00000000000E+00 0.  1.
         -6    2    1    2    0  503 -0.39855817125E+02 -0.59251934728E+02  0.15913509430E+03  0.24318858254E+03  0.16946218019E+03 0.  0.
        -24    2    3    3    0    0  0.41109812497E+02 -0.38495949399E+02  0.10175825741E+03  0.14169752127E+03  0.80941273644E+02 0.  0.
          6    2    1    2  501    0  0.39855817125E+02  0.59251934728E+02  0.28145587850E+03  0.33735091983E+03  0.17172348016E+03 0.  0.
         24    2    5    5    0    0  0.83784304116E+02  0.48030171590E+01  0.15657929937E+03  0.19413553445E+03  0.78285695728E+02 0.  0.
          5    1    5    5  501    0 -0.43928486990E+02  0.54448917569E+02  0.12487657913E+03  0.14321538538E+03  0.47000000000E+01 0. -1.
        -13    1    6    6    0    0  0.54901439512E+02  0.28608535786E+02  0.45248559545E+02  0.76681474433E+02  0.00000000000E+00 0.  1.
         14    1    6    6    0    0  0.28882864603E+02 -0.23805518627E+02  0.11133073983E+03  0.11745406002E+03  0.00000000000E+00 0. -1.
         -5    1    3    3    0  503 -0.80965629622E+02 -0.20755985329E+02  0.57376836889E+02  0.10149106127E+03  0.47000000000E+01 0.  1.
         11    1    4    4    0    0  0.14616109055E+02  0.24605078063E+02  0.19204904678E+02  0.34465473653E+02  0.00000000000E+00 0. -1.
        -12    1    4    4    0    0  0.26493703442E+02 -0.63101027462E+02  0.82553352729E+02  0.10723204761E+03  0.00000000000E+00 0.  1.
</event>
<event>
12    1  0.8358445E-002  0.2144319E+03  0.7818608E-02  0.1138544E+00
         21   -1    0    0  503  502  0.00000000000E+00  0.00000000000E+00  0.84374430848E+02  0.84374430848E+02  0.00000000000E+00 0.  1.
         21   -1    0    0  501  503 -0.00000000000E+00 -0.00000000000E+00 -0.55105053487E+03  0.55105053487E+03  0.00000000000E+00 0.  1.
          6    2    1    2  501    0 -0.78414641756E+02  0.10023730294E+03 -0.18797746032E+03  0.28516056243E+03  0.17258229293E+03 0.  0.
         24    2    3    3    0    0 -0.87873513443E+02  0.11235533806E+03 -0.91332013057E+02  0.18718735433E+03  0.79700016656E+02 0.  0.
         -6    2    1    2    0  502  0.78414641756E+02 -0.10023730294E+03 -0.27869864369E+03  0.35026440328E+03  0.16975230564E+03 0.  0.
        -24    2    5    5    0    0  0.74210258611E+02  0.73000503364E+00 -0.17207478556E+03  0.20328545500E+03  0.78788000330E+02 0.  0.
          5    1    3    3  501    0  0.94588716872E+01 -0.12118035122E+02 -0.96645447267E+02  0.97973208104E+02  0.47000000000E+01 0. -1.
        -11    1    4    4    0    0 -0.97245058840E+02  0.88488472513E+02 -0.93679398752E+02  0.16143927957E+03  0.00000000000E+00 0.  1.
         12    1    4    4    0    0  0.93715453968E+01  0.23866865548E+02  0.23473856955E+01  0.25748074759E+02  0.00000000000E+00 0. -1.
         -5    1    5    5    0  502  0.42043831446E+01 -0.10096730797E+03 -0.10662385813E+03  0.14697894829E+03  0.47000000000E+01 0.  1.
         13    1    6    6    0    0  0.19518413089E+02  0.22984330868E+02 -0.11626891662E+02  0.32317681301E+02  0.00000000000E+00 0. -1.
        -14    1    6    6    0    0  0.54691845522E+02 -0.22254325834E+02 -0.16044789390E+03  0.17096777370E+03  0.00000000000E+00 0.  1.
</event>
<event>
12    1  0.8358445E-002  0.3472617E+03  0.7818608E-02  0.1063777E+00
         21   -1    0    0  501  502  0.00000000000E+00  0.00000000000E+00  0.61836693658E+03  0.61836693658E+03  0.00000000000E+00 0. -1.
         21   -1    0    0  502  503 -0.00000000000E+00 -0.00000000000E+00 -0.19555845302E+03  0.19555845302E+03  0.00000000000E+00 0.  1.
         -6    2    1    2    0  503 -0.15347195010E+03  0.25949521854E+03  0.18681887806E+03  0.39432474401E+03  0.17233485611E+03 0.  0.
        -24    2    3    3    0    0 -0.14338620903E+03  0.21440656984E+03  0.21050932922E+03  0.34218995821E+03  0.79056990093E+02 0.  0.
          6    2    1    2  501    0  0.15347195010E+03 -0.25949521854E+03  0.23598960550E+03  0.41960064559E+03  0.17170381464E+03 0.  0.
         24    2    5    5    0    0  0.13169660122E+03 -0.12778873119E+03  0.81565730002E+02  0.21542036262E+03  0.77968004527E+02 0.  0.
          5    1    5    5  501    0  0.21775348881E+02 -0.13170648734E+03  0.15442387550E+03  0.20418028296E+03  0.47000000000E+01 0. -1.
        -11    1    6    6    0    0  0.94861955269E+02 -0.10952735888E+03  0.27474752564E+02  0.14747845581E+03  0.00000000000E+00 0.  1.
         12    1    6    6    0    0  0.36834645949E+02 -0.18261372315E+02  0.54090977438E+02  0.67941906812E+02  0.00000000000E+00 0. -1.
         -5    1    3    3    0  503 -0.10085741073E+02  0.45088648697E+02 -0.23690451162E+02  0.52134785802E+02  0.47000000000E+01 0.  1.
         13    1    4    4    0    0 -0.14109258097E+03  0.20377456013E+03  0.17076653283E+03  0.30098570813E+03  0.00000000000E+00 0. -1.
        -14    1    4    4    0    0 -0.22936280555E+01  0.10632009705E+02  0.39742796388E+02  0.41204250081E+02  0.00000000000E+00 0.  1.
</event>
<event>
12    1  0.8358445E-002  0.1899816E+03  0.7818608E-02  0.1159159E+00
         21   -1    0    0  501  502  0.00000000000E+00  0.00000000000E+00  0.91785663243E+02  0.91785663243E+02  0.00000000000E+00 0.  1.
         21   -1    0    0  502  503 -0.00000000000E+00 -0.00000000000E+00 -0.39704353496E+03  0.39704353496E+03  0.00000000000E+00 0.  1.
         -6    2    1    2    0  503 -0.66256092577E+02  0.36321388817E+02 -0.19021243144E+03  0.26672911225E+03  0.17103957776E+03 0.  0.
        -24    2    3    3    0    0 -0.17677908466E+02  0.82515954229E+02 -0.14628110363E+03  0.18644318940E+03  0.79003230591E+02 0.  0.
          6    2    1    2  501    0  0.66256092577E+02 -0.36321388817E+02 -0.11504544028E+03  0.22210008596E+03  0.17430972940E+03 0.  0.
         24    2    5    5    0    0 -0.26624596351E+02  0.57784600908E+01 -0.72286129998E+02  0.11142186646E+03  0.80295006099E+02 0.  0.
          5    1    5    5  501    0  0.92880688928E+02 -0.42099848908E+02 -0.42759310285E+02  0.11067821949E+03  0.47000000000E+01 0. -1.
        -11    1    6    6    0    0  0.25153916623E+02  0.14300003534E+02 -0.11544873801E+02  0.31152748412E+02  0.00000000000E+00 0.  1.
         12    1    6    6    0    0 -0.51778512974E+02 -0.85215434427E+01 -0.60741256196E+02  0.80269118051E+02  0.00000000000E+00 0. -1.
         -5    1    3    3    0  503 -0.48578184111E+02 -0.46194565412E+02 -0.43931327807E+02  0.80285922851E+02  0.47000000000E+01 0.  1.
         11    1    4    4    0    0  0.93429558180E+01  0.50233798644E+02 -0.13271813954E+03  0.14221402853E+03  0.00000000000E+00 0. -1.
        -12    1    4    4    0    0 -0.27020864284E+02  0.32282155585E+02 -0.13562964094E+02  0.44229160866E+02  0.00000000000E+00 0.  1.
</event>
<event>
12    1  0.8358445E-002  0.1895048E+03  0.7818608E-02  0.1159892E+00
         21   -1    0    0  501  502  0.00000000000E+00  0.00000000000E+00  0.37220950957E+02  0.37220950957E+02  0.00000000000E+00 0.  1.
         21   -1    0    0  502  503 -0.00000000000E+00 -0.00000000000E+00 -0.13124445270E+04  0.13124445270E+04  0.00000000000E+00 0.  1.
         -6    2    1    2    0  503 -0.68365382514E+02  0.26235012412E+02 -0.99033397237E+03  0.10075044881E+04  0.17012294184E+03 0.  0.
        -24    2    3    3    0    0 -0.94367150342E+02 -0.18376962179E+00 -0.49234433916E+03  0.50811505214E+03  0.82902141583E+02 0.  0.
          6    2    1    2  501    0  0.68365382514E+02 -0.26235012412E+02 -0.28488960371E+03  0.34216098988E+03  0.17478545503E+03 0.  0.
         24    2    5    5    0    0  0.81287833876E+02  0.41235335871E+02 -0.19277438942E+03  0.22715429290E+03  0.78288202846E+02 0.  0.
          5    1    5    5  501    0 -0.12922451362E+02 -0.67470348283E+02 -0.92115214288E+02  0.11500669698E+03  0.47000000000E+01 0. -1.
        -13    1    6    6    0    0  0.62765071162E+02 -0.70296995860E+01 -0.13838256912E+03  0.15211379382E+03  0.00000000000E+00 0.  1.
         14    1    6    6    0    0  0.18522762713E+02  0.48265035457E+02 -0.54391820303E+02  0.75040499079E+02  0.00000000000E+00 0. -1.
         -5    1    3    3    0  503  0.26001767828E+02  0.26418782034E+02 -0.49798963321E+03  0.49938943597E+03  0.47000000000E+01 0.  1.
         11    1    4    4    0    0 -0.36894467352E+01 -0.20998026471E+02 -0.20451086974E+03  0.20561912600E+03  0.00000000000E+00 0. -1.
        -12    1    4    4    0    0 -0.90677703607E+02  0.20814256849E+02 -0.28783346942E+03  0.30249592615E+03  0.00000000000E+00 0.  1.
</event>
<event>
12    1  0.8358445E-002  0.1797392E+03  0.7818608E-02  0.1168181E+00
         21   -1    0    0  501  502  0.00000000000E+00  0.00000000000E+00  0.61274062407E+03  0.61274062407E+03  0.00000000000E+00 0. -1.
         21   -1    0    0  502  503 -0.00000000000E+00 -0.00000000000E+00 -0.60118384690E+02  0.60118384690E+02  0.00000000000E+00 0. -1.
         -6    2    1    2    0  503  0.49622578530E+02 -0.97429742287E+01  0.15747029868E+03  0.23896248920E+03  0.17247855064E+03 0.  0.
        -24    2    3    3    0    0 -0.11544135170E+02  0.12564979184E+02  0.15372986159E+03  0.17357829753E+03  0.78774420143E+02 0.  0.
          6    2    1    2  501    0 -0.49622578530E+02  0.97429742287E+01  0.39515194070E+03  0.43389651957E+03  0.17194129116E+03 0.  0.
         24    2    5    5    0    0 -0.57079879070E+02 -0.11162049511E+02  0.10452148925E+03  0.14238188758E+03  0.77234424015E+02 0.  0.
          5    1    5    5  501    0  0.74573005406E+01  0.20905023739E+02  0.29063045145E+03  0.29151463198E+03  0.47000000000E+01 0. -1.
        -13    1    6    6    0    0  0.42683021437E+01 -0.21656015059E+02  0.65022896725E+02  0.68667157287E+02  0.00000000000E+00 0.  1.
         14    1    6    6    0    0 -0.61348181214E+02  0.10493965549E+02  0.39498592524E+02  0.73714730296E+02  0.00000000000E+00 0. -1.
         -5    1    3    3    0  503  0.61166713700E+02 -0.22307953412E+02  0.37404370863E+01  0.65384191667E+02  0.47000000000E+01 0.  1.
         11    1    4    4    0    0  0.78454926360E+01  0.18326474609E+02  0.14793646323E+01  0.19989996149E+02  0.00000000000E+00 0. -1.
        -12    1    4    4    0    0 -0.19389627806E+02 -0.57614954256E+01  0.15225049696E+03  0.15358830138E+03  0.00000000000E+00 0.  1.
</event>
<event>
12    1  0.8358445E-002  0.1880910E+03  0.7818608E-02  0.1161367E+00
         21   -1    0    0  503  502  0.00000000000E+00  0.00000000000E+00  0.31749788807E+03  0.31749788807E+03  0.00000000000E+00 0. -1.
         21   -1    0    0  501  503 -0.00000000000E+00 -0.00000000000E+00 -0.11738833728E+04  0.11738833728E+04  0.00000000000E+00 0. -1.
          6    2    1    2  501    0  0.41348795430E+02 -0.46503945679E+02 -0.11391357815E+04  0.11545599027E+04  0.17749901494E+03 0.  0.
         24    2    3    3    0    0 -0.20189964275E+02  0.25490137476E+02 -0.69873798192E+03  0.70406852780E+03  0.80127040967E+02 0.  0.
         -6    2    1    2    0  502 -0.41348795430E+02  0.46503945679E+02  0.28275029682E+03  0.33682135815E+03  0.17212947773E+03 0.  0.
        -24    2    5    5    0    0 -0.97378609735E+02  0.19997720806E+02  0.19522170996E+03  0.22946557783E+03  0.68267363356E+02 0.  0.
          5    1    3    3  501    0  0.61538759705E+02 -0.71994083155E+02 -0.44039779960E+03  0.45049137489E+03  0.47000000000E+01 0. -1.
        -11    1    4    4    0    0 -0.23098112412E+02  0.27074637978E+02 -0.11635164925E+03  0.12167277880E+03  0.00000000000E+00 0.  1.
         12    1    4    4    0    0  0.29081481368E+01 -0.15845005018E+01 -0.58238633267E+03  0.58239574900E+03  0.00000000000E+00 0. -1.
         -5    1    5    5    0  502  0.56029814305E+02  0.26506224873E+02  0.87528586867E+02  0.10735578032E+03  0.47000000000E+01 0.  1.
         13    1    6    6    0    0 -0.12251095993E+02 -0.49991801782E+01  0.93739550475E+02  0.94668814711E+02  0.00000000000E+00 0. -1.
        -14    1    6    6    0    0 -0.85127513741E+02  0.24996900984E+02  0.10148215948E+03  0.13479676312E+03  0.00000000000E+00 0.  1.
</event>
<event>
12    1  0.8358445E-002  0.3241636E+03  0.7818608E-02  0.1073770E+00
         21   -1    0    0  501  502  0.00000000000E+00  0.00000000000E+00  0.60438365490E+03  0.60438365490E+03  0.00000000000E+00 0. -1.
         21   -1    0    0  502  503 -0.00000000000E+00 -0.00000000000E+00 -0.15316870490E+04  0.15316870490E+04  0.00000000000E+00 0.  1.
         -6    2    1    2    0  503  0.17971331576E+03 -0.20770378878E+03 -0.14692949047E+04  0.15046293789E+04  0.17217523324E+03 0.  0.
        -24    2    3    3    0    0  0.12855355920E+03 -0.62908003823E+02 -0.60555704349E+03  0.62733334959E+03  0.79776964500E+02 0.  0.
          6    2    1    2  501    0 -0.17971331576E+03  0.20770378878E+03  0.54199151061E+03  0.63144132506E+03  0.17183017686E+03 0.  0.
         24    2    5    5    0    0 -0.52768069875E+02  0.22978563563E+02  0.19751387225E+03  0.22043592654E+03  0.79169339986E+02 0.  0.
          5    1    5    5  501    0 -0.12694524588E+03  0.18472522522E+03  0.34447763836E+03  0.41100539852E+03  0.47000000000E+01 0. -1.
        -11    1    6    6    0    0 -0.53528677138E+01 -0.16699887758E+02  0.49971761419E+01  0.18234889999E+02  0.00000000000E+00 0.  1.
         12    1    6    6    0    0 -0.47415202161E+02  0.39678451321E+02  0.19251669611E+03  0.20220103654E+03  0.00000000000E+00 0. -1.
         -5    1    3    3    0  503  0.51159756558E+02 -0.14479578496E+03 -0.86373786123E+03  0.87729602926E+03  0.47000000000E+01 0.  1.
         11    1    4    4    0    0  0.83253264191E+02  0.15771402120E+00 -0.37216869513E+03  0.38136684244E+03  0.00000000000E+00 0. -1.
        -12    1    4    4    0    0  0.45300295008E+02 -0.63065717844E+02 -0.23338834835E+03  0.24596650715E+03  0.00000000000E+00 0.  1.
</event>
<event>
12    1  0.8358445E-002  0.1811033E+03  0.7818608E-02  0.1167280E+00
         21   -1    0    0  503  502  0.00000000000E+00  0.00000000000E+00  0.17240644650E+03  0.17240644650E+03  0.00000000000E+00 0. -1.
         21   -1    0    0  501  503 -0.00000000000E+00 -0.00000000000E+00 -0.42365682858E+03  0.42365682858E+03  0.00000000000E+00 0.  1.
          6    2    1    2  501    0  0.38880880743E+02  0.29639628972E+02 -0.34829682202E+03  0.39256731734E+03  0.17437944811E+03 0.  0.
         24    2    3    3    0    0 -0.32581330776E+02  0.53493549494E+02 -0.24606690947E+03  0.26548898630E+03  0.77539505800E+02 0.  0.
         -6    2    1    2    0  502 -0.38880880743E+02 -0.29639628972E+02  0.97046439940E+02  0.20349595774E+03  0.17205337200E+03 0.  0.
        -24    2    5    5    0    0 -0.44654540128E+02  0.36951555647E+02  0.91334384259E+02  0.13624687899E+03  0.82835963621E+02 0.  0.
          5    1    3    3  501    0  0.71462211519E+02 -0.23853920522E+02 -0.10222991255E+03  0.12707833104E+03  0.47000000000E+01 0. -1.
        -11    1    4    4    0    0  0.75981592536E+01  0.86125940292E+01 -0.16013432069E+03  0.16054566162E+03  0.00000000000E+00 0.  1.
         12    1    4    4    0    0 -0.40179490030E+02  0.44880955465E+02 -0.85932588776E+02  0.10494332469E+03  0.00000000000E+00 0. -1.
         -5    1    5    5    0  502  0.57736593858E+01 -0.66591184619E+02  0.57120556815E+01  0.67249078743E+02  0.47000000000E+01 0.  1.
         13    1    6    6    0    0 -0.11327147484E+02  0.23714563465E+02  0.96501945334E+02  0.10001654985E+03  0.00000000000E+00 0. -1.
        -14    1    6    6    0    0 -0.33327392644E+02  0.13236992182E+02 -0.51675610756E+01  0.36230329145E+02  0.00000000000E+00 0.  1.
</event>
<event>
12    1  0.8358445E-002  0.2577016E+03  0.7818608E-02  0.1109519E+00
         21   -1    0    0  503  502  0.00000000000E+00  0.00000000000E+00  0.46998104316E+03  0.46998104316E+03  0.00000000000E+00 0. -1.
         21   -1    0    0  501  503 -0.00000000000E+00 -0.00000000000E+00 -0.17284393600E+03  0.17284393600E+03  0.00000000000E+00 0.  1.
          6    2    1    2  501    0  0.94784964955E+02  0.15628950270E+03  0.23852301634E+01  0.25130388388E+03  0.17244522171E+03 0.  0.
         24    2    3    3    0    0  0.59476019260E+02  0.14075750434E+03 -0.56496264701E+02  0.18075542495E+03  0.78298300296E+02 0.  0.
         -6    2    1    2    0  502 -0.94784964955E+02 -0.15628950270E+03  0.29475187699E+03  0.39152109528E+03  0.18165764729E+03 0.  0.
        -24    2    5    5    0    0 -0.68523582972E+02 -0.18798395901E+03  0.24941922007E+03  0.33010987051E+03  0.82031268403E+02 0.  0.
          5    1    3    3  501    0  0.35308945695E+02  0.15531998362E+02  0.58881494864E+02  0.70548458925E+02  0.47000000000E+01 0. -1.
        -13    1    4    4    0    0  0.33910364822E+02  0.11666070177E+02 -0.29455650178E+02  0.46407384791E+02  0.00000000000E+00 0.  1.
         14    1    4    4    0    0  0.25565654438E+02  0.12909143416E+03 -0.27040614523E+02  0.13434804016E+03  0.00000000000E+00 0. -1.
         -5    1    5    5    0  502 -0.26261381983E+02  0.31694456308E+02  0.45332656921E+02  0.61411224770E+02  0.47000000000E+01 0.  1.
         11    1    6    6    0    0 -0.58367053220E+02 -0.64365059485E+02  0.67959268659E+02  0.11030882096E+03  0.00000000000E+00 0. -1.
        -12    1    6    6    0    0 -0.10156529752E+02 -0.12361889953E+03  0.18145995142E+03  0.21980104955E+03  0.00000000000E+00 0.  1.
</event>
<event>
12    1  0.8358445E-002  0.4508125E+03  0.7818608E-02  0.1027885E+00
         21   -1    0    0  501  502  0.00000000000E+00  0.00000000000E+00  0.10072935269E+04  0.10072935269E+04  0.00000000000E+00 0. -1.
         21   -1    0    0  502  503 -0.00000000000E+00 -0.00000000000E+00 -0.24528338661E+03  0.24528338661E+03  0.00000000000E+00 0. -1.
         -6    2    1    2    0  503  0.17913587701E+03  0.37054251493E+03  0.65389551484E+03  0.79423628150E+03  0.18395789930E+03 0.  0.
        -24    2    3    3    0    0  0.48177853159E+02  0.26976405171E+03  0.42738759606E+03  0.51381832571E+03  0.79090868223E+02 0.  0.
          6    2    1    2  501    0 -0.17913587701E+03 -0.37054251493E+03  0.10811462549E+03  0.45834063205E+03  0.17028195718E+03 0.  0.
         24    2    5    5    0    0 -0.67347003848E+02 -0.74172584245E+02  0.12619493413E+02  0.12747313859E+03  0.77800760073E+02 0.  0.
          5    1    5    5  501    0 -0.11178887316E+03 -0.29636993069E+03  0.95495132073E+02  0.33086749346E+03  0.47000000000E+01 0. -1.
        -13    1    6    6    0    0 -0.76491001671E+02 -0.31137435369E+02  0.12150006313E+02  0.83474761883E+02  0.00000000000E+00 0.  1.
         14    1    6    6    0    0  0.91439978234E+01 -0.43035148876E+02  0.46948709977E+00  0.43998376710E+02  0.00000000000E+00 0. -1.
         -5    1    3    3    0  503  0.13095802385E+03  0.10077846322E+03  0.22650791879E+03  0.28041795579E+03  0.47000000000E+01 0.  1.
         11    1    4    4    0    0  0.65374760693E+02  0.25191474661E+03  0.38496760774E+03  0.46468802212E+03  0.00000000000E+00 0. -1.
        -12    1    4    4    0    0 -0.17196907534E+02  0.17849305104E+02  0.42419988313E+02  0.49130303581E+02  0.00000000000E+00 0.  1.
</event>
<event>
12    1  0.8358445E-002  0.2193193E+03  0.7818608E-02  0.1134428E+00
         21   -1    0    0  501  502  0.00000000000E+00  0.00000000000E+00  0.20878366953E+03  0.20878366953E+03  0.00000000000E+00 0.  1.
         21   -1    0    0  502  503 -0.00000000000E+00 -0.00000000000E+00 -0.26879791396E+03  0.26879791396E+03  0.00000000000E+00 0. -1.
         -6    2    1    2    0  503 -0.13019400567E+03  0.38866116906E+02 -0.12052405036E+03  0.25025386692E+03  0.17216241470E+03 0.  0.
        -24    2    3    3    0    0 -0.40613846672E+02  0.46693054118E+02 -0.12145677468E+03  0.16020484800E+03  0.84167210735E+02 0.  0.
          6    2    1    2  501    0  0.13019400567E+03 -0.38866116906E+02  0.60509805928E+02  0.22732771657E+03  0.17191684022E+03 0.  0.
         24    2    5    5    0    0  0.67434361721E+02  0.36130793761E+02 -0.31632826039E+01  0.11053875424E+03  0.79724415548E+02 0.  0.
          5    1    5    5  501    0  0.62759643953E+02 -0.74996910667E+02  0.63673088532E+02  0.11678896233E+03  0.47000000000E+01 0. -1.
        -13    1    6    6    0    0  0.67582695727E+02  0.86955107304E+01  0.23697752673E+02  0.72143025653E+02  0.00000000000E+00 0.  1.
         14    1    6    6    0    0 -0.14833400556E+00  0.27435283031E+02 -0.26861035277E+02  0.38395728592E+02  0.00000000000E+00 0. -1.
         -5    1    3    3    0  503 -0.89580159003E+02 -0.78269372121E+01  0.93272431913E+00  0.90049018916E+02  0.47000000000E+01 0.  1.
         11    1    4    4    0    0  0.25678036464E+02  0.63787924998E+01 -0.24846258330E+02  0.36295827631E+02  0.00000000000E+00 0. -1.
        -12    1    4    4    0    0 -0.66291883137E+02  0.40314261619E+02 -0.96610516350E+02  0.12390902037E+03  0.00000000000E+00 0.  1.
</event>
<event>
12    1  0.8358445E-002  0.2746328E+03  0.7818608E-02  0.1098782E+00
         21   -1    0    0  503  502  0.00000000000E+00  0.00000000000E+00  0.15202406884E+04  0.15202406884E+04  0.00000000000E+00 0. -1.
         21   -1    0    0  501  503 -0.00000000000E+00 -0.00000000000E+00 -0.10098187219E+03  0.10098187219E+03  0.00000000000E+00 0. -1.
          6    2    1    2  501    0 -0.16298327876E+03 -0.13687530527E+03  0.13113630378E+03  0.30433519096E+03  0.17356491564E+03 0.  0.
         24    2    3    3    0    0 -0.11801723618E+03 -0.17129941121E+02  0.49000203700E+02  0.15225190405E+03  0.80982216605E+02 0.  0.
         -6    2    1    2    0  502  0.16298327876E+03  0.13687530527E+03  0.12881225124E+04  0.13168873696E+04  0.17214627179E+03 0.  0.
        -24    2    5    5    0    0  0.19146777516E+03  0.12118234359E+03  0.11062490047E+04  0.11320693554E+04  0.80306261399E+02 0.  0.
          5    1    3    3  501    0 -0.44966042571E+02 -0.11974536415E+03  0.82136100076E+02  0.15208328690E+03  0.47000000000E+01 0. -1.
        -13    1    4    4    0    0 -0.15355903266E+02  0.27170191784E+02  0.30199642451E+01  0.31355115543E+02  0.00000000000E+00 0.  1.
         14    1    4    4    0    0 -0.10266133292E+03 -0.44300132905E+02  0.45980239455E+02  0.12089678851E+03  0.00000000000E+00 0. -1.
         -5    1    5    5    0  502 -0.28484496407E+02  0.15692961680E+02  0.18187350768E+03  0.18481801421E+03  0.47000000000E+01 0.  1.
         13    1    6    6    0    0 -0.36295460471E+01  0.20246092780E+02  0.10745062653E+03  0.10940162256E+03  0.00000000000E+00 0. -1.
        -14    1    6    6    0    0  0.19509732121E+03  0.10093625081E+03  0.99879837819E+03  0.10226677328E+04  0.00000000000E+00 0.  1.
</event>
<event>
12    1  0.8358445E-002  0.1847817E+03  0.7818608E-02  0.1163526E+00
         21   -1    0    0  503  502  0.00000000000E+00  0.00000000000E+00  0.14130745774E+03  0.14130745774E+03  0.00000000000E+00 0. -1.
         21   -1    0    0  501  503 -0.00000000000E+00 -0.00000000000E+00 -0.37087548299E+03  0.37087548299E+03  0.00000000000E+00 0. -1.
          6    2    1    2  501    0  0.26042405495E+02 -0.56255782045E+02 -0.26660897132E+03  0.32372522592E+03  0.17284316131E+03 0.  0.
         24    2    3    3    0    0  0.79858836481E+02 -0.61386633456E+02 -0.18255431378E+03  0.22367619127E+03  0.80988940791E+02 0.  0.
         -6    2    1    2    0  502 -0.26042405495E+02  0.56255782045E+02  0.37040946080E+02  0.18845771480E+03  0.17407285453E+03 0.  0.
        -24    2    5    5    0    0  0.53363085529E+02  0.19712284675E+02  0.10844977345E+02  0.97084972791E+02  0.77921019911E+02 0.  0.
          5    1    3    3  501    0 -0.53816430986E+02  0.51308514106E+01 -0.84054657541E+02  0.10004903465E+03  0.47000000000E+01 0. -1.
        -11    1    4    4    0    0  0.65313662553E+02  0.95975489405E-01 -0.80712409595E+02  0.10382859332E+03  0.00000000000E+00 0.  1.
         12    1    4    4    0    0  0.14545173928E+02 -0.61482608945E+02 -0.10184190419E+03  0.11984759796E+03  0.00000000000E+00 0. -1.
         -5    1    5    5    0  502 -0.79405491024E+02  0.36543497371E+02  0.26195968735E+02  0.91372742012E+02  0.47000000000E+01 0.  1.
         13    1    6    6    0    0 -0.16580200568E+02  0.15866293827E+02  0.14145926782E+02  0.26958293255E+02  0.00000000000E+00 0. -1.
        -14    1    6    6    0    0  0.69943286097E+02  0.38459908479E+01 -0.33009494373E+01  0.70126679536E+02  0.00000000000E+00 0.  1.
</event>
<event>
12    1  0.8358445E-002  0.1862701E+03  0.7818608E-02  0.1162460E+00
         21   -1    0    0  503  502  0.00000000000E+00  0.00000000000E+00  0.15136876644E+03  0.15136876644E+03  0.00000000000E+00 0. -1.
         21   -1    0    0  501  503 -0.00000000000E+00 -0.00000000000E+00 -0.26185150538E+03  0.26185150538E+03  0.00000000000E+00 0. -1.
          6    2    1    2  501    0 -0.61663286037E+02 -0.80718011614E+01 -0.13124721523E+03  0.22579633663E+03  0.17288909541E+03 0.  0.
         24    2    3    3    0    0 -0.16761907113E+02  0.33865569816E+02 -0.13642459262E+03  0.16395967962E+03  0.82724051644E+02 0.  0.
         -6    2    1    2    0  502  0.61663286037E+02  0.80718011614E+01  0.20764476283E+02  0.18742393519E+03  0.17558204119E+03 0.  0.
        -24    2    5    5    0    0  0.52802573131E+02 -0.62039149073E+02  0.38677410133E+01  0.11461152389E+03  0.80522507672E+02 0.  0.
          5    1    3    3  501    0 -0.44901378924E+02 -0.41937370977E+02  0.51773773946E+01  0.61836657012E+02  0.47000000000E+01 0. -1.
        -11    1    4    4    0    0  0.58679989315E+01 -0.24285296276E+02 -0.20540779995E+02  0.32343974237E+02  0.00000000000E+00 0.  1.
         12    1    4    4    0    0 -0.22629906045E+02  0.58150866091E+02 -0.11588381263E+03  0.13161570538E+03  0.00000000000E+00 0. -1.
         -5    1    5    5    0  502  0.88607129060E+01  0.70110950235E+02  0.16896735270E+02  0.72812411296E+02  0.47000000000E+01 0.  1.
         11    1    6    6    0    0  0.72339061869E+02 -0.34463471275E+02 -0.27436021038E+01  0.80176044283E+02  0.00000000000E+00 0. -1.
        -12    1    6    6    0    0 -0.19536488738E+02 -0.27575677798E+02  0.66113431172E+01  0.34435479611E+02  0.00000000000E+00 0.  1.
</event>
<event>
12    1  0.8358445E-002  0.2582736E+03  0.7818608E-02  0.1110434E+00
         21   -1    0    0  503  502  0.00000000000E+00  0.00000000000E+00  0.33737623600E+03  0.33737623600E+03  0.00000000000E+00 0.  1.
         21   -1    0    0  501  503 -0.00000000000E+00 -0.00000000000E+00 -0.25123838903E+03  0.25123838903E+03  0.00000000000E+00 0. -1.
          6    2    1    2  501    0  0.12268907057E+03 -0.12389292489E+03 -0.10679624418E+03  0.26623469403E+03  0.17050926561E+03 0.  0.
         24    2    3    3    0    0  0.47004381431E+02 -0.21774730141E+01 -0.12912133258E+02  0.94831252759E+02  0.81314759129E+02 0.  0.
         -6    2    1    2    0  502 -0.12268907057E+03  0.12389292489E+03  0.19293409115E+03  0.32237993100E+03  0.19053396418E+03 0.  0.
        -24    2    5    5    0    0  0.26209175578E+00  0.10699426003E+03  0.11208310259E+03  0.17418571538E+03  0.79562561456E+02 0.  0.
          5    1    3    3  501    0  0.75684689139E+02 -0.12171545188E+03 -0.93884110917E+02  0.17140344127E+03  0.47000000000E+01 0. -1.
        -11    1    4    4    0    0  0.33599069019E+01  0.21063209643E+02 -0.34752476328E+02  0.40776002573E+02  0.00000000000E+00 0.  1.
         12    1    4    4    0    0  0.43644474529E+02 -0.23240682657E+02  0.21840343070E+02  0.54055250186E+02  0.00000000000E+00 0. -1.
         -5    1    5    5    0  502 -0.12295116233E+03  0.16898664867E+02  0.80850988564E+02  0.14819421562E+03  0.47000000000E+01 0.  1.
         11    1    6    6    0    0 -0.20283035989E+02  0.70210727483E+02  0.24643609657E+02  0.77124933060E+02  0.00000000000E+00 0. -1.
        -12    1    6    6    0    0  0.20545127745E+02  0.36783532545E+02  0.87439492929E+02  0.97060782318E+02  0.00000000000E+00 0.  1.
</event>
<event>
12    1  0.8358445E-002  0.1751370E+03  0.7818608E-02  0.1173821E+00
         21   -1    0    0  503  502  0.00000000000E+00  0.00000000000E+00  0.19792355834E+03  0.19792355834E+03  0.00000000000E+00 0. -1.
         21   -1    0    0  501  503 -0.00000000000E+00 -0.00000000000E+00 -0.16507551844E+03  0.16507551844E+03  0.00000000000E+00 0. -1.
          6    2    1    2  501    0  0.45302887348E+02 -0.18779924399E+02 -0.36847896827E+02  0.17897129236E+03  0.16813065998E+03 0.  0.
         24    2    3    3    0    0  0.70901485430E+02  0.23840168501E+02  0.99767571397E+01  0.11051401545E+03  0.80736842013E+02 0.  0.
         -6    2    1    2    0  502 -0.45302887348E+02  0.18779924399E+02  0.69695936719E+02  0.18402778442E+03  0.16310629871E+03 0.  0.
        -24    2    5    5    0    0  0.34664765886E+02 -0.91909453646E+00  0.46113338001E+02  0.98230897102E+02  0.79500808016E+02 0.  0.
          5    1    3    3  501    0 -0.25598598082E+02 -0.42620092900E+02 -0.46824653966E+02  0.68457276908E+02  0.47000000000E+01 0. -1.
        -11    1    4    4    0    0  0.66235883195E+02 -0.47310390853E+01 -0.19490021126E+02  0.69205750317E+02  0.00000000000E+00 0.  1.
         12    1    4    4    0    0  0.46656022345E+01  0.28571207586E+02  0.29466778266E+02  0.41308265136E+02  0.00000000000E+00 0. -1.
         -5    1    5    5    0  502 -0.79967653234E+02  0.19699018935E+02  0.23582598718E+02  0.85796887315E+02  0.47000000000E+01 0.  1.
         13    1    6    6    0    0  0.18053805165E+02 -0.38225481638E+02  0.37467339036E+02  0.56488306948E+02  0.00000000000E+00 0. -1.
        -14    1    6    6    0    0  0.16610960721E+02  0.37306387102E+02  0.86459989650E+01  0.41742590154E+02  0.00000000000E+00 0.  1.
</event>
<event>
12    1  0.8358445E-002  0.2288253E+03  0.7818608E-02  0.1127748E+00
         21   -1    0    0  503  502  0.00000000000E+00  0.00000000000E+00  0.69789839144E+03  0.69789839144E+03  0.00000000000E+00 0.  1.
         21   -1    0    0  501  503 -0.00000000000E+00 -0.00000000000E+00 -0.13095361712E+03  0.13095361712E+03  0.00000000000E+00 0. -1.
          6    2    1    2  501    0  0.96020542279E+02  0.11303786572E+03  0.10849311223E+02  0.22751750090E+03  0.17218885572E+03 0.  0.
         24    2    3    3    0    0  0.17575265144E+02  0.62698808179E+02  0.62346641225E+02  0.12092600397E+03  0.80597545079E+02 0.  0.
         -6    2    1    2    0  502 -0.96020542279E+02 -0.11303786572E+03  0.55609546309E+03  0.60133450766E+03  0.17425131967E+03 0.  0.
        -24    2    5    5    0    0 -0.13355299618E+03 -0.82238829397E+02  0.38431452182E+03  0.42276226033E+03  0.80191328873E+02 0.  0.
          5    1    3    3  501    0  0.78445277135E+02  0.50339057546E+02 -0.51497330002E+02  0.10659149692E+03  0.47000000000E+01 0. -1.
        -13    1    4    4    0    0 -0.11583695536E+02 -0.15286426694E+02  0.19254284243E+02  0.27176907570E+02  0.00000000000E+00 0.  1.
         14    1    4    4    0    0  0.29158960681E+02  0.77985234872E+02  0.43092356982E+02  0.93749096403E+02  0.00000000000E+00 0. -1.
         -5    1    5    5    0  502  0.37532453898E+02 -0.30799036328E+02  0.17178094127E+03  0.17857224733E+03  0.47000000000E+01 0.  1.
         13    1    6    6    0    0 -0.98079766469E+00  0.12127018325E+02  0.15992925970E+02  0.20094780879E+02  0.00000000000E+00 0. -1.
        -14    1    6    6    0    0 -0.13257219851E+03 -0.94365847722E+02  0.36832159585E+03  0.40266747945E+03  0.00000000000E+00 0.  1.
</event>
<event>
12    1  0.8358445E-002  0.2042202E+03  0.7818608E-02  0.1146394E+00
         21   -1    0    0  501  502  0.00000000000E+00  0.00000000000E+00  0.53558679287E+02  0.53558679287E+02  0.00000000000E+00 0. -1.
         21   -1    0    0  502  503 -0.00000000000E+00 -0.00000000000E+00 -0.87947693863E+03  0.87947693863E+03  0.00000000000E+00 0. -1.
         -6    2    1    2    0  503  0.48951983307E+02 -0.97973671243E+02 -0.57401964026E+03  0.60926549227E+03  0.17236808214E+03 0.  0.
        -24    2    3    3    0    0  0.74021324858E+02 -0.95949726526E+02 -0.29339685777E+03  0.32747868582E+03  0.80467800770E+02 0.  0.
          6    2    1    2  501    0 -0.48951983307E+02  0.97973671243E+02 -0.25189861908E+03  0.32377012564E+03  0.17140315936E+03 0.  0.
         24    2    5    5    0    0  0.29890133353E+02  0.29456012982E+02 -0.15888401171E+03  0.18382529353E+03  0.82380413875E+02 0.  0.
          5    1    5    5  501    0 -0.78842116659E+02  0.68517658260E+02 -0.93014607370E+02  0.13994483212E+03  0.47000000000E+01 0. -1.
        -13    1    6    6    0    0 -0.22527396170E+02 -0.12051775781E+02 -0.46466125341E+02  0.53026688392E+02  0.00000000000E+00 0.  1.
         14    1    6    6    0    0  0.52417529523E+02  0.41507788763E+02 -0.11241788637E+03  0.13079860513E+03  0.00000000000E+00 0. -1.
         -5    1    3    3    0  503 -0.25069341551E+02 -0.20239447168E+01 -0.28062278249E+03  0.28178680646E+03  0.47000000000E+01 0.  1.
         13    1    4    4    0    0  0.13811593968E+02 -0.65693722272E+01 -0.13519870737E+03  0.13606104238E+03  0.00000000000E+00 0. -1.
        -14    1    4    4    0    0  0.60209730890E+02 -0.89380354299E+02 -0.15819815040E+03  0.19141764344E+03  0.00000000000E+00 0.  1.
</event>
<event>
12    1  0.8358445E-002  0.1791856E+03  0.7818608E-02  0.1168863E+00
         21   -1    0    0  501  502  0.00000000000E+00  0.00000000000E+00  0.12445931905E+03  0.12445931905E+03  0.00000000000E+00 0.  1.
         21   -1    0    0  502  503 -0.00000000000E+00 -0.00000000000E+00 -0.27234054115E+03  0.27234054115E+03  0.00000000000E+00 0.  1.
         -6    2    1    2    0  503 -0.41130316827E+02  0.22068485399E+02 -0.26143487360E+02  0.18108274616E+03  0.17299930062E+03 0.  0.
        -24    2    3    3    0    0 -0.82866258837E+02  0.79370077491E+01 -0.55896196268E+02  0.12770764706E+03  0.79088845074E+02 0.  0.
          6    2    1    2  501    0  0.41130316827E+02 -0.22068485399E+02 -0.12173773473E+03  0.21571711404E+03  0.17185772087E+03 0.  0.
         24    2    5    5    0    0 -0.63331865520E+01 -0.40046549742E+02 -0.13596897723E+03  0.16279629382E+03  0.79820016994E+02 0.  0.
          5    1    5    5  501    0  0.47463503379E+02  0.17978064344E+02  0.14231242497E+02  0.52920820227E+02  0.47000000000E+01 0. -1.
        -11    1    6    6    0    0  0.24503144343E+02 -0.34372893831E+02 -0.28715160361E+02  0.51053504753E+02  0.00000000000E+00 0.  1.
         12    1    6    6    0    0 -0.30836330895E+02 -0.56736559116E+01 -0.10725381687E+03  0.11174278906E+03  0.00000000000E+00 0. -1.
         -5    1    3    3    0  503  0.41735942010E+02  0.14131477650E+02  0.29752708907E+02  0.53375099095E+02  0.47000000000E+01 0.  1.
         11    1    4    4    0    0 -0.13706184601E+02 -0.26377824808E+02  0.39982806742E+01  0.29993922489E+02  0.00000000000E+00 0. -1.
        -12    1    4    4    0    0 -0.69160074235E+02  0.34314832557E+02 -0.59894476942E+02  0.97713724572E+02  0.00000000000E+00 0.  1.
</event>
<event>
12    1  0.8358445E-002  0.2014335E+03  0.7818608E-02  0.1148724E+00
         21   -1    0    0  503  502  0.00000000000E+00  0.00000000000E+00  0.35400013114E+02  0.35400013114E+02  0.00000000000E+00 0. -1.
         21   -1    0    0  501  503 -0.00000000000E+00 -0.00000000000E+00 -0.19521629175E+04  0.19521629175E+04  0.00000000000E+00 0. -1.
          6    2    1    2  501    0  0.29056524048E+02 -0.98758757892E+02 -0.16001997755E+04  0.16128281915E+04  0.17314121398E+03 0.  0.
         24    2    3    3    0    0  0.71257481680E+01 -0.81969885199E+02 -0.15575471803E+04  0.15617972298E+04  0.80545203242E+02 0.  0.
         -6    2    1    2    0  502 -0.29056524048E+02  0.98758757892E+02 -0.31656312887E+03  0.37473473909E+03  0.17209397511E+03 0.  0.
        -24    2    5    5    0    0  0.16002759951E+02  0.30697062885E+02 -0.85248516046E+02  0.12939564007E+03  0.90980900108E+02 0.  0.
          5    1    3    3  501    0  0.21930775880E+02 -0.16788872693E+02 -0.42652595223E+02  0.51030961741E+02  0.47000000000E+01 0. -1.
        -11    1    4    4    0    0 -0.15229956000E+02  0.99376308629E+01 -0.15477130430E+03  0.15583601862E+03  0.00000000000E+00 0.  1.
         12    1    4    4    0    0  0.22355704168E+02 -0.91907516061E+02 -0.14027758760E+04  0.14059612111E+04  0.00000000000E+00 0. -1.
         -5    1    5    5    0  502 -0.45059283999E+02  0.68061695007E+02 -0.23131461283E+03  0.24533909902E+03  0.47000000000E+01 0.  1.
         11    1    6    6    0    0 -0.21174687977E+02  0.17358755052E+02  0.76667595508E+01  0.28433659453E+02  0.00000000000E+00 0. -1.
        -12    1    6    6    0    0  0.37177447928E+02  0.13338307833E+02 -0.92915275596E+02  0.10096198061E+03  0.00000000000E+00 0.  1.
</event>
<event>
12    1  0.8358445E-002  0.2037857E+03  0.7818608E-02  0.1149233E+00
         21   -1    0    0  501  502  0.00000000000E+00  0.00000000000E+00  0.47563043619E+03  0.47563043619E+03  0.00000000000E+00 0.  1.
         21   -1    0    0  502  503 -0.00000000000E+00 -0.00000000000E+00 -0.17424346401E+03  0.17424346401E+03  0.00000000000E+00 0.  1.
         -6    2    1    2    0  503 -0.63142204936E+02  0.89127028532E+02 -0.83358109687E+02  0.22017531068E+03  0.17204077344E+03 0.  0.
        -24    2    3    3    0    0 -0.34120877132E+01  0.63722729484E+01  0.99207657509E+01  0.81831264632E+02  0.80905414362E+02 0.  0.
          6    2    1    2  501    0  0.63142204936E+02 -0.89127028532E+02  0.38474508187E+03  0.42969858952E+03  0.15710357905E+03 0.  0.
         24    2    5    5    0    0  0.63371704981E+02 -0.30001351668E+02  0.33639213247E+03  0.35317410944E+03  0.81585726073E+02 0.  0.
          5    1    5    5  501    0 -0.22950004430E+00 -0.59125676864E+02  0.48352949402E+02  0.76524480075E+02  0.47000000000E+01 0. -1.
        -11    1    6    6    0    0  0.58558426174E+02  0.43525101563E+01  0.11544711404E+03  0.12952246817E+03  0.00000000000E+00 0.  1.
         12    1    6    6    0    0  0.48132788066E+01 -0.34353861824E+02  0.22094501843E+03  0.22365164127E+03  0.00000000000E+00 0. -1.
         -5    1    3    3    0  503 -0.59730117223E+02  0.82754755583E+02 -0.93278875438E+02  0.13834404605E+03  0.47000000000E+01 0.  1.
         13    1    4    4    0    0  0.22317311678E+02 -0.28865814949E+02  0.11241971231E+02  0.38179570328E+02  0.00000000000E+00 0. -1.
        -14    1    4    4    0    0 -0.25729399391E+02  0.35238087898E+02 -0.13212054803E+01  0.43651694304E+02  0.00000000000E+00 0.  1.
</event>
<event>
12    1  0.8358445E-002  0.1775152E+03  0.7818608E-02  0.1171264E+00
         21   -1    0    0  501  502  0.00000000000E+00  0.00000000000E+00  0.62036140018E+03  0.62036140018E+03  0.00000000000E+00 0. -1.
         21   -1    0    0  502  503 -0.00000000000E+00 -0.00000000000E+00 -0.98478896648E+02  0.98478896648E+02  0.00000000000E+00 0. -1.
         -6    2    1    2    0  503  0.21022961280E+02  0.64757869641E+01  0.93300403384E+01  0.17776023371E+03  0.17614695659E+03 0.  0.
        -24    2    3    3    0    0  0.40259446479E+02 -0.71050228518E+01  0.68916820655E+02  0.11351729521E+03  0.80407361368E+02 0.  0.
          6    2    1    2  501    0 -0.21022961280E+02 -0.64757869641E+01  0.51255246319E+03  0.54108006312E+03  0.17197007433E+03 0.  0.
         24    2    5    5    0    0  0.38283589243E+02  0.29765605912E+02  0.25814170835E+03  0.27730434841E+03  0.88932196398E+02 0.  0.
          5    1    5    5  501    0 -0.59306550523E+02 -0.36241392876E+02  0.25441075483E+03  0.26377571470E+03  0.47000000000E+01 0. -1.
        -13    1    6    6    0    0  0.18789382042E+02  0.79937416517E+01  0.24397446356E+03  0.24482744873E+03  0.00000000000E+00 0.  1.
         14    1    6    6    0    0  0.19494207201E+02  0.21771864261E+02  0.14167244792E+02  0.32476899680E+02  0.00000000000E+00 0. -1.
         -5    1    3    3    0  503 -0.19236485199E+02  0.13580809816E+02 -0.59586780317E+02  0.64242938496E+02  0.47000000000E+01 0.  1.
         13    1    4    4    0    0  0.26851957556E+02 -0.66215557169E+01 -0.12964422874E+02  0.30544211975E+02  0.00000000000E+00 0. -1.
        -14    1    4    4    0    0  0.13407488923E+02 -0.48346713494E+00  0.81881243529E+02  0.82973083236E+02  0.00000000000E+00 0.  1.
</event>
<event>
12    1  0.8358445E-002  0.1845227E+03  0.7818608E-02  0.1164186E+00
         21   -1    0    0  501  502  0.00000000000E+00  0.00000000000E+00  0.25682299628E+03  0.25682299628E+03  0.00000000000E+00 0. -1.
         21   -1    0    0  502  503 -0.00000000000E+00 -0.00000000000E+00 -0.13702771897E+03  0.13702771897E+03  0.00000000000E+00 0. -1.
         -6    2    1    2    0  503  0.29286790347E+02 -0.57672293631E+02  0.17334124037E+02  0.18533513642E+03  0.17281444208E+03 0.  0.
        -24    2    3    3    0    0  0.66434176378E+02  0.17893330832E+01 -0.21717348691E+02  0.10494408677E+03  0.78261846457E+02 0.  0.
          6    2    1    2  501    0 -0.29286790347E+02  0.57672293631E+02  0.10246115327E+03  0.20851557883E+03  0.16969575465E+03 0.  0.
         24    2    5    5    0    0 -0.59800459458E+02 -0.86643831926E+01  0.90116275582E+02  0.13431231273E+03  0.79168729557E+02 0.  0.
          5    1    5    5  501    0  0.30513669111E+02  0.66336676824E+02  0.12344877690E+02  0.74203266100E+02  0.47000000000E+01 0. -1.
        -11    1    6    6    0    0 -0.66564107057E+00 -0.31036435757E+02  0.51779001225E+02  0.60371917233E+02  0.00000000000E+00 0.  1.
         12    1    6    6    0    0 -0.59134818388E+02  0.22372052565E+02  0.38337274357E+02  0.73940395501E+02  0.00000000000E+00 0. -1.
         -5    1    3    3    0  503 -0.37147386031E+02 -0.59461626715E+02  0.39051472728E+02  0.80391049643E+02  0.47000000000E+01 0.  1.
         11    1    4    4    0    0  0.30029095026E+02 -0.25118913825E+02  0.19485474659E+02  0.43730882709E+02  0.00000000000E+00 0. -1.
        -12    1    4    4    0    0  0.36405081352E+02  0.26908246908E+02 -0.41202823350E+02  0.61213204065E+02  0.00000000000E+00 0.  1.
</event>
<event>
12    1  0.8358445E-002  0.1860200E+03  0.7818608E-02  0.1164081E+00
         21   -1    0    0  503  502  0.00000000000E+00  0.00000000000E+00  0.79735394060E+02  0.79735394060E+02  0.00000000000E+00 0.  1.
         21   -1    0    0  501  503 -0.00000000000E+00 -0.00000000000E+00 -0.46287352523E+03  0.46287352523E+03  0.00000000000E+00 0.  1.
          6    2    1    2  501    0 -0.32103306383E+02  0.41829935534E+02 -0.27509325928E+03  0.32748772772E+03  0.16968071404E+03 0.  0.
         24    2    3    3    0    0  0.94950461343E+01  0.19664986262E+01 -0.72655553094E+02  0.11695832022E+03  0.91139433045E+02 0.  0.
         -6    2    1    2    0  502  0.32103306383E+02 -0.41829935534E+02 -0.10804487189E+03  0.21512119158E+03  0.17839020975E+03 0.  0.
        -24    2    5    5    0    0 -0.35459829714E+02  0.77590233292E+01 -0.28043408631E+02  0.99163585857E+02  0.87916904097E+02 0.  0.
          5    1    3    3  501    0 -0.41598352517E+02  0.39863436908E+02 -0.20243770618E+03  0.21052940749E+03  0.47000000000E+01 0. -1.
        -13    1    4    4    0    0 -0.20789834052E+02 -0.28067068978E+01 -0.82210693666E+02  0.84845111566E+02  0.00000000000E+00 0.  1.
         14    1    4    4    0    0  0.30284880186E+02  0.47732055239E+01  0.95551405720E+01  0.32113208656E+02  0.00000000000E+00 0. -1.
         -5    1    5    5    0  502  0.67563136097E+02 -0.49588958863E+02 -0.80001463262E+02  0.11595760572E+03  0.47000000000E+01 0.  1.
         11    1    6    6    0    0 -0.17009705875E+02 -0.33887493787E+02 -0.36732590090E+02  0.52791812848E+02  0.00000000000E+00 0. -1.
        -12    1    6    6    0    0 -0.18450123839E+02  0.41646517116E+02  0.86891814583E+01  0.46371773009E+02  0.00000000000E+00 0.  1.
</event>
<event>
12    1  0.8358445E-002  0.1805303E+03  0.7818608E-02  0.1168145E+00
         21   -1    0    0  501  502  0.00000000000E+00  0.00000000000E+00  0.10240786246E+03  0.10240786246E+03  0.00000000000E+00 0. -1.
         21   -1    0    0  502  503 -0.00000000000E+00 -0.00000000000E+00 -0.42780823155E+03  0.42780823155E+03  0.00000000000E+00 0. -1.
         -6    2    1    2    0  503 -0.46063479670E+02  0.19940022318E+02 -0.30173559166E+03  0.35161845654E+03  0.17341200379E+03 0.  0.
        -24    2    3    3    0    0  0.31533442028E+02  0.13473409945E+02 -0.22167379404E+03  0.23983705930E+03  0.84892009671E+02 0.  0.
          6    2    1    2  501    0  0.46063479670E+02 -0.19940022318E+02 -0.23664777432E+02  0.17859763746E+03  0.16975760886E+03 0.  0.
         24    2    5    5    0    0 -0.22931720690E+02 -0.15452307631E+02  0.31540966389E+02  0.89996049402E+02  0.79622978607E+02 0.  0.
          5    1    5    5  501    0  0.68995200360E+02 -0.44877146868E+01 -0.55205743820E+02  0.88601588059E+02  0.47000000000E+01 0. -1.
        -13    1    6    6    0    0  0.47872172205E+01 -0.20991335274E+02 -0.21163289494E+02  0.30190038548E+02  0.00000000000E+00 0.  1.
         14    1    6    6    0    0 -0.27718937911E+02  0.55390276428E+01  0.52704255883E+02  0.59806010854E+02  0.00000000000E+00 0. -1.
         -5    1    3    3    0  503 -0.77596921698E+02  0.64666123727E+01 -0.80061797621E+02  0.11178139725E+03  0.47000000000E+01 0.  1.
         11    1    4    4    0    0  0.20609206407E+02 -0.23515036486E+02 -0.18139759217E+03  0.18407276489E+03  0.00000000000E+00 0. -1.
        -12    1    4    4    0    0  0.10924235620E+02  0.36988446431E+02 -0.40276201867E+02  0.55764294402E+02  0.00000000000E+00 0.  1.
</event>
<event>
12    1  0.8358445E-002  0.1949536E+03  0.7818608E-02  0.1154295E+00
         21   -1    0    0  501  502  0.00000000000E+00  0.00000000000E+00  0.65043839845E+02  0.65043839845E+02  0.00000000000E+00 0. -1.
         21   -1    0    0  502  503 -0.00000000000E+00 -0.00000000000E+00 -0.19983016833E+04  0.19983016833E+04  0.00000000000E+00 0. -1.
         -6    2    1    2    0  503  0.44559587309E+02 -0.77474200348E+02 -0.18346558078E+04  0.18448752458E+04  0.17208989214E+03 0.  0.
        -24    2    3    3    0    0 -0.30863782611E+01 -0.93155745754E+02 -0.13136609390E+04  0.13214501870E+04  0.10880264385E+03 0.  0.
          6    2    1    2  501    0 -0.44559587309E+02  0.77474200348E+02 -0.98602035649E+02  0.21847027733E+03  0.17326018614E+03 0.  0.
         24    2    5    5    0    0 -0.30021655146E+02 -0.38500514881E+01 -0.10595870637E+03  0.13539683986E+03  0.78669778911E+02 0.  0.
          5    1    5    5  501    0 -0.14537932162E+02  0.81324251836E+02  0.73566707237E+01  0.83073437466E+02  0.47000000000E+01 0. -1.
        -13    1    6    6    0    0  0.80761365974E+01 -0.25729619109E+02 -0.81464602774E+01  0.28170944196E+02  0.00000000000E+00 0.  1.
         14    1    6    6    0    0 -0.38097791744E+02  0.21879567621E+02 -0.97812246095E+02  0.10722589567E+03  0.00000000000E+00 0. -1.
         -5    1    3    3    0  503  0.47645965570E+02  0.15681545406E+02 -0.52099486877E+03  0.52342505881E+03  0.47000000000E+01 0.  1.
         13    1    4    4    0    0  0.36911973000E+02 -0.59963907479E+02 -0.10696376648E+04  0.10719528431E+04  0.00000000000E+00 0. -1.
        -14    1    4    4    0    0 -0.39998351261E+02 -0.33191838276E+02 -0.24402327421E+03  0.24949734385E+03  0.00000000000E+00 0.  1.
</event>
<event>
12    1  0.8358445E-002  0.1789857E+03  0.7818608E-02  0.1172009E+00
         21   -1    0    0  503  502  0.00000000000E+00  0.00000000000E+00  0.71781540726E+03  0.71781540726E+03  0.00000000000E+00 0.  1.
         21   -1    0    0  501  503 -0.00000000000E+00 -0.00000000000E+00 -0.52236019678E+02  0.52236019678E+02  0.00000000000E+00 0.  1.
          6    2    1    2  501    0 -0.41894675908E+02 -0.25862838514E+02  0.49736498806E+03  0.52442578977E+03  0.15882829513E+03 0.  0.
         24    2    3    3    0    0 -0.55395398970E+02 -0.67731031501E+02  0.28637423354E+03  0.30884656164E+03  0.75629717329E+02 0.  0.
         -6    2    1    2    0  502  0.41894675908E+02  0.25862838514E+02  0.16821439951E+03  0.24562563717E+03  0.17208085060E+03 0.  0.
        -24    2    5    5    0    0  0.31545910619E+02 -0.24813704249E+02  0.30238971554E+02  0.98199324556E+02  0.84367336969E+02 0.  0.
          5    1    3    3  501    0  0.13500723062E+02  0.41868192987E+02  0.21099075452E+03  0.21557922813E+03  0.47000000000E+01 0. -1.
        -11    1    4    4    0    0 -0.57772603927E+02 -0.55889406431E+02  0.13593180353E+03  0.15792008969E+03  0.00000000000E+00 0.  1.
         12    1    4    4    0    0  0.23772049568E+01 -0.11841625070E+02  0.15044243001E+03  0.15092647195E+03  0.00000000000E+00 0. -1.
         -5    1    5    5    0  502  0.10348765289E+02  0.50676542763E+02  0.13797542796E+03  0.14742631261E+03  0.47000000000E+01 0.  1.
         11    1    6    6    0    0 -0.11796357267E+02  0.60151263246E+00  0.44443074734E+02  0.45985897338E+02  0.00000000000E+00 0. -1.
        -12    1    6    6    0    0  0.43342267887E+02 -0.25415216882E+02 -0.14204103179E+02  0.52213427218E+02  0.00000000000E+00 0.  1.
</event>
<event>
12    1  0.8358445E-002  0.1880466E+03  0.7818608E-02  0.1160277E+00
         21   -1    0    0  501  502  0.00000000000E+00  0.00000000000E+00  0.52788824125E+02  0.52788824125E+02  0.00000000000E+00 0. -1.
         21   -1    0    0  502  503 -0.00000000000E+00 -0.00000000000E+00 -0.90032859579E+03  0.90032859579E+03  0.00000000000E+00 0. -1.
         -6    2    1    2    0  503 -0.31816986107E+02  0.64459673123E+02 -0.66537722340E+03  0.69143933876E+03  0.17376461002E+03 0.  0.
        -24    2    3    3    0    0 -0.44688737110E+02  0.10847839856E+03 -0.53267266378E+03  0.55095474776E+03  0.77758093882E+02 0.  0.
          6    2    1    2  501    0  0.31816986107E+02 -0.64459673123E+02 -0.18216254826E+03  0.26167808116E+03  0.17356512929E+03 0.  0.
         24    2    5    5    0    0  0.56195210551E+02  0.21027976883E+02 -0.11118254356E+03  0.14782428369E+03  0.76748832925E+02 0.  0.
          5    1    5    5  501    0 -0.24378224444E+02 -0.85487650006E+02 -0.70980004704E+02  0.11385379747E+03  0.47000000000E+01 0. -1.
        -13    1    6    6    0    0 -0.15999456546E+02 -0.14696265123E+01 -0.38376630768E+01  0.16518779305E+02  0.00000000000E+00 0.  1.
         14    1    6    6    0    0  0.72194667097E+02  0.22497603395E+02 -0.10734488048E+03  0.13130550438E+03  0.00000000000E+00 0. -1.
         -5    1    3    3    0  503  0.12871751002E+02 -0.44018725435E+02 -0.13270455962E+03  0.14048459100E+03  0.47000000000E+01 0.  1.
         13    1    4    4    0    0 -0.20462779271E+02  0.94802777730E+02 -0.27146632724E+03  0.28827115504E+03  0.00000000000E+00 0. -1.
        -14    1    4    4    0    0 -0.24225957839E+02  0.13675620828E+02 -0.26120633654E+03  0.26268359273E+03  0.00000000000E+00 0.  1.
</event>
<event>
12    1  0.8358445E-002  0.2540108E+03  0.7818608E-02  0.1110837E+00
         21   -1    0    0  503  502  0.00000000000E+00  0.00000000000E+00  0.34173387827E+03  0.34173387827E+03  0.00000000000E+00 0. -1.
         21   -1    0    0  501  503 -0.00000000000E+00 -0.00000000000E+00 -0.38861209593E+03  0.38861209593E+03  0.00000000000E+00 0.  1.
          6    2    1    2  501    0  0.20745700286E+02 -0.18520056955E+03 -0.28540596272E+03  0.38189662564E+03  0.17221740352E+03 0.  0.
         24    2    3    3    0    0  0.73970338543E+02 -0.12570780127E+03 -0.24404738122E+03  0.29186955271E+03  0.65989766149E+02 0.  0.
         -6    2    1    2    0  502 -0.20745700286E+02  0.18520056955E+03  0.23852774506E+03  0.34844934856E+03  0.17260309473E+03 0.  0.
        -24    2    5    5    0    0  0.26353078770E+01  0.16550929846E+03  0.25486673521E+03  0.31347120826E+03  0.76856183642E+02 0.  0.
          5    1    3    3  501    0 -0.53224638257E+02 -0.59492768285E+02 -0.41358581502E+02  0.90027072927E+02  0.47000000000E+01 0. -1.
        -11    1    4    4    0    0  0.68547311822E+01 -0.75962643599E+02 -0.12507194863E+03  0.14649335444E+03  0.00000000000E+00 0.  1.
         12    1    4    4    0    0  0.67115607361E+02 -0.49745157666E+02 -0.11897543259E+03  0.14537619827E+03  0.00000000000E+00 0. -1.
         -5    1    5    5    0  502 -0.23381008163E+02  0.19691271086E+02 -0.16338990158E+02  0.34978140304E+02  0.47000000000E+01 0.  1.
         13    1    6    6    0    0 -0.14232664133E+00  0.36317245408E+02  0.12539007203E+03  0.13054360472E+03  0.00000000000E+00 0. -1.
        -14    1    6    6    0    0  0.27776345184E+01  0.12919205306E+03  0.12947666319E+03  0.18292760354E+03  0.00000000000E+00 0.  1.
</event>
<event>
12    1  0.8358445E-002  0.1937763E+03  0.7818608E-02  0.1155808E+00
         21   -1    0    0  503  502  0.00000000000E+00  0.00000000000E+00  0.12777115287E+03  0.12777115287E+03  0.00000000000E+00 0.  1.
         21   -1    0    0  501  503 -0.00000000000E+00 -0.00000000000E+00 -0.12594515169E+04  0.12594515169E+04  0.00000000000E+00 0.  1.
          6    2    1    2  501    0 -0.56976920815E+02  0.60919596147E+02 -0.11735924964E+04  0.11889655239E+04  0.17135373579E+03 0.  0.
         24    2    3    3    0    0 -0.70430229411E+02  0.70333543136E+02 -0.11601404675E+04  0.11672247560E+04  0.81120293887E+02 0.  0.
         -6    2    1    2    0  502  0.56976920815E+02 -0.60919596147E+02  0.41912132371E+02  0.19825714585E+03  0.17490483796E+03 0.  0.
        -24    2    5    5    0    0  0.19896360558E+02 -0.10504948926E+03 -0.92574639742E+01  0.12103776354E+03  0.55974808673E+02 0.  0.
          5    1    3    3  501    0  0.13453308597E+02 -0.94139469896E+01 -0.13452028892E+02  0.21740767958E+02  0.47000000000E+01 0. -1.
        -11    1    4    4    0    0  0.74991496873E+01  0.27135848486E+02 -0.53801760876E+03  0.53875369034E+03  0.00000000000E+00 0.  1.
         12    1    4    4    0    0 -0.77929379099E+02  0.43197694650E+02 -0.62212285874E+03  0.62847106562E+03  0.00000000000E+00 0. -1.
         -5    1    5    5    0  502  0.37080560256E+02  0.44129893110E+02  0.51169596345E+02  0.77219382314E+02  0.47000000000E+01 0.  1.
         11    1    6    6    0    0 -0.87951660074E+01  0.22103836271E+01 -0.39168712941E+01  0.98783916510E+01  0.00000000000E+00 0. -1.
        -12    1    6    6    0    0  0.28691526566E+02 -0.10725987288E+03 -0.53405926801E+01  0.11115937189E+03  0.00000000000E+00 0.  1.
</event>
<event>
12    1  0.8358445E-002  0.3452210E+03  0.7818608E-02  0.1064806E+00
         21   -1    0    0  503  502  0.00000000000E+00  0.00000000000E+00  0.68273884184E+03  0.68273884184E+03  0.00000000000E+00 0.  1.
         21   -1    0    0  501  503 -0.00000000000E+00 -0.00000000000E+00 -0.63348516855E+03  0.63348516855E+03  0.00000000000E+00 0. -1.
          6    2    1    2  501    0 -0.90984132391E+01  0.29695315045E+03 -0.53612429899E+03  0.63765728819E+03  0.17582263374E+03 0.  0.
         24    2    3    3    0    0 -0.41439097220E+02  0.29848349083E+03 -0.49706821523E+03  0.58670898635E+03  0.79630590807E+02 0.  0.
         -6    2    1    2    0  502  0.90984132391E+01 -0.29695315045E+03  0.58537797228E+03  0.67856672220E+03  0.17181813456E+03 0.  0.
        -24    2    5    5    0    0 -0.25657409679E+02 -0.29766473665E+03  0.54555251677E+03  0.62549478528E+03  0.65981662214E+02 0.  0.
          5    1    3    3  501    0  0.32340683981E+02 -0.15303403886E+01 -0.39056083765E+02  0.50948301847E+02  0.47000000000E+01 0. -1.
        -11    1    4    4    0    0 -0.10350843245E+01 -0.23691782135E+01 -0.27155048907E+02  0.27277849734E+02  0.00000000000E+00 0.  1.
         12    1    4    4    0    0 -0.40404012896E+02  0.30085266905E+03 -0.46991316632E+03  0.55943113661E+03  0.00000000000E+00 0. -1.
         -5    1    5    5    0  502  0.34755822918E+02  0.71158619905E+00  0.39825455512E+02  0.53071936920E+02  0.47000000000E+01 0.  1.
         13    1    6    6    0    0  0.18100836855E+02 -0.48522811253E+02  0.73100129901E+02  0.89586452649E+02  0.00000000000E+00 0. -1.
        -14    1    6    6    0    0 -0.43758246534E+02 -0.24914192539E+03  0.47245238687E+03  0.53590833263E+03  0.00000000000E+00 0.  1.
</event>
<event>
12    1  0.8358445E-002  0.2089632E+03  0.7818608E-02  0.1142421E+00
         21   -1    0    0  503  502  0.00000000000E+00  0.00000000000E+00  0.38733060431E+03  0.38733060431E+03  0.00000000000E+00 0.  1.
         21   -1    0    0  501  503 -0.00000000000E+00 -0.00000000000E+00 -0.11422039471E+03  0.11422039471E+03  0.00000000000E+00 0. -1.
          6    2    1    2  501    0  0.61250041154E+02 -0.10183002199E+03  0.10721053743E+03  0.23486101942E+03  0.17188565440E+03 0.  0.
         24    2    3    3    0    0  0.10342462658E+03 -0.58293515782E+02  0.98168163262E+02  0.17339576453E+03  0.79588413175E+02 0.  0.
         -6    2    1    2    0  502 -0.61250041154E+02  0.10183002199E+03  0.16589967217E+03  0.26668997959E+03  0.17169718421E+03 0.  0.
        -24    2    5    5    0    0 -0.52562724208E+02 -0.11310808894E+02  0.82759778055E+02  0.12593967201E+03  0.78235834177E+02 0.  0.
          5    1    3    3  501    0 -0.42174585430E+02 -0.43536506207E+02  0.90423741699E+01  0.61465254896E+02  0.47000000000E+01 0. -1.
        -11    1    4    4    0    0 -0.20754055786E+01  0.10031260875E+02  0.27171611321E+02  0.29038422217E+02  0.00000000000E+00 0.  1.
         12    1    4    4    0    0  0.10550003216E+03 -0.68324776658E+02  0.70996551941E+02  0.14435734231E+03  0.00000000000E+00 0. -1.
         -5    1    5    5    0  502 -0.86873169454E+01  0.11314083088E+03  0.83139894114E+02  0.14075030757E+03  0.47000000000E+01 0.  1.
         11    1    6    6    0    0 -0.26323524491E+02  0.33590647857E+02  0.41843114917E+02  0.59767096559E+02  0.00000000000E+00 0. -1.
        -12    1    6    6    0    0 -0.26239199717E+02 -0.44901456751E+02  0.40916663138E+02  0.66172575456E+02  0.00000000000E+00 0.  1.
</event>
<event>
12    1  0.8358445E-002  0.2403086E+03  0.7818608E-02  0.1119712E+00
         21   -1    0    0  503  502  0.00000000000E+00  0.00000000000E+00  0.65300555617E+03  0.65300555617E+03  0.00000000000E+00 0. -1.
         21   -1    0    0  501  503 -0.00000000000E+00 -0.00000000000E+00 -0.25818442737E+03  0.25818442737E+03  0.00000000000E+00 0.  1.
          6    2    1    2  501    0  0.13096010606E+03  0.10509220461E+03 -0.17220126773E+03  0.29563741276E+03  0.17191068137E+03 0.  0.
         24    2    3    3    0    0  0.26565931714E+02 -0.97767340199E+01 -0.73067826114E+02  0.11140238367E+03  0.79184914085E+02 0.  0.
         -6    2    1    2    0  502 -0.13096010606E+03 -0.10509220461E+03  0.56702239652E+03  0.61555257078E+03  0.17086734149E+03 0.  0.
        -24    2    5    5    0    0 -0.24389537440E+02  0.13324647044E+02  0.21360566169E+03  0.22786027615E+03  0.74300275835E+02 0.  0.
          5    1    3    3  501    0  0.10439417434E+03  0.11486893863E+03 -0.99133441612E+02  0.18423502909E+03  0.47000000000E+01 0. -1.
        -11    1    4    4    0    0  0.38450881309E+02 -0.65343288980E+00 -0.84312856301E+02  0.92669061641E+02  0.00000000000E+00 0.  1.
         12    1    4    4    0    0 -0.11884949594E+02 -0.91233011301E+01  0.11245030186E+02  0.18733322030E+02  0.00000000000E+00 0. -1.
         -5    1    5    5    0  502 -0.10657056862E+03 -0.11841685165E+03  0.35341673484E+03  0.38769229463E+03  0.47000000000E+01 0.  1.
         11    1    6    6    0    0 -0.48040606533E+02  0.23558906007E+02  0.14795877041E+03  0.15733632661E+03  0.00000000000E+00 0. -1.
        -12    1    6    6    0    0  0.23651069093E+02 -0.10234258963E+02  0.65646891276E+02  0.70523949549E+02  0.00000000000E+00 0.  1.
</event>
<event>
12    1  0.8358445E-002  0.1793880E+03  0.7818608E-02  0.1170286E+00
         21   -1    0    0  503  502  0.00000000000E+00  0.00000000000E+00  0.54985326261E+03  0.54985326261E+03  0.00000000000E+00 0. -1.
         21   -1    0    0  501  503 -0.00000000000E+00 -0.00000000000E+00 -0.78156396792E+02  0.78156396792E+02  0.00000000000E+00 0. -1.
          6    2    1    2  501    0 -0.37247386001E+02  0.25269578624E+01  0.65301928633E+02  0.18378349255E+03  0.16768505292E+03 0.  0.
         24    2    3    3    0    0  0.38065362385E+02 -0.13402682353E+02  0.32888338801E+02  0.10012648859E+03  0.85528166003E+02 0.  0.
         -6    2    1    2    0  502  0.37247386001E+02 -0.25269578624E+01  0.40639493719E+03  0.44422616685E+03  0.17546022074E+03 0.  0.
        -24    2    5    5    0    0  0.67192530294E+01  0.42467131844E+02  0.36299519067E+03  0.37449767189E+03  0.81451778103E+02 0.  0.
          5    1    3    3  501    0 -0.75312748386E+02  0.15929640216E+02  0.32413589831E+02  0.83657003966E+02  0.47000000000E+01 0. -1.
        -13    1    4    4    0    0  0.26006649268E+02  0.29652288814E+02 -0.71784498966E+01  0.40089078076E+02  0.00000000000E+00 0.  1.
         14    1    4    4    0    0  0.12058713117E+02 -0.43054971167E+02  0.40066788698E+02  0.60037410511E+02  0.00000000000E+00 0. -1.
         -5    1    5    5    0  502  0.30528132971E+02 -0.44994089707E+02  0.43399746521E+02  0.69728494959E+02  0.47000000000E+01 0.  1.
         11    1    6    6    0    0  0.42448924485E+02  0.10103291959E+02  0.18656151117E+03  0.19159641215E+03  0.00000000000E+00 0. -1.
        -12    1    6    6    0    0 -0.35729671455E+02  0.32363839885E+02  0.17643367949E+03  0.18290125974E+03  0.00000000000E+00 0.  1.
</event>
<event>
12    1  0.8358445E-002  0.3060349E+03  0.7818608E-02  0.1082263E+00
         21   -1    0    0  501  502  0.00000000000E+00  0.00000000000E+00  0.14917021967E+03  0.14917021967E+03  0.00000000000E+00 0. -1.
         21   -1    0    0  502  503 -0.00000000000E+00 -0.00000000000E+00 -0.70730369200E+03  0.70730369200E+03  0.00000000000E+00 0.  1.
         -6    2    1    2    0  503 -0.18043074277E+03  0.17840316561E+03 -0.42259792312E+03  0.52177234615E+03  0.17109773274E+03 0.  0.
        -24    2    3    3    0    0 -0.15518243705E+02  0.50450049066E+02 -0.15415547338E+03  0.18169651461E+03  0.80397077736E+02 0.  0.
          6    2    1    2  501    0  0.18043074277E+03 -0.17840316561E+03 -0.13553554921E+03  0.33470156551E+03  0.17109152645E+03 0.  0.
         24    2    5    5    0    0  0.63660401022E+02 -0.11443413485E+03 -0.12992737899E+03  0.20135655743E+03  0.80718780533E+02 0.  0.
          5    1    5    5  501    0  0.11677034174E+03 -0.63969030766E+02 -0.56081702150E+01  0.13334500809E+03  0.47000000000E+01 0. -1.
        -11    1    6    6    0    0  0.15158976958E+02 -0.38657513696E+02 -0.97064364989E+02  0.10557314478E+03  0.00000000000E+00 0.  1.
         12    1    6    6    0    0  0.48501424064E+02 -0.75776621150E+02 -0.32863014001E+02  0.95783412648E+02  0.00000000000E+00 0. -1.
         -5    1    3    3    0  503 -0.16491249906E+03  0.12795311655E+03 -0.26844244974E+03  0.34007583155E+03  0.47000000000E+01 0.  1.
         13    1    4    4    0    0  0.25199631230E+02  0.79064494936E+00 -0.17459049913E+02  0.30667001115E+02  0.00000000000E+00 0. -1.
        -14    1    4    4    0    0 -0.40717874935E+02  0.49659404116E+02 -0.13669642347E+03  0.15102951349E+03  0.00000000000E+00 0.  1.
</event>
<event>
12    1  0.8358445E-002  0.1858462E+03  0.7818608E-02  0.1162698E+00
         21   -1    0    0  503  502  0.00000000000E+00  0.00000000000E+00  0.11233915964E+04  0.11233915964E+04  0.00000000000E+00 0. -1.
         21   -1    0    0  501  503 -0.00000000000E+00 -0.00000000000E+00 -0.38954131291E+02  0.38954131291E+02  0.00000000000E+00 0. -1.
          6    2    1    2  501    0  0.67183666040E+02  0.30093210124E+01  0.27260407733E+03  0.32992695680E+03  0.17325158831E+03 0.  0.
         24    2    3    3    0    0 -0.10863304067E+02 -0.21473402125E+02  0.65777734691E+02  0.10746356817E+03  0.81502084193E+02 0.  0.
         -6    2    1    2    0  502 -0.67183666040E+02 -0.30093210124E+01  0.81183338780E+03  0.83241877091E+03  0.17124502801E+03 0.  0.
        -24    2    5    5    0    0 -0.58439019709E+02  0.30327225173E+02  0.77438091954E+03  0.78130545044E+03  0.80234273969E+02 0.  0.
          5    1    3    3  501    0  0.78046970106E+02  0.24482723137E+02  0.20682634264E+03  0.22246338863E+03  0.47000000000E+01 0. -1.
        -13    1    4    4    0    0 -0.14027145272E+01 -0.25766768714E+02  0.83237989087E+02  0.87146180669E+02  0.00000000000E+00 0.  1.
         14    1    4    4    0    0 -0.94605895394E+01  0.42933665890E+01 -0.17460254396E+02  0.20317387496E+02  0.00000000000E+00 0. -1.
         -5    1    5    5    0  502 -0.87446463302E+01 -0.33336546185E+02  0.37452468258E+02  0.51113320471E+02  0.47000000000E+01 0.  1.
         11    1    6    6    0    0 -0.17081651325E+02  0.19596642329E+02  0.56944011475E+02  0.62597377305E+02  0.00000000000E+00 0. -1.
        -12    1    6    6    0    0 -0.41357368384E+02  0.10730582844E+02  0.71743690807E+03  0.71870807313E+03  0.00000000000E+00 0.  1.
</event>
<event>
12    1  0.8358445E-002  0.2056175E+03  0.7818608E-02  0.1145549E+00
         21   -1    0    0  501  502  0.00000000000E+00  0.00000000000E+00  0.86994065123E+03  0.86994065123E+03  0.00000000000E+00 0.  1.
         21   -1    0    0  502  503 -0.00000000000E+00 -0.00000000000E+00 -0.48432333395E+02  0.48432333395E+02  0.00000000000E+00 0.  1.
         -6    2    1    2    0  503  0.25816187514E+02  0.10833832217E+03  0.45302174402E+03  0.49750099530E+03  0.17284349044E+03 0.  0.
        -24    2    3    3    0    0 -0.38467127890E+02  0.37923621325E+02  0.13880585426E+03  0.16910445130E+03  0.80070776763E+02 0.  0.
          6    2    1    2  501    0 -0.25816187514E+02 -0.10833832217E+03  0.36848657382E+03  0.42087198932E+03  0.17013879253E+03 0.  0.
         24    2    5    5    0    0 -0.59841948860E+02 -0.12877279291E+03  0.30015479267E+03  0.34170986237E+03  0.80679857703E+02 0.  0.
          5    1    5    5  501    0  0.34025761345E+02  0.20434470734E+02  0.68331781152E+02  0.79162126960E+02  0.47000000000E+01 0. -1.
        -13    1    6    6    0    0 -0.36008011709E+02 -0.25587384702E+02  0.35558052392E+02  0.56706844851E+02  0.00000000000E+00 0.  1.
         14    1    6    6    0    0 -0.23833937151E+02 -0.10318540820E+03  0.26459674028E+03  0.28500301751E+03  0.00000000000E+00 0. -1.
         -5    1    3    3    0  503  0.64283315404E+02  0.70414700847E+02  0.31421588976E+03  0.32839654400E+03  0.47000000000E+01 0.  1.
         13    1    4    4    0    0 -0.68463196517E+00 -0.36316636628E+01 -0.96748208888E+01  0.10356633677E+02  0.00000000000E+00 0. -1.
        -14    1    4    4    0    0 -0.37782495925E+02  0.41555284988E+02  0.14848067515E+03  0.15874781763E+03  0.00000000000E+00 0.  1.
</event>
<event>
12    1  0.8358445E-002  0.2402541E+03  0.7818608E-02  0.1119894E+00
         21   -1    0    0  503  502  0.00000000000E+00  0.00000000000E+00  0.10549187170E+04  0.10549187170E+04  0.00000000000E+00 0.  1.
         21   -1    0    0  501  503 -0.00000000000E+00 -0.00000000000E+00 -0.10604367053E+03  0.10604367053E+03  0.00000000000E+00 0.  1.
          6    2    1    2  501    0 -0.16095559175E+03 -0.37390155108E+02  0.69967143414E+02  0.25023476166E+03  0.17440558642E+03 0.  0.
         24    2    3    3    0    0 -0.14667418948E+03  0.26112138897E+02  0.26966872738E+02  0.17208354240E+03  0.81794692262E+02 0.  0.
         -6    2    1    2    0  502  0.16095559175E+03  0.37390155108E+02  0.87890790308E+03  0.91072762590E+03  0.17216556063E+03 0.  0.
        -24    2    5    5    0    0  0.63016265589E+02  0.67388633419E+01  0.67311026953E+03  0.68071378008E+03  0.79229750933E+02 0.  0.
          5    1    3    3  501    0 -0.14281402274E+02 -0.63502294005E+02  0.43000270676E+02  0.78151219267E+02  0.47000000000E+01 0. -1.
        -13    1    4    4    0    0 -0.69680239340E+02 -0.24411412235E+02  0.30596822760E+02  0.79921326095E+02  0.00000000000E+00 0.  1.
         14    1    4    4    0    0 -0.76993950136E+02  0.50523551132E+02 -0.36299500218E+01  0.92162216301E+02  0.00000000000E+00 0. -1.
         -5    1    5    5    0  502  0.97939326160E+02  0.30651291766E+02  0.20579763355E+03  0.23001384583E+03  0.47000000000E+01 0.  1.
         13    1    6    6    0    0 -0.15041235238E+02 -0.13470850610E+02  0.16787182041E+03  0.16908178690E+03  0.00000000000E+00 0. -1.
        -14    1    6    6    0    0  0.78057500827E+02  0.20209713952E+02  0.50523844912E+03  0.51163199317E+03  0.00000000000E+00 0.  1.
</event>
<event>
12    1  0.8358445E-002  0.2311029E+03  0.7818608E-02  0.1125920E+00
         21   -1    0    0  501  502  0.00000000000E+00  0.00000000000E+00  0.24822299840E+03  0.24822299840E+03  0.00000000000E+00 0. -1.
         21   -1    0    0  502  503 -0.00000000000E+00 -0.00000000000E+00 -0.21554853954E+03  0.21554853954E+03  0.00000000000E+00 0. -1.
         -6    2    1    2    0  503  0.62021795452E+02 -0.14119965604E+03  0.29298171345E+02  0.23295264355E+03  0.17211770774E+03 0.  0.
        -24    2    3    3    0    0  0.82617092742E+02 -0.95556707596E+02 -0.32224834229E+02  0.15348809028E+03  0.81015341364E+02 0.  0.
          6    2    1    2  501    0 -0.62021795452E+02  0.14119965604E+03  0.33762875212E+01  0.23081889438E+03  0.17170298981E+03 0.  0.
         24    2    5    5    0    0 -0.87405934206E+02  0.72346013936E+02  0.46979769536E+02  0.14532894074E+03  0.77715244339E+02 0.  0.
          5    1    5    5  501    0  0.25384138754E+02  0.68853642100E+02 -0.43603482015E+02  0.85489953647E+02  0.47000000000E+01 0. -1.
        -11    1    6    6    0    0 -0.58333786276E+01 -0.75347455546E+01  0.28017966212E+02  0.29594038714E+02  0.00000000000E+00 0.  1.
         12    1    6    6    0    0 -0.81572555579E+02  0.79880759490E+02  0.18961803324E+02  0.11573490202E+03  0.00000000000E+00 0. -1.
         -5    1    3    3    0  503 -0.20595297290E+02 -0.45642948440E+02  0.61523005573E+02  0.79464553277E+02  0.47000000000E+01 0.  1.
         13    1    4    4    0    0  0.68527878520E+01  0.73846418011E+01 -0.23270874584E+02  0.25357981777E+02  0.00000000000E+00 0. -1.
        -14    1    4    4    0    0  0.75764304890E+02 -0.10294134940E+03 -0.89539596446E+01  0.12813010850E+03  0.00000000000E+00 0.  1.
</event>
<event>
12    1  0.8358445E-002  0.4531823E+03  0.7818608E-02  0.1026783E+00
         21   -1    0    0  501  502  0.00000000000E+00  0.00000000000E+00  0.10183974932E+04  0.10183974932E+04  0.00000000000E+00 0. -1.
         21   -1    0    0  502  503 -0.00000000000E+00 -0.00000000000E+00 -0.20240804699E+03  0.20240804699E+03  0.00000000000E+00 0.  1.
         -6    2    1    2    0  503  0.13772570401E+03  0.39576080770E+03  0.37023595117E+03  0.58519133091E+03  0.17256664737E+03 0.  0.
        -24    2    3    3    0    0  0.11527138071E+03  0.17151838828E+03  0.23286535111E+03  0.32121854621E+03  0.79050831466E+02 0.  0.
          6    2    1    2  501    0 -0.13772570401E+03 -0.39576080770E+03  0.44575349506E+03  0.63561420931E+03  0.17237824184E+03 0.  0.
         24    2    5    5    0    0 -0.64048607901E+02 -0.86104169718E+02  0.11600708261E+03  0.17727990504E+03  0.80339089496E+02 0.  0.
          5    1    5    5  501    0 -0.73677096111E+02 -0.30965663798E+03  0.32974641246E+03  0.45833430426E+03  0.47000000000E+01 0. -1.
        -13    1    6    6    0    0 -0.18649589894E+02 -0.51381011134E+02  0.82186365478E+01  0.55275324468E+02  0.00000000000E+00 0.  1.
         14    1    6    6    0    0 -0.45399018007E+02 -0.34723158584E+02  0.10778844606E+03  0.12200458058E+03  0.00000000000E+00 0. -1.
         -5    1    3    3    0  503  0.22454323302E+02  0.22424241942E+03  0.13737060006E+03  0.26397278470E+03  0.47000000000E+01 0.  1.
         13    1    4    4    0    0  0.79687258886E+02  0.16702839671E+03  0.20128451013E+03  0.27343006154E+03  0.00000000000E+00 0. -1.
        -14    1    4    4    0    0  0.35584121825E+02  0.44899915704E+01  0.31580840975E+02  0.47788484670E+02  0.00000000000E+00 0.  1.
</event>
<event>
12    1  0.8358445E-002  0.1833212E+03  0.7818608E-02  0.1164825E+00
         21   -1    0    0  503  502  0.00000000000E+00  0.00000000000E+00  0.11286312969E+03  0.11286312969E+03  0.00000000000E+00 0. -1.
         21   -1    0    0  501  503 -0.00000000000E+00 -0.00000000000E+00 -0.33108240284E+03  0.33108240284E+03  0.00000000000E+00 0. -1.
          6    2    1    2  501    0  0.26709814907E+02  0.54902171207E+02 -0.37497097187E+02  0.18711676067E+03  0.17285539393E+03 0.  0.
         24    2    3    3    0    0 -0.36442345602E+02  0.31531673837E+01 -0.48215918501E+02  0.10463562402E+03  0.85357202383E+02 0.  0.
         -6    2    1    2    0  502 -0.26709814907E+02 -0.54902171207E+02 -0.18072217596E+03  0.25682877186E+03  0.17196758577E+03 0.  0.
        -24    2    5    5    0    0 -0.16445289449E+02 -0.10332848952E+03 -0.13160522179E+03  0.18693575379E+03  0.81717913290E+02 0.  0.
          5    1    3    3  501    0  0.63152160508E+02  0.51749003824E+02  0.10718821314E+02  0.82481136655E+02  0.47000000000E+01 0. -1.
        -11    1    4    4    0    0  0.21526031481E+02  0.53350607819E+01  0.82689813928E+01  0.23668733767E+02  0.00000000000E+00 0.  1.
         12    1    4    4    0    0 -0.57968377083E+02 -0.21818933983E+01 -0.56484899893E+02  0.80966890248E+02  0.00000000000E+00 0. -1.
         -5    1    5    5    0  502 -0.10264525457E+02  0.48426318308E+02 -0.49116954165E+02  0.69893018065E+02  0.47000000000E+01 0.  1.
         11    1    6    6    0    0  0.12716397392E+02 -0.48300874358E+02 -0.10915826275E+02  0.51125693048E+02  0.00000000000E+00 0. -1.
        -12    1    6    6    0    0 -0.29161686841E+02 -0.55027615157E+02 -0.12068939552E+03  0.13581006074E+03  0.00000000000E+00 0.  1.
</event>
<event>
12    1  0.8358445E-002  0.1902498E+03  0.7818608E-02  0.1158245E+00
         21   -1    0    0  503  502  0.00000000000E+00  0.00000000000E+00  0.17395619050E+03  0.17395619050E+03  0.00000000000E+00 0.  1.
         21   -1    0    0  501  503 -0.00000000000E+00 -0.00000000000E+00 -0.97837006196E+03  0.97837006196E+03  0.00000000000E+00 0.  1.
          6    2    1    2  501    0 -0.29480124588E+02  0.75276543584E+02 -0.91347004595E+03  0.93307153679E+03  0.17221884961E+03 0.  0.
         24    2    3    3    0    0 -0.18595020161E+02 -0.12090520960E+02 -0.65027717992E+03  0.65550341147E+03  0.79576103512E+02 0.  0.
         -6    2    1    2    0  502  0.29480124588E+02 -0.75276543584E+02  0.10905617449E+03  0.21925471567E+03  0.17217359086E+03 0.  0.
        -24    2    5    5    0    0  0.75220189628E+02 -0.48154306523E+02  0.30066450229E+02  0.12391723180E+03  0.80464742232E+02 0.  0.
          5    1    3    3  501    0 -0.10885104427E+02  0.87367064544E+02 -0.26319286603E+03  0.27756812532E+03  0.47000000000E+01 0. -1.
        -11    1    4    4    0    0 -0.21846435600E+02  0.31806450160E+02 -0.30760173698E+03  0.31001249267E+03  0.00000000000E+00 0.  1.
         12    1    4    4    0    0  0.32514154396E+01 -0.43896971121E+02 -0.34267544294E+03  0.34549091880E+03  0.00000000000E+00 0. -1.
         -5    1    5    5    0  502 -0.45740065040E+02 -0.27122237060E+02  0.78989724262E+02  0.95337483877E+02  0.47000000000E+01 0.  1.
         13    1    6    6    0    0  0.50814771386E+02 -0.61708330355E+02 -0.37997525826E+01  0.80028102226E+02  0.00000000000E+00 0. -1.
        -14    1    6    6    0    0  0.24405418242E+02  0.13554023831E+02  0.33866202812E+02  0.43889129571E+02  0.00000000000E+00 0.  1.
</event>
<event>
12    1  0.8358445E-002  0.1942957E+03  0.7818608E-02  0.1154886E+00
         21   -1    0    0  501  502  0.00000000000E+00  0.00000000000E+00  0.45309001037E+03  0.45309001037E+03  0.00000000000E+00 0.  1.
         21   -1    0    0  502  503 -0.00000000000E+00 -0.00000000000E+00 -0.11559141474E+03  0.11559141474E+03  0.00000000000E+00 0.  1.
         -6    2    1    2    0  503 -0.39168709772E+02  0.76945399601E+02  0.17752738941E+02  0.19510500984E+03  0.17405752721E+03 0.  0.
        -24    2    3    3    0    0 -0.70589142027E+01  0.39790487712E+02  0.77125446304E+02  0.11791216801E+03  0.79509959853E+02 0.  0.
          6    2    1    2  501    0  0.39168709772E+02 -0.76945399601E+02  0.31974585669E+03  0.37357641528E+03  0.17282112960E+03 0.  0.
         24    2    5    5    0    0  0.52592903490E+02 -0.97694538598E+02  0.15382088021E+03  0.20575530944E+03  0.79775609077E+02 0.  0.
          5    1    5    5  501    0 -0.13424193718E+02  0.20749138997E+02  0.16592497648E+03  0.16782110584E+03  0.47000000000E+01 0. -1.
        -13    1    6    6    0    0  0.19397645084E+01 -0.95562634143E+01  0.78831495855E+02  0.79432295671E+02  0.00000000000E+00 0.  1.
         14    1    6    6    0    0  0.50653138982E+02 -0.88138275184E+02  0.74989384354E+02  0.12632301377E+03  0.00000000000E+00 0. -1.
         -5    1    3    3    0  503 -0.32109795569E+02  0.37154911889E+02 -0.59372707364E+02  0.77192841823E+02  0.47000000000E+01 0.  1.
         13    1    4    4    0    0 -0.42094051520E+02  0.12996509171E+02  0.29609493843E+02  0.53080510073E+02  0.00000000000E+00 0. -1.
        -14    1    4    4    0    0  0.35035137318E+02  0.26793978541E+02  0.47515952461E+02  0.64831657940E+02  0.00000000000E+00 0.  1.
</event>
<event>
12    1  0.8358445E-002  0.2800983E+03  0.7818608E-02  0.1096352E+00
         21   -1    0    0  503  502  0.00000000000E+00  0.00000000000E+00  0.82523228855E+02  0.82523228855E+02  0.00000000000E+00 0. -1.
         21   -1    0    0  501  503 -0.00000000000E+00 -0.00000000000E+00 -0.10084707071E+04  0.10084707071E+04  0.00000000000E+00 0.  1.
          6    2    1    2  501    0 -0.14917446470E+03 -0.16311844687E+03 -0.30987958165E+03  0.41424088330E+03  0.16343043060E+03 0.  0.
         24    2    3    3    0    0 -0.77747512619E+01 -0.58873376842E+02 -0.13863178990E+03  0.16886604807E+03  0.75963463335E+02 0.  0.
         -6    2    1    2    0  502  0.14917446470E+03  0.16311844687E+03 -0.61606789663E+03  0.67675305269E+03  0.17203020794E+03 0.  0.
        -24    2    5    5    0    0  0.67363917947E+01  0.29334829012E+02 -0.18919858347E+03  0.20725740677E+03  0.79079817323E+02 0.  0.
          5    1    3    3  501    0 -0.14139971344E+03 -0.10424507002E+03 -0.17124779176E+03  0.24537483523E+03  0.47000000000E+01 0. -1.
        -13    1    4    4    0    0 -0.20849814149E+02  0.90059968333E+01 -0.60076276893E+02  0.64226021007E+02  0.00000000000E+00 0.  1.
         14    1    4    4    0    0  0.13075062887E+02 -0.67879373675E+02 -0.78555513005E+02  0.10464002706E+03  0.00000000000E+00 0. -1.
         -5    1    5    5    0  502  0.14243807291E+03  0.13378361785E+03 -0.42686931316E+03  0.46949564592E+03  0.47000000000E+01 0.  1.
         11    1    6    6    0    0 -0.84744512769E+01 -0.11828757298E+02 -0.16515367248E+01  0.14644568864E+02  0.00000000000E+00 0. -1.
        -12    1    6    6    0    0  0.15210843072E+02  0.41163586310E+02 -0.18754704674E+03  0.19261283791E+03  0.00000000000E+00 0.  1.
</event>
<event>
12    1  0.8358445E-002  0.1853349E+03  0.7818608E-02  0.1162801E+00
         21   -1    0    0  501  502  0.00000000000E+00  0.00000000000E+00  0.43349044554E+02  0.43349044554E+02  0.00000000000E+00 0. -1.
         21   -1    0    0  502  503 -0.00000000000E+00 -0.00000000000E+00 -0.14640060752E+04  0.14640060752E+04  0.00000000000E+00 0. -1.
         -6    2    1    2    0  503  0.41295540556E+02  0.53969892979E+02 -0.12215296452E+04  0.12355094857E+04  0.17242663420E+03 0.  0.
        -24    2    3    3    0    0  0.62838941135E+02  0.20203773343E+02 -0.11383373031E+04  0.11430577430E+04  0.80076608770E+02 0.  0.
          6    2    1    2  501    0 -0.41295540556E+02 -0.53969892979E+02 -0.19912738546E+03  0.27184563405E+03  0.17213443030E+03 0.  0.
         24    2    5    5    0    0 -0.43533499368E+01  0.37970285549E+02 -0.10282306466E+03  0.13359103528E+03  0.76244920101E+02 0.  0.
          5    1    5    5  501    0 -0.36942190619E+02 -0.91940178528E+02 -0.96304320802E+02  0.13825459877E+03  0.47000000000E+01 0. -1.
        -13    1    6    6    0    0 -0.12642534523E+02 -0.19459063235E+02 -0.50005335809E+02  0.55127329252E+02  0.00000000000E+00 0.  1.
         14    1    6    6    0    0  0.82891845864E+01  0.57429348784E+02 -0.52817728853E+02  0.78463706030E+02  0.00000000000E+00 0. -1.
         -5    1    3    3    0  503 -0.21543400579E+02  0.33766119636E+02 -0.83192342101E+02  0.92451742699E+02  0.47000000000E+01 0.  1.
         13    1    4    4    0    0 -0.86049140450E+01 -0.18269352219E+02 -0.34236122501E+03  0.34295629775E+03  0.00000000000E+00 0. -1.
        -14    1    4    4    0    0  0.71443855180E+02  0.38473125562E+02 -0.79597607806E+03  0.80010144524E+03  0.00000000000E+00 0.  1.
</event>
<event>
12    1  0.8358445E-002  0.2916123E+03  0.7818608E-02  0.1089552E+00
         21   -1    0    0  503  502  0.00000000000E+00  0.00000000000E+00  0.54432953303E+03  0.54432953303E+03  0.00000000000E+00 0.  1.
         21   -1    0    0  501  503 -0.00000000000E+00 -0.00000000000E+00 -0.15704526378E+03  0.15704526378E+03  0.00000000000E+00 0.  1.
          6    2    1    2  501    0  0.11872205855E+03 -0.20170588814E+03  0.22164116181E+03  0.36628202822E+03  0.17394690884E+03 0.  0.
         24    2    3    3    0    0  0.28244982269E+02 -0.17361916070E+03  0.11817668334E+03  0.22591837945E+03  0.78307047601E+02 0.  0.
         -6    2    1    2    0  502 -0.11872205855E+03  0.20170588814E+03  0.16564310744E+03  0.33509276858E+03  0.17340510954E+03 0.  0.
        -24    2    5    5    0    0 -0.78708029305E+02  0.11127032802E+03  0.20829157334E+02  0.15967075395E+03  0.80528604214E+02 0.  0.
          5    1    3    3  501    0  0.90477076285E+02 -0.28086727434E+02  0.10346447847E+03  0.14036364877E+03  0.47000000000E+01 0. -1.
        -11    1    4    4    0    0  0.55233094192E+02 -0.11424023858E+03  0.85104917165E+02  0.15278865708E+03  0.00000000000E+00 0.  1.
         12    1    4    4    0    0 -0.26988111923E+02 -0.59378922120E+02  0.33071766174E+02  0.73129722379E+02  0.00000000000E+00 0. -1.
         -5    1    5    5    0  502 -0.40014029250E+02  0.90435560120E+02  0.14481395011E+03  0.17542201463E+03  0.47000000000E+01 0.  1.
         11    1    6    6    0    0 -0.28013029286E+02  0.99921389574E+01 -0.23643585794E+02  0.37994628567E+02  0.00000000000E+00 0. -1.
        -12    1    6    6    0    0 -0.50695000018E+02  0.10127818906E+03  0.44472743128E+02  0.12167612538E+03  0.00000000000E+00 0.  1.
</event>
<event>
12    1  0.8358445E-002  0.1753025E+03  0.7818608E-02  0.1172500E+00
         21   -1    0    0  503  502  0.00000000000E+00  0.00000000000E+00  0.67162736267E+03  0.67162736267E+03  0.00000000000E+00 0.  1.
         21   -1    0    0  501  503 -0.00000000000E+00 -0.00000000000E+00 -0.21380098041E+03  0.21380098041E+03  0.00000000000E+00 0.  1.
          6    2    1    2  501    0  0.30068954358E+02 -0.10005067855E+02 -0.16370627486E+03  0.23964679739E+03  0.17212379171E+03 0.  0.
         24    2    3    3    0    0  0.70711014309E+02  0.24811525896E+02 -0.14640074972E+03  0.18320617870E+03  0.80719669436E+02 0.  0.
         -6    2    1    2    0  502 -0.30068954358E+02  0.10005067855E+02  0.62153265712E+03  0.64578154569E+03  0.17241437729E+03 0.  0.
        -24    2    5    5    0    0  0.35054015169E+02  0.47555095293E+02  0.40583784738E+03  0.41731415925E+03  0.77178222822E+02 0.  0.
          5    1    3    3  501    0 -0.40642059951E+02 -0.34816593751E+02 -0.17305525141E+02  0.56440618688E+02  0.47000000000E+01 0. -1.
        -11    1    4    4    0    0 -0.42112441301E+01 -0.18832073852E+02 -0.49753650226E+02  0.53364850730E+02  0.00000000000E+00 0.  1.
         12    1    4    4    0    0  0.74922258439E+02  0.43643599748E+02 -0.96647099494E+02  0.12984132797E+03  0.00000000000E+00 0. -1.
         -5    1    5    5    0  502 -0.65122969527E+02 -0.37550027438E+02  0.21569480974E+03  0.22846738644E+03  0.47000000000E+01 0.  1.
         11    1    6    6    0    0  0.36528512573E+02  0.39540505550E+02  0.12187025070E+03  0.13322965817E+03  0.00000000000E+00 0. -1.
        -12    1    6    6    0    0 -0.14744974046E+01  0.80145897429E+01  0.28396759668E+03  0.28408450108E+03  0.00000000000E+00 0.  1.
</event>
<event>
12    1  0.8358445E-002  0.1795563E+03  0.7818608E-02  0.1168365E+00
         21   -1    0    0  503  502  0.00000000000E+00  0.00000000000E+00  0.43738296090E+03  0.43738296090E+03  0.00000000000E+00 0. -1.
         21   -1    0    0  501  503 -0.00000000000E+00 -0.00000000000E+00 -0.13525866359E+03  0.13525866359E+03  0.00000000000E+00 0. -1.
          6    2    1    2  501    0 -0.48364349923E+02 -0.63647650308E+01 -0.42550627266E+02  0.18400134050E+03  0.17223912694E+03 0.  0.
         24    2    3    3    0    0  0.18156192395E+02 -0.25341853455E+02 -0.68754810518E+02  0.10988075190E+03  0.79841710963E+02 0.  0.
         -6    2    1    2    0  502  0.48364349923E+02  0.63647650308E+01  0.34467492458E+03  0.38864028398E+03  0.17280291121E+03 0.  0.
        -24    2    5    5    0    0  0.27022456839E+02 -0.15819940612E+02  0.34686849269E+03  0.35742267187E+03  0.80328895490E+02 0.  0.
          5    1    3    3  501    0 -0.66520542317E+02  0.18977088424E+02  0.26204183252E+02  0.74120588605E+02  0.47000000000E+01 0. -1.
        -11    1    4    4    0    0  0.57622596014E+01 -0.48457995331E+01  0.18195550766E+02  0.19691710858E+02  0.00000000000E+00 0.  1.
         12    1    4    4    0    0  0.12393932793E+02 -0.20496053922E+02 -0.86950361283E+02  0.90189041040E+02  0.00000000000E+00 0. -1.
         -5    1    5    5    0  502  0.21341893084E+02  0.22184705642E+02 -0.21935681125E+01  0.31217612111E+02  0.47000000000E+01 0.  1.
         13    1    6    6    0    0  0.38793858453E+02 -0.41591388467E+02  0.20446670812E+03  0.21222969109E+03  0.00000000000E+00 0. -1.
        -14    1    6    6    0    0 -0.11771401614E+02  0.25771447856E+02  0.14240178457E+03  0.14519298078E+03  0.00000000000E+00 0.  1.
</event>
<event>
12    1  0.8358445E-002  0.1914151E+03  0.7818608E-02  0.1158297E+00
         21   -1    0    0  503  502  0.00000000000E+00  0.00000000000E+00  0.11394033470E+04  0.11394033470E+04  0.00000000000E+00 0.  1.
         21   -1    0    0  501  503 -0.00000000000E+00 -0.00000000000E+00 -0.31478819567E+02  0.31478819567E+02  0.00000000000E+00 0.  1.
          6    2    1    2  501    0 -0.64402681983E+02  0.31181077423E+02  0.58551060521E+03  0.61450456350E+03  0.17225917891E+03 0.  0.
         24    2    3    3    0    0 -0.35556352429E+02 -0.33344944834E+02  0.21575703415E+03  0.23802679313E+03  0.87917671244E+02 0.  0.
         -6    2    1    2    0  502  0.64402681983E+02 -0.31181077423E+02  0.52241392222E+03  0.55637760306E+03  0.17753806921E+03 0.  0.
        -24    2    5    5    0    0 -0.35483013401E+02 -0.25335833250E+02  0.26486355069E+03  0.28003433302E+03  0.79784575564E+02 0.  0.
          5    1    3    3  501    0 -0.28846329554E+02  0.64526022257E+02  0.36975357106E+03  0.37647777038E+03  0.47000000000E+01 0. -1.
        -13    1    4    4    0    0 -0.26942123110E+02 -0.38804036001E+02  0.22139152458E+03  0.22637543675E+03  0.00000000000E+00 0.  1.
         14    1    4    4    0    0 -0.86142293186E+01  0.54590911671E+01 -0.56344904269E+01  0.11651356380E+02  0.00000000000E+00 0. -1.
         -5    1    5    5    0  502  0.99885695384E+02 -0.58452441739E+01  0.25755037153E+03  0.27634327004E+03  0.47000000000E+01 0.  1.
         11    1    6    6    0    0 -0.85348874998E+01 -0.52009513966E+02  0.16508581734E+03  0.17329501128E+03  0.00000000000E+00 0. -1.
        -12    1    6    6    0    0 -0.26948125901E+02  0.26673680716E+02  0.99777733349E+02  0.10673932174E+03  0.00000000000E+00 0.  1.
</event>
<event>
12    1  0.8358445E-002  0.2107081E+03  0.7818608E-02  0.1141209E+00
         21   -1    0    0  501  502  0.00000000000E+00  0.00000000000E+00  0.73500867096E+03  0.73500867096E+03  0.00000000000E+00 0. -1.
         21   -1    0    0  502  503 -0.00000000000E+00 -0.00000000000E+00 -0.64350330137E+02  0.64350330137E+02  0.00000000000E+00 0. -1.
         -6    2    1    2    0  503 -0.11657024738E+03 -0.31897312969E+02  0.23351376778E+03  0.31452599612E+03  0.17260319041E+03 0.  0.
        -24    2    3    3    0    0 -0.14657886400E+03 -0.97060478293E+01  0.15690620686E+03  0.22918094524E+03  0.79528467691E+02 0.  0.
          6    2    1    2  501    0  0.11657024738E+03  0.31897312969E+02  0.43714457304E+03  0.48483300498E+03  0.17135227990E+03 0.  0.
         24    2    5    5    0    0  0.80857133830E+02 -0.34610473847E+02  0.34992186763E+03  0.36938343796E+03  0.79139432638E+02 0.  0.
          5    1    5    5  501    0  0.35713113551E+02  0.66507786816E+02  0.87222705406E+02  0.11544956702E+03  0.47000000000E+01 0. -1.
        -11    1    6    6    0    0  0.56938675716E+01  0.21471767868E+02  0.42211933378E+02  0.47700149505E+02  0.00000000000E+00 0.  1.
         12    1    6    6    0    0  0.75163266259E+02 -0.56082241715E+02  0.30770993425E+03  0.32168328845E+03  0.00000000000E+00 0. -1.
         -5    1    3    3    0  503  0.30008616615E+02 -0.22191265140E+02  0.76607560917E+02  0.85345050878E+02  0.47000000000E+01 0.  1.
         13    1    4    4    0    0 -0.60941163556E+02 -0.43441724188E+02  0.65346422724E+02  0.99353730573E+02  0.00000000000E+00 0. -1.
        -14    1    4    4    0    0 -0.85637700440E+02  0.33735676359E+02  0.91559784141E+02  0.12982721467E+03  0.00000000000E+00 0.  1.
</event>
<event>
12    1  0.8358445E-002  0.1798800E+03  0.7818608E-02  0.1167997E+00
         21   -1    0    0  503  502  0.00000000000E+00  0.00000000000E+00  0.52561374534E+02  0.52561374534E+02  0.00000000000E+00 0.  1.
         21   -1    0    0  501  503 -0.00000000000E+00 -0.00000000000E+00 -0.77768510652E+03  0.77768510652E+03  0.00000000000E+00 0.  1.
          6    2    1    2  501    0 -0.10946191276E+02 -0.50420543308E+02 -0.55297966689E+03  0.58150092997E+03  0.17232170282E+03 0.  0.
         24    2    3    3    0    0 -0.64310429421E+02 -0.63364466169E+02 -0.40865616665E+03  0.42701258162E+03  0.84787943813E+02 0.  0.
         -6    2    1    2    0  502  0.10946191276E+02  0.50420543308E+02 -0.17214406509E+03  0.24874555109E+03  0.17198464975E+03 0.  0.
        -24    2    5    5    0    0  0.21822106236E+02  0.23593256010E+01 -0.17315283157E+02  0.86196457306E+02  0.81536737017E+02 0.  0.
          5    1    3    3  501    0  0.53364238145E+02  0.12943922861E+02 -0.14432350025E+03  0.15448834835E+03  0.47000000000E+01 0. -1.
        -13    1    4    4    0    0 -0.18817576388E+02 -0.41366750718E+02 -0.62992001477E+02  0.77674329711E+02  0.00000000000E+00 0.  1.
         14    1    4    4    0    0 -0.45492853033E+02 -0.21997715451E+02 -0.34566416517E+03  0.34933825191E+03  0.00000000000E+00 0. -1.
         -5    1    5    5    0  502 -0.10875914960E+02  0.48061217707E+02 -0.15482878194E+03  0.16254909378E+03  0.47000000000E+01 0.  1.
         13    1    6    6    0    0  0.21572410841E+01  0.40002010596E+02  0.69380185237E+00  0.40066144085E+02  0.00000000000E+00 0. -1.
        -14    1    6    6    0    0  0.19664865152E+02 -0.37642684995E+02 -0.18009085009E+02  0.46130313221E+02  0.00000000000E+00 0.  1.
</event>
<event>
12    1  0.8358445E-002  0.2577079E+03  0.7818608E-02  0.1108674E+00
         21   -1    0    0  503  502  0.00000000000E+00  0.00000000000E+00  0.17111626289E+04  0.17111626289E+04  0.00000000000E+00 0.  1.
         21   -1    0    0  501  503 -0.00000000000E+00 -0.00000000000E+00 -0.59143563632E+02  0.59143563632E+02  0.00000000000E+00 0. -1.
          6    2    1    2  501    0  0.17714180968E+03 -0.70746854543E+02  0.30419341990E+03  0.39806447126E+03  0.17186433138E+03 0.  0.
         24    2    3    3    0    0  0.55543229727E+02  0.22127719375E+02  0.93520529625E+02  0.13764738690E+03  0.81400413549E+02 0.  0.
         -6    2    1    2    0  502 -0.17714180968E+03  0.70746854543E+02  0.13478256454E+04  0.13722417213E+04  0.17328887193E+03 0.  0.
        -24    2    5    5    0    0 -0.55557819724E+02  0.52461461528E+02  0.36902339393E+03  0.38573629319E+03  0.82312492021E+02 0.  0.
          5    1    3    3  501    0  0.12159857995E+03 -0.92874573918E+02  0.21067289028E+03  0.26041708436E+03  0.47000000000E+01 0. -1.
        -13    1    4    4    0    0  0.36001160384E+01 -0.28036327944E+02  0.20236784146E+02  0.34763831098E+02  0.00000000000E+00 0.  1.
         14    1    4    4    0    0  0.51943113689E+02  0.50164047319E+02  0.73283745479E+02  0.10288355580E+03  0.00000000000E+00 0. -1.
         -5    1    5    5    0  502 -0.12158398996E+03  0.18285393015E+02  0.97880225142E+03  0.98650542807E+03  0.47000000000E+01 0.  1.
         11    1    6    6    0    0 -0.49814332997E+02  0.34402139046E+02  0.10629868182E+03  0.12232900187E+03  0.00000000000E+00 0. -1.
        -12    1    6    6    0    0 -0.57434867277E+01  0.18059322482E+02  0.26272471211E+03  0.26340729132E+03  0.00000000000E+00 0.  1.
</event>
<event>
12    1  0.8358445E-002  0.1817234E+03  0.7818608E-02  0.1166409E+00
         21   -1    0    0  501  502  0.00000000000E+00  0.00000000000E+00  0.34668739416E+03  0.34668739416E+03  0.00000000000E+00 0. -1.
         21   -1    0    0  502  503 -0.00000000000E+00 -0.00000000000E+00 -0.11458343128E+03  0.11458343128E+03  0.00000000000E+00 0. -1.
         -6    2    1    2    0  503 -0.52106554647E+02 -0.29078508024E+02  0.21247157632E+03  0.27958465457E+03  0.17164718367E+03 0.  0.
        -24    2    3    3    0    0 -0.79295784607E+02  0.25122596734E+02  0.10212245794E+03  0.15358452795E+03  0.78995218118E+02 0.  0.
          6    2    1    2  501    0  0.52106554647E+02  0.29078508024E+02  0.19632386560E+02  0.18168617086E+03  0.17048102948E+03 0.  0.
         24    2    5    5    0    0  0.10573068328E+02  0.44098703243E+02  0.69367050632E+02  0.11500586222E+03  0.79737539649E+02 0.  0.
          5    1    5    5  501    0  0.41533486319E+02 -0.15020195219E+02 -0.49734664072E+02  0.66680308642E+02  0.47000000000E+01 0. -1.
        -13    1    6    6    0    0  0.35512933077E+02  0.53635926778E+02  0.55279079483E+02  0.84816022576E+02  0.00000000000E+00 0.  1.
         14    1    6    6    0    0 -0.24939864749E+02 -0.95372235350E+01  0.14087971150E+02  0.30189839641E+02  0.00000000000E+00 0. -1.
         -5    1    3    3    0  503  0.27189229960E+02 -0.54201104758E+02  0.11034911838E+03  0.12600012662E+03  0.47000000000E+01 0.  1.
         13    1    4    4    0    0  0.14559593597E+02 -0.21569147766E+01  0.43763256840E+01  0.15355333717E+02  0.00000000000E+00 0. -1.
        -14    1    4    4    0    0 -0.93855378204E+02  0.27279511510E+02  0.97746132260E+02  0.13822919423E+03  0.00000000000E+00 0.  1.
</event>
<event>
12    1  0.8358445E-002  0.1892891E+03  0.7818608E-02  0.1159210E+00
         21   -1    0    0  503  502  0.00000000000E+00  0.00000000000E+00  0.24767522826E+03  0.24767522826E+03  0.00000000000E+00 0.  1.
         21   -1    0    0  501  503 -0.00000000000E+00 -0.00000000000E+00 -0.22239394178E+03  0.22239394178E+03  0.00000000000E+00 0.  1.
          6    2    1    2  501    0 -0.27646118486E+01 -0.78031971688E+02 -0.12661638188E+03  0.22773243151E+03  0.17243468478E+03 0.  0.
         24    2    3    3    0    0 -0.81204745722E+01 -0.10811211037E+03 -0.83882565089E+02  0.17498995237E+03  0.10877052996E+03 0.  0.
         -6    2    1    2    0  502  0.27646118486E+01  0.78031971688E+02  0.15189766835E+03  0.24233673853E+03  0.17192312674E+03 0.  0.
        -24    2    5    5    0    0 -0.29478933378E+02 -0.10913459316E+01  0.12665959229E+03  0.15312241186E+03  0.80830824236E+02 0.  0.
          5    1    3    3  501    0  0.53558627236E+01  0.30080138680E+02 -0.42733816788E+02  0.52742479139E+02  0.47000000000E+01 0. -1.
        -13    1    4    4    0    0 -0.18801908249E+02  0.14449253613E+02 -0.35716083186E+02  0.42871100778E+02  0.00000000000E+00 0.  1.
         14    1    4    4    0    0  0.10681433677E+02 -0.12256136398E+03 -0.48166481903E+02  0.13211885159E+03  0.00000000000E+00 0. -1.
         -5    1    5    5    0  502  0.32243545227E+02  0.79123317620E+02  0.25238076067E+02  0.89214326672E+02  0.47000000000E+01 0.  1.
         11    1    6    6    0    0 -0.29763481717E+02  0.11194299511E+02  0.66520844142E+01  0.32487342343E+02  0.00000000000E+00 0. -1.
        -12    1    6    6    0    0  0.28454833879E+00 -0.12285645443E+02  0.12000750787E+03  0.12063506952E+03  0.00000000000E+00 0.  1.
</event>
<event>
12    1  0.8358445E-002  0.1847095E+03  0.7818608E-02  0.1165045E+00
         21   -1    0    0  501  502  0.00000000000E+00  0.00000000000E+00  0.62737716625E+02  0.62737716625E+02  0.00000000000E+00 0. -1.
         21   -1    0    0  502  503 -0.00000000000E+00 -0.00000000000E+00 -0.70460731393E+03  0.70460731393E+03  0.00000000000E+00 0. -1.
         -6    2    1    2    0  503 -0.46704292047E+02 -0.38537540699E+02 -0.51106252773E+03  0.54100879781E+03  0.16685076900E+03 0.  0.
        -24    2    3    3    0    0 -0.52756166082E+02 -0.62906317569E+02 -0.21241812020E+03  0.24127385721E+03  0.79694407170E+02 0.  0.
          6    2    1    2  501    0  0.46704292047E+02  0.38537540699E+02 -0.13080706957E+03  0.22633623274E+03  0.17450262996E+03 0.  0.
         24    2    5    5    0    0  0.63875400255E+02  0.30451413611E+02 -0.16185936841E+02  0.11005929403E+03  0.82726708518E+02 0.  0.
          5    1    5    5  501    0 -0.17171108208E+02  0.80861270879E+01 -0.11462113273E+03  0.11627693871E+03  0.47000000000E+01 0. -1.
        -13    1    6    6    0    0  0.40944444888E+02  0.33625164285E+02  0.28185042201E+02  0.60012464074E+02  0.00000000000E+00 0.  1.
         14    1    6    6    0    0  0.22930955368E+02 -0.31737506735E+01 -0.44370979043E+02  0.50046829956E+02  0.00000000000E+00 0. -1.
         -5    1    3    3    0  503  0.60518740348E+01  0.24368776870E+02 -0.29864440754E+03  0.29973494060E+03  0.47000000000E+01 0.  1.
         11    1    4    4    0    0  0.98544215969E+01 -0.40411110326E+02 -0.45825374407E+02  0.61888063489E+02  0.00000000000E+00 0. -1.
        -12    1    4    4    0    0 -0.62610587679E+02 -0.22495207242E+02 -0.16659274579E+03  0.17938579372E+03  0.00000000000E+00 0.  1.
</event>
<event>
12    1  0.8358445E-002  0.1879386E+03  0.7818608E-02  0.1161228E+00
         21   -1    0    0  503  502  0.00000000000E+00  0.00000000000E+00  0.12019501585E+04  0.12019501585E+04  0.00000000000E+00 0. -1.
         21   -1    0    0  501  503 -0.00000000000E+00 -0.00000000000E+00 -0.66151880314E+02  0.66151880314E+02  0.00000000000E+00 0. -1.
          6    2    1    2  501    0  0.68400938131E+02  0.84891476673E+01  0.93941778963E+02  0.21010942718E+03  0.17484324291E+03 0.  0.
         24    2    3    3    0    0  0.39921197151E+02  0.38953816152E+02  0.12456106421E+03  0.15815923660E+03  0.79923611225E+02 0.  0.
         -6    2    1    2    0  502 -0.68400938131E+02 -0.84891476673E+01  0.10418564993E+04  0.10579926117E+04  0.17068288530E+03 0.  0.
        -24    2    5    5    0    0  0.20830999973E+02 -0.29368422923E+02  0.58697927288E+03  0.59395202724E+03  0.83294111774E+02 0.  0.
          5    1    3    3  501    0  0.28479740980E+02 -0.30464668484E+02 -0.30619285245E+02  0.51950190578E+02  0.47000000000E+01 0. -1.
        -11    1    4    4    0    0 -0.85034913425E+01  0.39207009807E+02  0.24531198835E+02  0.47024235233E+02  0.00000000000E+00 0.  1.
         12    1    4    4    0    0  0.48424688493E+02 -0.25319365501E+00  0.10002986537E+03  0.11113500137E+03  0.00000000000E+00 0. -1.
         -5    1    5    5    0  502 -0.89231938103E+02  0.20879275255E+02  0.45487722638E+03  0.46404058442E+03  0.47000000000E+01 0.  1.
         13    1    6    6    0    0 -0.11618141541E+00  0.23879562556E+02  0.32102509414E+03  0.32191203468E+03  0.00000000000E+00 0. -1.
        -14    1    6    6    0    0  0.20947181388E+02 -0.53247985478E+02  0.26595417874E+03  0.27203999257E+03  0.00000000000E+00 0.  1.
</event>
<event>
12    1  0.8358445E-002  0.2006630E+03  0.7818608E-02  0.1149268E+00
         21   -1    0    0  501  502  0.00000000000E+00  0.00000000000E+00  0.10390706916E+03  0.10390706916E+03  0.00000000000E+00 0.  1.
         21   -1    0    0  502  503 -0.00000000000E+00 -0.00000000000E+00 -0.42029486419E+03  0.42029486419E+03  0.00000000000E+00 0.  1.
         -6    2    1    2    0  503  0.69971400960E+02  0.72008156209E+02 -0.23212694417E+03  0.30656568444E+03  0.17325827297E+03 0.  0.
        -24    2    3    3    0    0  0.24603618786E+02  0.25419711307E+02 -0.22425594477E+03  0.24089406584E+03  0.80546399125E+02 0.  0.
          6    2    1    2  501    0 -0.69971400960E+02 -0.72008156209E+02 -0.84260850859E+02  0.21763624891E+03  0.17373679616E+03 0.  0.
         24    2    5    5    0    0 -0.46948617889E+02  0.24372959980E+02 -0.66147840541E+02  0.11679211551E+03  0.80415468274E+02 0.  0.
          5    1    5    5  501    0 -0.23022783071E+02 -0.96381116189E+02 -0.18113010317E+02  0.10084413340E+03  0.47000000000E+01 0. -1.
        -11    1    6    6    0    0 -0.49244049501E+02 -0.14791232485E+02 -0.56496122159E+02  0.76390894671E+02  0.00000000000E+00 0.  1.
         12    1    6    6    0    0  0.22954316117E+01  0.39164192465E+02 -0.96517183821E+01  0.40401220841E+02  0.00000000000E+00 0. -1.
         -5    1    3    3    0  503  0.45367782174E+02  0.46588444902E+02 -0.78709993987E+01  0.65671618598E+02  0.47000000000E+01 0.  1.
         11    1    4    4    0    0 -0.66978951249E+01 -0.14690170125E+01  0.46586595927E+01  0.82899287867E+01  0.00000000000E+00 0. -1.
        -12    1    4    4    0    0  0.31301513911E+02  0.26888728320E+02 -0.22891460437E+03  0.23260413706E+03  0.00000000000E+00 0.  1.
</event>
<event>
12    1  0.8358445E-002  0.1818313E+03  0.7818608E-02  0.1166310E+00
         21   -1    0    0  503  502  0.00000000000E+00  0.00000000000E+00  0.42105118084E+03  0.42105118084E+03  0.00000000000E+00 0. -1.
         21   -1    0    0  501  503 -0.00000000000E+00 -0.00000000000E+00 -0.86031003060E+02  0.86031003060E+02  0.00000000000E+00 0. -1.
          6    2    1    2  501    0 -0.48980406684E+02 -0.37787576206E+02  0.24523439773E+03  0.30529088646E+03  0.17098431030E+03 0.  0.
         24    2    3    3    0    0  0.34014665023E+02 -0.26482999253E+02  0.16660265707E+03  0.19030820938E+03  0.81255292320E+02 0.  0.
         -6    2    1    2    0  502  0.48980406684E+02  0.37787576206E+02  0.89785780055E+02  0.20179129745E+03  0.16979770396E+03 0.  0.
        -24    2    5    5    0    0  0.43732518015E+02  0.88941515548E+02  0.48428379272E+02  0.13563398156E+03  0.78918582827E+02 0.  0.
          5    1    3    3  501    0 -0.82995071708E+02 -0.11304576954E+02  0.78631740657E+02  0.11498267707E+03  0.47000000000E+01 0. -1.
        -11    1    4    4    0    0  0.50937787999E+02 -0.23827534687E+02  0.59597878406E+02  0.81940934618E+02  0.00000000000E+00 0.  1.
         12    1    4    4    0    0 -0.16923122976E+02 -0.26554645657E+01  0.10700477866E+03  0.10836727477E+03  0.00000000000E+00 0. -1.
         -5    1    5    5    0  502  0.52478886694E+01 -0.51153939341E+02  0.41357400784E+02  0.66157315886E+02  0.47000000000E+01 0.  1.
         11    1    6    6    0    0  0.24228380421E+02  0.40281435262E+02 -0.18588902964E+02  0.50548548525E+02  0.00000000000E+00 0. -1.
        -12    1    6    6    0    0  0.19504137593E+02  0.48660080286E+02  0.67017282236E+02  0.85085433036E+02  0.00000000000E+00 0.  1.
</event>
<event>
12    1  0.8358445E-002  0.4270694E+03  0.7818608E-02  0.1035180E+00
         21   -1    0    0  503  502  0.00000000000E+00  0.00000000000E+00  0.17356500934E+04  0.17356500934E+04  0.00000000000E+00 0. -1.
         21   -1    0    0  501  503 -0.00000000000E+00 -0.00000000000E+00 -0.12321192545E+03  0.12321192545E+03  0.00000000000E+00 0.  1.
          6    2    1    2  501    0 -0.38792605077E+03  0.46853156460E+02  0.44206156615E+03  0.61465983554E+03  0.17235558017E+03 0.  0.
         24    2    3    3    0    0 -0.34619406916E+03 -0.10522475039E+02  0.35645416668E+03  0.50337534325E+03  0.79787889095E+02 0.  0.
         -6    2    1    2    0  502  0.38792605077E+03 -0.46853156460E+02  0.11703766018E+04  0.12442021833E+04  0.15992449399E+03 0.  0.
        -24    2    5    5    0    0  0.34984748862E+03 -0.66037757208E+02  0.11206885757E+04  0.11785590897E+04  0.79400211080E+02 0.  0.
          5    1    3    3  501    0 -0.41731981615E+02  0.57375631499E+02  0.85607399476E+02  0.11128449229E+03  0.47000000000E+01 0. -1.
        -13    1    4    4    0    0 -0.15721981611E+03 -0.20602051605E+02  0.11153431536E+03  0.19386185445E+03  0.00000000000E+00 0.  1.
         14    1    4    4    0    0 -0.18897425305E+03  0.10079576566E+02  0.24491985131E+03  0.30951348880E+03  0.00000000000E+00 0. -1.
         -5    1    5    5    0  502  0.38078562150E+02  0.19184600748E+02  0.49688026067E+02  0.65643093587E+02  0.47000000000E+01 0.  1.
         11    1    6    6    0    0  0.21133094859E+03 -0.44866669792E+02  0.54975182693E+03  0.59067830424E+03  0.00000000000E+00 0. -1.
        -12    1    6    6    0    0  0.13851654003E+03 -0.21171087416E+02  0.57093674878E+03  0.58788078546E+03  0.00000000000E+00 0.  1.
</event>
<event>
12    1  0.8358445E-002  0.1799499E+03  0.7818608E-02  0.1168425E+00
         21   -1    0    0  503  502  0.00000000000E+00  0.00000000000E+00  0.20218339295E+03  0.20218339295E+03  0.00000000000E+00 0. -1.
         21   -1    0    0  501  503 -0.00000000000E+00 -0.00000000000E+00 -0.17855168356E+03  0.17855168356E+03  0.00000000000E+00 0. -1.
          6    2    1    2  501    0 -0.42886421844E+02 -0.26419888124E+02 -0.52722559260E+02  0.18525634434E+03  0.17030264002E+03 0.  0.
         24    2    3    3    0    0 -0.44154382036E+02 -0.80810851656E+02 -0.42541639329E+02  0.12970703501E+03  0.80833907834E+02 0.  0.
         -6    2    1    2    0  502  0.42886421844E+02  0.26419888124E+02  0.76354268650E+02  0.19547873216E+03  0.17275620024E+03 0.  0.
        -24    2    5    5    0    0  0.64727156686E+02  0.42506303650E+02 -0.28008325565E+01  0.11167294173E+03  0.80415238538E+02 0.  0.
          5    1    3    3  501    0  0.12679601920E+01  0.54390963532E+02 -0.10180919931E+02  0.55549309336E+02  0.47000000000E+01 0. -1.
        -13    1    4    4    0    0 -0.20191523253E+02 -0.53458772890E+02 -0.65327205182E+02  0.86793903859E+02  0.00000000000E+00 0.  1.
         14    1    4    4    0    0 -0.23962858782E+02 -0.27352078766E+02  0.22785565853E+02  0.42913131150E+02  0.00000000000E+00 0. -1.
         -5    1    5    5    0  502 -0.21840734843E+02 -0.16086415526E+02  0.79155101207E+02  0.83805790432E+02  0.47000000000E+01 0.  1.
         11    1    6    6    0    0 -0.60465073908E+01 -0.17519314180E+02  0.26012687518E+01  0.18715053301E+02  0.00000000000E+00 0. -1.
        -12    1    6    6    0    0  0.70773664077E+02  0.60025617830E+02 -0.54021013083E+01  0.92957888430E+02  0.00000000000E+00 0.  1.
</event>
<event>
12    1  0.8358445E-002  0.1910137E+03  0.7818608E-02  0.1157704E+00
         21   -1    0    0  501  502  0.00000000000E+00  0.00000000000E+00  0.30545445610E+03  0.30545445610E+03  0.00000000000E+00 0. -1.
         21   -1    0    0  502  503 -0.00000000000E+00 -0.00000000000E+00 -0.12943008147E+03  0.12943008147E+03  0.00000000000E+00 0. -1.
         -6    2    1    2    0  503  0.76067418205E+01  0.82213376196E+02  0.26491469470E+02  0.19284194100E+03  0.17224782875E+03 0.  0.
        -24    2    3    3    0    0 -0.38565998478E+02 -0.74923365398E+01  0.12562843177E+02  0.90885413627E+02  0.80986801616E+02 0.  0.
          6    2    1    2  501    0 -0.76067418205E+01 -0.82213376196E+02  0.14953290516E+03  0.24204259656E+03  0.17148652157E+03 0.  0.
         24    2    5    5    0    0 -0.60756828528E+02 -0.85073738040E+02  0.79510693278E+02  0.15396130716E+03  0.80331815861E+02 0.  0.
          5    1    5    5  501    0  0.53150086707E+02  0.28603618446E+01  0.70022211881E+02  0.88081289406E+02  0.47000000000E+01 0. -1.
        -11    1    6    6    0    0 -0.61465782606E+02 -0.26309947882E+02  0.65389929834E+02  0.93520579087E+02  0.00000000000E+00 0.  1.
         12    1    6    6    0    0  0.70895407878E+00 -0.58763790158E+02  0.14120763444E+02  0.60440728072E+02  0.00000000000E+00 0. -1.
         -5    1    3    3    0  503  0.46172740299E+02  0.89705712736E+02  0.13928626294E+02  0.10195652738E+03  0.47000000000E+01 0.  1.
         13    1    4    4    0    0 -0.63445296217E+02  0.14258561930E+01  0.11019951065E+02  0.64411008371E+02  0.00000000000E+00 0. -1.
        -14    1    4    4    0    0  0.24879297739E+02 -0.89181927328E+01  0.15428921123E+01  0.26474405256E+02  0.00000000000E+00 0.  1.
</event>
<event>
12    1  0.8358445E-002  0.1919885E+03  0.7818608E-02  0.1157434E+00
         21   -1    0    0  501  502  0.00000000000E+00  0.00000000000E+00  0.69576366695E+03  0.69576366695E+03  0.00000000000E+00 0. -1.
         21   -1    0    0  502  503 -0.00000000000E+00 -0.00000000000E+00 -0.52079446185E+02  0.52079446185E+02  0.00000000000E+00 0. -1.
         -6    2    1    2    0  503 -0.67895349094E+02  0.47204813785E+01  0.31081083729E+03  0.36357200396E+03  0.17592374518E+03 0.  0.
        -24    2    3    3    0    0 -0.11149970633E+02 -0.43845724848E+02  0.81066791193E+02  0.12194598906E+03  0.79071045146E+02 0.  0.
          6    2    1    2  501    0  0.67895349094E+02 -0.47204813785E+01  0.33287338348E+03  0.38427110917E+03  0.17952029006E+03 0.  0.
         24    2    5    5    0    0 -0.38037401563E+01  0.55631387872E+02  0.18866571949E+03  0.21222155854E+03  0.79585906039E+02 0.  0.
          5    1    5    5  501    0  0.71699089250E+02 -0.60351869251E+02  0.14420766399E+03  0.17204955063E+03  0.47000000000E+01 0. -1.
        -13    1    6    6    0    0 -0.35833965483E+02  0.39387908327E+02  0.15129178329E+03  0.16038916452E+03  0.00000000000E+00 0.  1.
         14    1    6    6    0    0  0.32030225326E+02  0.16243479545E+02  0.37373936207E+02  0.51832394019E+02  0.00000000000E+00 0. -1.
         -5    1    3    3    0  503 -0.56745378460E+02  0.48566206226E+02  0.22974404609E+03  0.24162601490E+03  0.47000000000E+01 0.  1.
         11    1    4    4    0    0 -0.12076491701E+02 -0.10680325500E+02 -0.13939845097E+02  0.21312678995E+02  0.00000000000E+00 0. -1.
        -12    1    4    4    0    0  0.92652106798E+00 -0.33165399347E+02  0.95006636290E+02  0.10063331006E+03  0.00000000000E+00 0.  1.
</event>
<event>
12    1  0.8358445E-002  0.1846370E+03  0.7818608E-02  0.1163757E+00
         21   -1    0    0  501  502  0.00000000000E+00  0.00000000000E+00  0.31023846889E+02  0.31023846889E+02  0.00000000000E+00 0. -1.
         21   -1    0    0  502  503 -0.00000000000E+00 -0.00000000000E+00 -0.11004204225E+04  0.11004204225E+04  0.00000000000E+00 0. -1.
         -6    2    1    2    0  503 -0.39097095785E+02  0.46857203177E+02 -0.47623999769E+03  0.51021519251E+03  0.17260019376E+03 0.  0.
        -24    2    3    3    0    0 -0.61265945755E+02 -0.25554293808E+02 -0.22832217556E+03  0.25094656863E+03  0.80228588495E+02 0.  0.
          6    2    1    2  501    0  0.39097095785E+02 -0.46857203177E+02 -0.59315657792E+03  0.62122907687E+03  0.17426032144E+03 0.  0.
         24    2    5    5    0    0  0.34286947903E+02 -0.39047255104E+02 -0.14796565263E+03  0.17591886727E+03  0.79707782407E+02 0.  0.
          5    1    5    5  501    0  0.48101478814E+01 -0.78099480733E+01 -0.44519092529E+03  0.44531020960E+03  0.47000000000E+01 0. -1.
        -11    1    6    6    0    0  0.81974627102E+01 -0.18965858788E+02 -0.14069316700E+03  0.14220221318E+03  0.00000000000E+00 0.  1.
         12    1    6    6    0    0  0.26089485193E+02 -0.20081396316E+02 -0.72724856320E+01  0.33716654088E+02  0.00000000000E+00 0. -1.
         -5    1    3    3    0  503  0.22168849970E+02  0.72411496985E+02 -0.24791782212E+03  0.25926862388E+03  0.47000000000E+01 0.  1.
         13    1    4    4    0    0  0.97495089721E+01 -0.92930493260E+01 -0.11783432815E+03  0.11860161290E+03  0.00000000000E+00 0. -1.
        -14    1    4    4    0    0 -0.71015454727E+02 -0.16261244482E+02 -0.11048784741E+03  0.13234495573E+03  0.00000000000E+00 0.  1.
</event>
<event>
12    1  0.8358445E-002  0.1751016E+03  0.7818608E-02  0.1174730E+00
         21   -1    0    0  503  502  0.00000000000E+00  0.00000000000E+00  0.64584675547E+02  0.64584675547E+02  0.00000000000E+00 0.  1.
         21   -1    0    0  501  503 -0.00000000000E+00 -0.00000000000E+00 -0.87500949779E+03  0.87500949779E+03  0.00000000000E+00 0.  1.
          6    2    1    2  501    0 -0.28522745884E+02 -0.17699937739E+02 -0.73648441980E+03  0.75701378707E+03  0.17185382854E+03 0.  0.
         24    2    3    3    0    0  0.14443185333E+02 -0.62045980608E+02 -0.31266033928E+03  0.32868962946E+03  0.78880133406E+02 0.  0.
         -6    2    1    2    0  502  0.28522745884E+02  0.17699937739E+02 -0.73940402443E+02  0.18258038626E+03  0.16352852811E+03 0.  0.
        -24    2    5    5    0    0  0.57274928114E+02  0.21396519937E+02 -0.10142374043E+03  0.14235879293E+03  0.79000141434E+02 0.  0.
          5    1    3    3  501    0 -0.42965931217E+02  0.44346042868E+02 -0.42382408052E+03  0.42832415761E+03  0.47000000000E+01 0. -1.
        -13    1    4    4    0    0  0.33989412361E+02 -0.25119533084E+02 -0.24887921061E+03  0.25244233514E+03  0.00000000000E+00 0.  1.
         14    1    4    4    0    0 -0.19546227028E+02 -0.36926447524E+02 -0.63781128664E+02  0.76247294322E+02  0.00000000000E+00 0. -1.
         -5    1    5    5    0  502 -0.28752182230E+02 -0.36965821977E+01  0.27483337989E+02  0.40221593330E+02  0.47000000000E+01 0.  1.
         11    1    6    6    0    0 -0.18737829373E+02 -0.49525679777E+01 -0.21760019036E+02  0.29139880021E+02  0.00000000000E+00 0. -1.
        -12    1    6    6    0    0  0.76012757487E+02  0.26349087915E+02 -0.79663721396E+02  0.11321891291E+03  0.00000000000E+00 0.  1.
</event>
<event>
12    1  0.8358445E-002  0.1935015E+03  0.7818608E-02  0.1155468E+00
         21   -1    0    0  501  502  0.00000000000E+00  0.00000000000E+00  0.12498894204E+03  0.12498894204E+03  0.00000000000E+00 0. -1.
         21   -1    0    0  502  503 -0.00000000000E+00 -0.00000000000E+00 -0.82625641546E+03  0.82625641546E+03  0.00000000000E+00 0. -1.
         -6    2    1    2    0  503  0.44810640857E+02 -0.74534509328E+02 -0.73087960435E+03  0.75606072485E+03  0.17285669498E+03 0.  0.
        -24    2    3    3    0    0  0.89443727907E+02 -0.18742581827E+02 -0.47960620979E+03  0.49478451000E+03  0.80237958818E+02 0.  0.
          6    2    1    2  501    0 -0.44810640857E+02  0.74534509328E+02  0.29612130935E+02  0.19518463264E+03  0.17221142792E+03 0.  0.
         24    2    5    5    0    0  0.20493175950E+02  0.17341579316E+02 -0.32108521123E+02  0.88567801779E+02  0.78055094322E+02 0.  0.
          5    1    5    5  501    0 -0.65303816807E+02  0.57192930012E+02  0.61720652059E+02  0.10661683086E+03  0.47000000000E+01 0. -1.
        -11    1    6    6    0    0 -0.18606411535E+02 -0.15926246198E+02 -0.27800298381E+02  0.37049972446E+02  0.00000000000E+00 0.  1.
         12    1    6    6    0    0  0.39099587486E+02  0.33267825514E+02 -0.43082227424E+01  0.51517829333E+02  0.00000000000E+00 0. -1.
         -5    1    3    3    0  503 -0.44633087050E+02 -0.55791927501E+02 -0.25127339456E+03  0.26127621485E+03  0.47000000000E+01 0.  1.
         13    1    4    4    0    0  0.19163415270E+02  0.29137347088E+02 -0.17979328030E+03  0.18314432866E+03  0.00000000000E+00 0. -1.
        -14    1    4    4    0    0  0.70280312636E+02 -0.47879928915E+02 -0.29981292949E+03  0.31164018134E+03  0.00000000000E+00 0.  1.
</event>
<event>
12    1  0.8358445E-002  0.2073440E+03  0.7818608E-02  0.1143835E+00
         21   -1    0    0  503  502  0.00000000000E+00  0.00000000000E+00  0.24036072358E+03  0.24036072358E+03  0.00000000000E+00 0. -1.
         21   -1    0    0  501  503 -0.00000000000E+00 -0.00000000000E+00 -0.20298565884E+03  0.20298565884E+03  0.00000000000E+00 0.  1.
          6    2    1    2  501    0 -0.11195259704E+03  0.12601153432E+02  0.96129905639E+02  0.22854424967E+03  0.17406706250E+03 0.  0.
         24    2    3    3    0    0 -0.52920215700E+02  0.64665366534E+01  0.12867090916E+03  0.16069542890E+03  0.80152683556E+02 0.  0.
         -6    2    1    2    0  502  0.11195259704E+03 -0.12601153432E+02 -0.58754840899E+02  0.21480213275E+03  0.17319252829E+03 0.  0.
        -24    2    5    5    0    0  0.10399747755E+03  0.47228254369E+01  0.20205908800E+02  0.13343694263E+03  0.80989866605E+02 0.  0.
          5    1    3    3  501    0 -0.59032381335E+02  0.61346167789E+01 -0.32541003519E+02  0.67848820765E+02  0.47000000000E+01 0. -1.
        -11    1    4    4    0    0  0.54268847054E+00 -0.12140824498E+01 -0.10929755106E+02  0.11010361195E+02  0.00000000000E+00 0.  1.
         12    1    4    4    0    0 -0.53462904170E+02  0.76806191033E+01  0.13960066426E+03  0.14968506771E+03  0.00000000000E+00 0. -1.
         -5    1    5    5    0  502  0.79551194871E+01 -0.17323978869E+02 -0.78960749699E+02  0.81365190118E+02  0.47000000000E+01 0.  1.
         13    1    6    6    0    0 -0.46926344974E+01  0.11103494540E+02  0.21390514029E+02  0.24553258438E+02  0.00000000000E+00 0. -1.
        -14    1    6    6    0    0  0.10869011205E+03 -0.63806691027E+01 -0.11846052288E+01  0.10888368420E+03  0.00000000000E+00 0.  1.
</event>
<event>
12    1  0.8358445E-002  0.1778312E+03  0.7818608E-02  0.1170353E+00
         21   -1    0    0  503  502  0.00000000000E+00  0.00000000000E+00  0.17276017018E+03  0.17276017018E+03  0.00000000000E+00 0. -1.
         21   -1    0    0  501  503 -0.00000000000E+00 -0.00000000000E+00 -0.18174422444E+03  0.18174422444E+03  0.00000000000E+00 0. -1.
          6    2    1    2  501    0  0.34929518166E+02  0.12883211362E+02  0.47939365276E+01  0.17614027864E+03  0.17209406601E+03 0.  0.
         24    2    3    3    0    0  0.34679289767E+02  0.15208962086E+01 -0.62405931844E+02  0.10782426932E+03  0.80787415241E+02 0.  0.
         -6    2    1    2    0  502 -0.34929518166E+02 -0.12883211362E+02 -0.13777990793E+02  0.17836411598E+03  0.17389041511E+03 0.  0.
        -24    2    5    5    0    0 -0.77283714702E+02  0.25514014257E+02 -0.20556805659E+02  0.12060368636E+03  0.86596359175E+02 0.  0.
          5    1    3    3  501    0  0.25022839932E+00  0.11362315154E+02  0.67199868371E+02  0.68316009317E+02  0.47000000000E+01 0. -1.
        -13    1    4    4    0    0 -0.12022891922E+02 -0.26844838619E+02 -0.74850730035E+01  0.30351632716E+02  0.00000000000E+00 0.  1.
         14    1    4    4    0    0  0.46702181689E+02  0.28365734827E+02 -0.54920858840E+02  0.77472636605E+02  0.00000000000E+00 0. -1.
         -5    1    5    5    0  502  0.42354196536E+02 -0.38397225620E+02  0.67788148663E+01  0.57760429625E+02  0.47000000000E+01 0.  1.
         11    1    6    6    0    0 -0.75213382947E+02 -0.14638423397E+02 -0.28667189516E+01  0.76678253054E+02  0.00000000000E+00 0. -1.
        -12    1    6    6    0    0 -0.20703317554E+01  0.40152437655E+02 -0.17690086707E+02  0.43925433303E+02  0.00000000000E+00 0.  1.
</event>
<event>
12    1  0.8358445E-002  0.1783787E+03  0.7818608E-02  0.1171426E+00
         21   -1    0    0  501  502  0.00000000000E+00  0.00000000000E+00  0.21303042987E+03  0.21303042987E+03  0.00000000000E+00 0.  1.
         21   -1    0    0  502  503 -0.00000000000E+00 -0.00000000000E+00 -0.15544344381E+03  0.15544344381E+03  0.00000000000E+00 0.  1.
         -6    2    1    2    0  503  0.12695861788E+02  0.96624815024E+01 -0.23489906901E+02  0.17991867409E+03  0.17766374168E+03 0.  0.
        -24    2    3    3    0    0  0.87107745494E+01 -0.65148314301E+02 -0.12301378210E+02  0.10402526685E+03  0.79685329813E+02 0.  0.
          6    2    1    2  501    0 -0.12695861788E+02 -0.96624815024E+01  0.81076892959E+02  0.18855519958E+03  0.16948466674E+03 0.  0.
         24    2    5    5    0    0 -0.24755062623E+01 -0.46886311123E+02 -0.59533555992E+01  0.93232467124E+02  0.80326808608E+02 0.  0.
          5    1    5    5  501    0 -0.10220355526E+02  0.37223829620E+02  0.87030248558E+02  0.95322732455E+02  0.47000000000E+01 0. -1.
        -13    1    6    6    0    0 -0.22578779272E+02 -0.25286317597E+02  0.31004490268E+02  0.45939934129E+02  0.00000000000E+00 0.  1.
         14    1    6    6    0    0  0.20103273009E+02 -0.21599993526E+02 -0.36957845867E+02  0.47292532995E+02  0.00000000000E+00 0. -1.
         -5    1    3    3    0  503  0.39850872390E+01  0.74810795804E+02 -0.11188528691E+02  0.75893407246E+02  0.47000000000E+01 0.  1.
         11    1    4    4    0    0 -0.30038236337E+02 -0.35263682097E+01 -0.69733775521E+01  0.31038023608E+02  0.00000000000E+00 0. -1.
        -12    1    4    4    0    0  0.38749010886E+02 -0.61621946092E+02 -0.53280006578E+01  0.72987243240E+02  0.00000000000E+00 0.  1.
</event>
<event>
12    1  0.8358445E-002  0.1762400E+03  0.7818608E-02  0.1173188E+00
         21   -1    0    0  501  502  0.00000000000E+00  0.00000000000E+00  0.24054030776E+03  0.24054030776E+03  0.00000000000E+00 0. -1.
         21   -1    0    0  502  503 -0.00000000000E+00 -0.00000000000E+00 -0.12654057199E+03  0.12654057199E+03  0.00000000000E+00 0. -1.
         -6    2    1    2    0  503 -0.16304871410E+02  0.23601169005E+02  0.33561611420E+02  0.17940709348E+03  0.17388979102E+03 0.  0.
        -24    2    3    3    0    0 -0.53818590735E+02  0.18945509140E+02 -0.31099279632E+02  0.10435994072E+03  0.81660633155E+02 0.  0.
          6    2    1    2  501    0  0.16304871410E+02 -0.23601169005E+02  0.80438124356E+02  0.18767378627E+03  0.16711760587E+03 0.  0.
         24    2    5    5    0    0  0.42445831226E+02 -0.21566067992E+02  0.11262781611E+03  0.14589152123E+03  0.79577428522E+02 0.  0.
          5    1    5    5  501    0 -0.26140959816E+02 -0.20351010133E+01 -0.32189691750E+02  0.41782265032E+02  0.47000000000E+01 0. -1.
        -11    1    6    6    0    0 -0.10236937597E+02 -0.27019965201E+02  0.76510719482E+02  0.81784861720E+02  0.00000000000E+00 0.  1.
         12    1    6    6    0    0  0.52682768823E+02  0.54538972092E+01  0.36117096624E+02  0.64106659515E+02  0.00000000000E+00 0. -1.
         -5    1    3    3    0  503  0.37513719325E+02  0.46556598658E+01  0.64660891052E+02  0.75047152764E+02  0.47000000000E+01 0.  1.
         13    1    4    4    0    0 -0.52594415001E+02 -0.41962323510E-01  0.14830246092E+02  0.54645314980E+02  0.00000000000E+00 0. -1.
        -14    1    4    4    0    0 -0.12241757342E+01  0.18987471463E+02 -0.45929525724E+02  0.49714625736E+02  0.00000000000E+00 0.  1.
</event>
<event>
12    1  0.8358445E-002  0.2810671E+03  0.7818608E-02  0.1095117E+00
         21   -1    0    0  503  502  0.00000000000E+00  0.00000000000E+00  0.57421526535E+03  0.57421526535E+03  0.00000000000E+00 0.  1.
         21   -1    0    0  501  503 -0.00000000000E+00 -0.00000000000E+00 -0.43995463393E+03  0.43995463393E+03  0.00000000000E+00 0. -1.
          6    2    1    2  501    0 -0.16856114817E+03 -0.14485451899E+03 -0.35328621927E+03  0.45140827614E+03  0.17193774077E+03 0.  0.
         24    2    3    3    0    0 -0.55331340191E+02 -0.68364067034E+01 -0.93072395628E+02  0.13580835100E+03  0.81689312095E+02 0.  0.
         -6    2    1    2    0  502  0.16856114817E+03  0.14485451899E+03  0.48754685069E+03  0.56276162313E+03  0.17205528331E+03 0.  0.
        -24    2    5    5    0    0  0.61971794349E+02  0.14109714192E+03  0.27742903609E+03  0.32707752473E+03  0.79144995825E+02 0.  0.
          5    1    3    3  501    0 -0.11322980798E+03 -0.13801811229E+03 -0.26021382364E+03  0.31559992514E+03  0.47000000000E+01 0. -1.
        -11    1    4    4    0    0 -0.32632372342E+02 -0.72093790140E+00 -0.10463680161E+03  0.10960954214E+03  0.00000000000E+00 0.  1.
         12    1    4    4    0    0 -0.22698967849E+02 -0.61154688020E+01  0.11564405986E+02  0.26198808864E+02  0.00000000000E+00 0. -1.
         -5    1    5    5    0  502  0.10658935382E+03  0.37573770693E+01  0.21011781460E+03  0.23568409840E+03  0.47000000000E+01 0.  1.
         13    1    6    6    0    0 -0.19237991643E+02  0.26220315625E+02  0.49443718479E+02  0.59180119728E+02  0.00000000000E+00 0. -1.
        -14    1    6    6    0    0  0.81209785992E+02  0.11487682630E+03  0.22798531761E+03  0.26789740500E+03  0.00000000000E+00 0.  1.
</event>
<event>
12    1  0.8358445E-002  0.2388935E+03  0.7818608E-02  0.1120616E+00
         21   -1    0    0  501  502  0.00000000000E+00  0.00000000000E+00  0.96615634118E+03  0.96615634118E+03  0.00000000000E+00 0. -1.
         21   -1    0    0  502  503 -0.00000000000E+00 -0.00000000000E+00 -0.82676584913E+02  0.82676584913E+02  0.00000000000E+00 0.  1.
         -6    2    1    2    0  503  0.93321709051E+01 -0.16442994627E+03  0.16111291841E+03  0.28814486028E+03  0.17304852320E+03 0.  0.
        -24    2    3    3    0    0  0.33878121361E+02 -0.18436452082E+03  0.15794724334E+03  0.25602006542E+03  0.73898163524E+02 0.  0.
          6    2    1    2  501    0 -0.93321709051E+01  0.16442994627E+03  0.72236683786E+03  0.76068806581E+03  0.17236063468E+03 0.  0.
         24    2    5    5    0    0 -0.42051961244E+02  0.13498934937E+03  0.68100319809E+03  0.70010445317E+03  0.79939962797E+02 0.  0.
          5    1    5    5  501    0  0.32719790339E+02  0.29440596906E+02  0.41363639766E+02  0.60583612641E+02  0.47000000000E+01 0. -1.
        -13    1    6    6    0    0 -0.32581046707E+02  0.44807733464E+02  0.12460791845E+03  0.13636858481E+03  0.00000000000E+00 0.  1.
         14    1    6    6    0    0 -0.94709145368E+01  0.90181615903E+02  0.55639527964E+03  0.56373586836E+03  0.00000000000E+00 0. -1.
         -5    1    3    3    0  503 -0.24545950456E+02  0.19934574549E+02  0.31656750658E+01  0.32124794861E+02  0.47000000000E+01 0.  1.
         11    1    4    4    0    0 -0.23283590468E+02 -0.49040503005E+02  0.48962161845E+02  0.73105333681E+02  0.00000000000E+00 0. -1.
        -12    1    4    4    0    0  0.57161711829E+02 -0.13532401782E+03  0.10898508150E+03  0.18291473174E+03  0.00000000000E+00 0.  1.
</event>
<event>
12    1  0.8358445E-002  0.1858685E+03  0.7818608E-02  0.1163273E+00
         21   -1    0    0  501  502  0.00000000000E+00  0.00000000000E+00  0.19655919974E+03  0.19655919974E+03  0.00000000000E+00 0. -1.
         21   -1    0    0  502  503 -0.00000000000E+00 -0.00000000000E+00 -0.29205697281E+03  0.29205697281E+03  0.00000000000E+00 0. -1.
         -6    2    1    2    0  503 -0.10494335576E+02  0.52615824335E+02 -0.20428345474E+03  0.27325273250E+03  0.17336888386E+03 0.  0.
        -24    2    3    3    0    0 -0.60007084696E+02  0.14267813463E+02 -0.17883306291E+03  0.20548921202E+03  0.80250427745E+02 0.  0.
          6    2    1    2  501    0  0.10494335576E+02 -0.52615824335E+02  0.10878568167E+03  0.21536344005E+03  0.17795654167E+03 0.  0.
         24    2    5    5    0    0  0.32333525315E+02 -0.96264975311E+02  0.10472416890E+03  0.16616197183E+03  0.79562849364E+02 0.  0.
          5    1    5    5  501    0 -0.21839189739E+02  0.43649150975E+02  0.40615127730E+01  0.49201468223E+02  0.47000000000E+01 0. -1.
        -13    1    6    6    0    0 -0.10470317933E+01 -0.69943054954E+02  0.22297008152E+02  0.73418552045E+02  0.00000000000E+00 0.  1.
         14    1    6    6    0    0  0.33380557108E+02 -0.26321920357E+02  0.82427160745E+02  0.92743419781E+02  0.00000000000E+00 0. -1.
         -5    1    3    3    0  503  0.49512749120E+02  0.38348010872E+02 -0.25450391826E+02  0.67763520477E+02  0.47000000000E+01 0.  1.
         11    1    4    4    0    0 -0.16796172869E+02 -0.31049823899E+02 -0.91116322415E+02  0.97715849265E+02  0.00000000000E+00 0. -1.
        -12    1    4    4    0    0 -0.43210911827E+02  0.45317637362E+02 -0.87716740495E+02  0.10777336276E+03  0.00000000000E+00 0.  1.
</event>
<event>
12    1  0.8358445E-002  0.1967277E+03  0.7818608E-02  0.1152801E+00
         21   -1    0    0  503  502  0.00000000000E+00  0.00000000000E+00  0.57863996486E+03  0.57863996486E+03  0.00000000000E+00 0. -1.
         21   -1    0    0  501  503 -0.00000000000E+00 -0.00000000000E+00 -0.90003380875E+02  0.90003380875E+02  0.00000000000E+00 0. -1.
          6    2    1    2  501    0  0.48174152860E+02  0.80058363714E+02  0.73901046273E+02  0.21015031682E+03  0.17312336761E+03 0.  0.
         24    2    3    3    0    0 -0.14859086984E+02 -0.11416336210E+02  0.50087460494E+02  0.96440216476E+02  0.80254822015E+02 0.  0.
         -6    2    1    2    0  502 -0.48174152860E+02 -0.80058363714E+02  0.41473553772E+03  0.45849302892E+03  0.17169799277E+03 0.  0.
        -24    2    5    5    0    0 -0.42762509475E+02  0.10525792342E+02  0.28125338226E+03  0.29701748576E+03  0.84714209537E+02 0.  0.
          5    1    3    3  501    0  0.63033239844E+02  0.91474699925E+02  0.23813585778E+02  0.11371010034E+03  0.47000000000E+01 0. -1.
        -11    1    4    4    0    0 -0.68572866709E+01 -0.78119538925E+01  0.72046444753E+02  0.72792439206E+02  0.00000000000E+00 0.  1.
         12    1    4    4    0    0 -0.80018003133E+01 -0.36043823179E+01 -0.21958984258E+02  0.23647777270E+02  0.00000000000E+00 0. -1.
         -5    1    5    5    0  502 -0.54116433848E+01 -0.90584156056E+02  0.13348215546E+03  0.16147554316E+03  0.47000000000E+01 0.  1.
         13    1    6    6    0    0  0.66748041298E+01  0.16827788790E+02  0.20577624333E+03  0.20657102847E+03  0.00000000000E+00 0. -1.
        -14    1    6    6    0    0 -0.49437313605E+02 -0.63019964484E+01  0.75477138926E+02  0.90446457289E+02  0.00000000000E+00 0.  1.
</event>
<event>
12    1  0.8358445E-002  0.1899324E+03  0.7818608E-02  0.1158782E+00
         21   -1    0    0  501  502  0.00000000000E+00  0.00000000000E+00  0.26905730996E+03  0.26905730996E+03  0.00000000000E+00 0. -1.
         21   -1    0    0  502  503 -0.00000000000E+00 -0.00000000000E+00 -0.17832986727E+03  0.17832986727E+03  0.00000000000E+00 0. -1.
         -6    2    1    2    0  503 -0.77579407606E+02  0.12113109619E+02 -0.66978772444E+02  0.20139631859E+03  0.17294227151E+03 0.  0.
        -24    2    3    3    0    0 -0.67974764644E+02 -0.57462209044E+02 -0.50516276586E+02  0.12910470149E+03  0.78699781763E+02 0.  0.
          6    2    1    2  501    0  0.77579407606E+02 -0.12113109619E+02  0.15770621514E+03  0.24599085864E+03  0.17168273160E+03 0.  0.
         24    2    5    5    0    0  0.20243033571E+02 -0.62891223390E+02  0.12370762529E+03  0.16206308768E+03  0.81214416496E+02 0.  0.
          5    1    5    5  501    0  0.57336374035E+02  0.50778113770E+02  0.33998589852E+02  0.83927770955E+02  0.47000000000E+01 0. -1.
        -11    1    6    6    0    0  0.35793265523E+02 -0.75953144041E+02  0.93544273243E+02  0.12570031425E+03  0.00000000000E+00 0.  1.
         12    1    6    6    0    0 -0.15550231952E+02  0.13061920651E+02  0.30163352044E+02  0.36362773428E+02  0.00000000000E+00 0. -1.
         -5    1    3    3    0  503 -0.96046429619E+01  0.69575318663E+02 -0.16462495858E+02  0.72291617103E+02  0.47000000000E+01 0.  1.
         13    1    4    4    0    0  0.15953178331E+02 -0.21418814388E+01 -0.16332904163E+02  0.22931535346E+02  0.00000000000E+00 0. -1.
        -14    1    4    4    0    0 -0.83927942975E+02 -0.55320327605E+02 -0.34183372423E+02  0.10617316614E+03  0.00000000000E+00 0.  1.
</event>
<event>
12    1  0.8358445E-002  0.2227890E+03  0.7818608E-02  0.1131831E+00
         21   -1    0    0  501  502  0.00000000000E+00  0.00000000000E+00  0.13022257438E+04  0.13022257438E+04  0.00000000000E+00 0.  1.
         21   -1    0    0  502  503 -0.00000000000E+00 -0.00000000000E+00 -0.40725843902E+02  0.40725843902E+02  0.00000000000E+00 0.  1.
         -6    2    1    2    0  503 -0.12943061576E+03  0.57832436883E+02  0.46051278188E+03  0.51157303620E+03  0.17186644248E+03 0.  0.
        -24    2    3    3    0    0 -0.26943589910E+02  0.73939260798E+02  0.17932356619E+03  0.21181899493E+03  0.80730253912E+02 0.  0.
          6    2    1    2  501    0  0.12943061576E+03 -0.57832436883E+02  0.80098711797E+03  0.83137855145E+03  0.17179364830E+03 0.  0.
         24    2    5    5    0    0  0.73196458414E+02  0.20086627425E+02  0.25219773225E+03  0.27422009919E+03  0.76366043006E+02 0.  0.
          5    1    5    5  501    0  0.56234157346E+02 -0.77919064308E+02  0.54878938572E+03  0.55715845225E+03  0.47000000000E+01 0. -1.
        -11    1    6    6    0    0  0.60498428081E+02 -0.20892155617E+02  0.13463580988E+03  0.14907495856E+03  0.00000000000E+00 0.  1.
         12    1    6    6    0    0  0.12698030332E+02  0.40978783042E+02  0.11756192236E+03  0.12514514063E+03  0.00000000000E+00 0. -1.
         -5    1    3    3    0  503 -0.10248702585E+03 -0.16106823915E+02  0.28118921568E+03  0.29975404127E+03  0.47000000000E+01 0.  1.
         13    1    4    4    0    0  0.28315133887E+02  0.20442523619E+02  0.44107904718E+02  0.56259673280E+02  0.00000000000E+00 0. -1.
        -14    1    4    4    0    0 -0.55258723797E+02  0.53496737179E+02  0.13521566147E+03  0.15555932165E+03  0.00000000000E+00 0.  1.
</event>
<event>
12    1  0.8358445E-002  0.3115097E+03  0.7818608E-02  0.1079827E+00
         21   -1    0    0  501  502  0.00000000000E+00  0.00000000000E+00  0.16771081994E+03  0.16771081994E+03  0.00000000000E+00 0.  1.
         21   -1    0    0  502  503 -0.00000000000E+00 -0.00000000000E+00 -0.57743036834E+03  0.57743036834E+03  0.00000000000E+00 0. -1.
         -6    2    1    2    0  503 -0.92141264447E+02  0.24223782259E+03 -0.18252644253E+03  0.35958317837E+03  0.16974977065E+03 0.  0.
        -24    2    3    3    0    0 -0.33074526756E+02  0.22748368735E+03 -0.11737168517E+03  0.27028706191E+03  0.80226124331E+02 0.  0.
          6    2    1    2  501    0  0.92141264447E+02 -0.24223782259E+03 -0.22719310586E+03  0.38555800991E+03  0.17282678135E+03 0.  0.
         24    2    5    5    0    0 -0.89771126622E+00 -0.17882017503E+03 -0.11715560401E+03  0.22805121375E+03  0.79400627574E+02 0.  0.
          5    1    5    5  501    0  0.93038975713E+02 -0.63417647562E+02 -0.11003750185E+03  0.15750679617E+03  0.47000000000E+01 0. -1.
        -11    1    6    6    0    0  0.89490145139E+01 -0.11692284866E+03 -0.30609458532E+02  0.12119396169E+03  0.00000000000E+00 0.  1.
         12    1    6    6    0    0 -0.98467257801E+01 -0.61897326368E+02 -0.86546145474E+02  0.10685725205E+03  0.00000000000E+00 0. -1.
         -5    1    3    3    0  503 -0.59066737691E+02  0.14754135240E+02 -0.65154757358E+02  0.89296116458E+02  0.47000000000E+01 0.  1.
         13    1    4    4    0    0 -0.11064909418E+02  0.29567390686E+02 -0.51745553828E+02  0.60615717049E+02  0.00000000000E+00 0. -1.
        -14    1    4    4    0    0 -0.22009617338E+02  0.19791629666E+03 -0.65626131346E+02  0.20967134486E+03  0.00000000000E+00 0.  1.
</event>
<event>
12    1  0.8358445E-002  0.1955249E+03  0.7818608E-02  0.1154637E+00
         21   -1    0    0  501  502  0.00000000000E+00  0.00000000000E+00  0.16073363995E+04  0.16073363995E+04  0.00000000000E+00 0. -1.
         21   -1    0    0  502  503 -0.00000000000E+00 -0.00000000000E+00 -0.28475362736E+02  0.28475362736E+02  0.00000000000E+00 0.  1.
         -6    2    1    2    0  503  0.85098812404E+02  0.10681084206E+02  0.11334094894E+04  0.11493376398E+04  0.17030574349E+03 0.  0.
        -24    2    3    3    0    0  0.11164634364E+03 -0.24396389213E+02  0.96906462091E+03  0.97914208657E+03  0.81073400877E+02 0.  0.
          6    2    1    2  501    0 -0.85098812404E+02 -0.10681084206E+02  0.44545154740E+03  0.48647412243E+03  0.17571026515E+03 0.  0.
         24    2    5    5    0    0 -0.49159286795E+02 -0.22074644182E+02  0.99727526282E+02  0.13866864305E+03  0.79871695065E+02 0.  0.
          5    1    5    5  501    0 -0.35939525609E+02  0.11393559976E+02  0.34572402111E+03  0.34780547938E+03  0.47000000000E+01 0. -1.
        -13    1    6    6    0    0 -0.40229842495E+02  0.15706759661E+02  0.15429772943E+02  0.45860881143E+02  0.00000000000E+00 0.  1.
         14    1    6    6    0    0 -0.89294443007E+01 -0.37781403843E+02  0.84297753339E+02  0.92807761905E+02  0.00000000000E+00 0. -1.
         -5    1    3    3    0  503 -0.26547531233E+02  0.35077473419E+02  0.16434486845E+03  0.17019555324E+03  0.47000000000E+01 0.  1.
         13    1    4    4    0    0  0.35336752531E+02  0.24226717741E+02  0.46935539759E+03  0.47130681003E+03  0.00000000000E+00 0. -1.
        -14    1    4    4    0    0  0.76309591106E+02 -0.48623106954E+02  0.49970922333E+03  0.50783527654E+03  0.00000000000E+00 0.  1.
</event>
<event>
12    1  0.8358445E-002  0.1818983E+03  0.7818608E-02  0.1166909E+00
         21   -1    0    0  503  502  0.00000000000E+00  0.00000000000E+00  0.42901483052E+02  0.42901483052E+02  0.00000000000E+00 0. -1.
         21   -1    0    0  501  503 -0.00000000000E+00 -0.00000000000E+00 -0.85124992714E+03  0.85124992714E+03  0.00000000000E+00 0. -1.
          6    2    1    2  501    0  0.22857131419E+02  0.41790248570E+02 -0.55834888925E+03  0.58723119078E+03  0.17555089278E+03 0.  0.
         24    2    3    3    0    0  0.17867031855E+02 -0.59801639625E+01 -0.11372617438E+03  0.13999706642E+03  0.79438924203E+02 0.  0.
         -6    2    1    2    0  502 -0.22857131419E+02 -0.41790248570E+02 -0.24999955483E+03  0.30692021942E+03  0.17155573537E+03 0.  0.
        -24    2    5    5    0    0 -0.51773381108E+02 -0.31734324147E+02 -0.59627895578E+02  0.11404531239E+03  0.75916381808E+02 0.  0.
          5    1    3    3  501    0  0.49900995634E+01  0.47770412532E+02 -0.44462271487E+03  0.44723412436E+03  0.47000000000E+01 0. -1.
        -13    1    4    4    0    0  0.11511216710E+02 -0.41868072836E+02 -0.76078056055E+02  0.87597455707E+02  0.00000000000E+00 0.  1.
         14    1    4    4    0    0  0.63558151455E+01  0.35887908873E+02 -0.37648118323E+02  0.52399610712E+02  0.00000000000E+00 0. -1.
         -5    1    5    5    0  502  0.28916249690E+02 -0.10055924423E+02 -0.19037165926E+03  0.19287490703E+03  0.47000000000E+01 0.  1.
         11    1    6    6    0    0 -0.58647265020E+01 -0.37426072320E+02 -0.56044199642E+02  0.67646568425E+02  0.00000000000E+00 0. -1.
        -12    1    6    6    0    0 -0.45908654606E+02  0.56917481736E+01 -0.35836959366E+01  0.46398743966E+02  0.00000000000E+00 0.  1.
</event>
<event>
12    1  0.8358445E-002  0.2134015E+03  0.7818608E-02  0.1139149E+00
         21   -1    0    0  503  502  0.00000000000E+00  0.00000000000E+00  0.31897869920E+03  0.31897869920E+03  0.00000000000E+00 0.  1.
         21   -1    0    0  501  503 -0.00000000000E+00 -0.00000000000E+00 -0.22598377503E+03  0.22598377503E+03  0.00000000000E+00 0. -1.
          6    2    1    2  501    0 -0.94004411037E+02 -0.81868810663E+02 -0.11978276935E+03  0.24360795648E+03  0.17163214492E+03 0.  0.
         24    2    3    3    0    0 -0.53511002481E+02  0.14526680649E+02 -0.94819208079E+02  0.13601113369E+03  0.80211560453E+02 0.  0.
         -6    2    1    2    0  502  0.94004411037E+02  0.81868810663E+02  0.21277769353E+03  0.30135451775E+03  0.17320758371E+03 0.  0.
        -24    2    5    5    0    0  0.51185063690E+02  0.42261250341E+02  0.27468156555E+02  0.10702497848E+03  0.79334244614E+02 0.  0.
          5    1    3    3  501    0 -0.40493408555E+02 -0.96395491312E+02 -0.24963561275E+02  0.10759682278E+03  0.47000000000E+01 0. -1.
        -13    1    4    4    0    0  0.12140347216E+02 -0.11176697284E+02  0.15841648146E+01  0.16577580369E+02  0.00000000000E+00 0.  1.
         14    1    4    4    0    0 -0.65651349698E+02  0.25703377933E+02 -0.96403372894E+02  0.11943355332E+03  0.00000000000E+00 0. -1.
         -5    1    5    5    0  502  0.42819347347E+02  0.39607560323E+02  0.18530953697E+03  0.19432953927E+03  0.47000000000E+01 0.  1.
         13    1    6    6    0    0 -0.15825875176E+02  0.31910564452E+02  0.85944042337E+01  0.36641591571E+02  0.00000000000E+00 0. -1.
        -14    1    6    6    0    0  0.67010938865E+02  0.10350685889E+02  0.18873752321E+02  0.70383386908E+02  0.00000000000E+00 0.  1.
</event>
<event>
12    1  0.8358445E-002  0.2277607E+03  0.7818608E-02  0.1128442E+00
         21   -1    0    0  501  502  0.00000000000E+00  0.00000000000E+00  0.31108526868E+03  0.31108526868E+03  0.00000000000E+00 0.  1.
         21   -1    0    0  502  503 -0.00000000000E+00 -0.00000000000E+00 -0.24007545167E+03  0.24007545167E+03  0.00000000000E+00 0.  1.
         -6    2    1    2    0  503  0.11492534640E+03  0.92938420685E+02 -0.11764261077E+03  0.25634883223E+03  0.17329037663E+03 0.  0.
        -24    2    3    3    0    0  0.55978824872E+02  0.75974694107E+02 -0.14329834219E+03  0.18969474778E+03  0.80894372380E+02 0.  0.
          6    2    1    2  501    0 -0.11492534640E+03 -0.92938420685E+02  0.18865242778E+03  0.29481188812E+03  0.17169427942E+03 0.  0.
         24    2    5    5    0    0 -0.45300681256E+02 -0.63757558974E+01  0.15191847241E+03  0.17771294531E+03  0.80061643030E+02 0.  0.
          5    1    5    5  501    0 -0.69624665143E+02 -0.86562664788E+02  0.36733955368E+02  0.11709894282E+03  0.47000000000E+01 0. -1.
        -11    1    6    6    0    0  0.12510784990E+02  0.19237695231E+02  0.16514707978E+02  0.28272676535E+02  0.00000000000E+00 0.  1.
         12    1    6    6    0    0 -0.57811466246E+02 -0.25613451128E+02  0.13540376443E+03  0.14944026877E+03  0.00000000000E+00 0. -1.
         -5    1    3    3    0  503  0.58946521528E+02  0.16963726578E+02  0.25655731418E+02  0.66654084453E+02  0.47000000000E+01 0.  1.
         13    1    4    4    0    0  0.40773290758E+02  0.37937818355E+02 -0.19039304109E+02  0.58857747169E+02  0.00000000000E+00 0. -1.
        -14    1    4    4    0    0  0.15205534113E+02  0.38036875752E+02 -0.12425903808E+03  0.13083700061E+03  0.00000000000E+00 0.  1.
</event>
<event>
12    1  0.8358445E-002  0.2305217E+03  0.7818608E-02  0.1128859E+00
         21   -1    0    0  501  502  0.00000000000E+00  0.00000000000E+00  0.13366644806E+03  0.13366644806E+03  0.00000000000E+00 0. -1.
         21   -1    0    0  502  503 -0.00000000000E+00 -0.00000000000E+00 -0.37426470451E+03  0.37426470451E+03  0.00000000000E+00 0.  1.
         -6    2    1    2    0  503 -0.17232587033E+02  0.12897682231E+03 -0.10403710741E+03  0.23999610668E+03  0.17274961290E+03 0.  0.
        -24    2    3    3    0    0 -0.29858369925E+02  0.65317840378E+02  0.96955572595E+01  0.10896525006E+03  0.81372473014E+02 0.  0.
          6    2    1    2  501    0  0.17232587033E+02 -0.12897682231E+03 -0.13656114905E+03  0.26793504590E+03  0.19028467790E+03 0.  0.
         24    2    5    5    0    0  0.47913749982E+02 -0.11513668662E+03 -0.22573864781E+02  0.14898936884E+03  0.78333062072E+02 0.  0.
          5    1    5    5  501    0 -0.30681162949E+02 -0.13840135685E+02 -0.11398728427E+03  0.11894567706E+03  0.47000000000E+01 0. -1.
        -11    1    6    6    0    0  0.16676013587E+02 -0.11299014321E+03 -0.81185849284E+01  0.11450228518E+03  0.00000000000E+00 0.  1.
         12    1    6    6    0    0  0.31237736395E+02 -0.21465434144E+01 -0.14455279852E+02  0.34487083659E+02  0.00000000000E+00 0. -1.
         -5    1    3    3    0  503  0.12625782891E+02  0.63658981928E+02 -0.11373266467E+03  0.13103085662E+03  0.47000000000E+01 0.  1.
         11    1    4    4    0    0  0.16274944305E+02  0.16265573175E+02  0.30756056404E+02  0.38410645509E+02  0.00000000000E+00 0. -1.
        -12    1    4    4    0    0 -0.46133314230E+02  0.49052267203E+02 -0.21060499145E+02  0.70554604554E+02  0.00000000000E+00 0.  1.
</event>
<event>
12    1  0.8358445E-002  0.2934439E+03  0.7818608E-02  0.1088588E+00
         21   -1    0    0  503  502  0.00000000000E+00  0.00000000000E+00  0.54946971342E+03  0.54946971342E+03  0.00000000000E+00 0. -1.
         21   -1    0    0  501  503 -0.00000000000E+00 -0.00000000000E+00 -0.15676464480E+03  0.15676464480E+03  0.00000000000E+00 0.  1.
          6    2    1    2  501    0  0.31564150770E+02 -0.23541024849E+03  0.18552762299E+03  0.34717404362E+03  0.17232247957E+03 0.  0.
         24    2    3    3    0    0  0.48024992166E+02 -0.64965000054E+02  0.33181634570E+02  0.11792759937E+03  0.79240436116E+02 0.  0.
         -6    2    1    2    0  502 -0.31564150770E+02  0.23541024849E+03  0.20717744563E+03  0.35906031460E+03  0.17201027537E+03 0.  0.
        -24    2    5    5    0    0 -0.16334768294E+02  0.13065551570E+03  0.20047641877E+03  0.25288836965E+03  0.80150137768E+02 0.  0.
          5    1    3    3  501    0 -0.16460841396E+02 -0.17044524844E+03  0.15234598842E+03  0.22924644425E+03  0.47000000000E+01 0. -1.
        -11    1    4    4    0    0  0.11709204110E+02  0.17232988294E+02 -0.30090993364E+01  0.21050796309E+02  0.00000000000E+00 0.  1.
         12    1    4    4    0    0  0.36315788056E+02 -0.82197988348E+02  0.36190733907E+02  0.96876803061E+02  0.00000000000E+00 0. -1.
         -5    1    5    5    0  502 -0.15229382476E+02  0.10475473279E+03  0.67010268633E+01  0.10617194495E+03  0.47000000000E+01 0.  1.
         11    1    6    6    0    0  0.30868482666E+02  0.72442740827E+02  0.92971426279E+02  0.12183800731E+03  0.00000000000E+00 0. -1.
        -12    1    6    6    0    0 -0.47203250961E+02  0.58212774869E+02  0.10750499249E+03  0.13105036234E+03  0.00000000000E+00 0.  1.
</event>
<event>
12    1  0.8358445E-002  0.2052613E+03  0.7818608E-02  0.1145436E+00
         21   -1    0    0  501  502  0.00000000000E+00  0.00000000000E+00  0.10593174154E+04  0.10593174154E+04  0.00000000000E+00 0. -1.
         21   -1    0    0  502  503 -0.00000000000E+00 -0.00000000000E+00 -0.55939962955E+02  0.55939962955E+02  0.00000000000E+00 0. -1.
         -6    2    1    2    0  503  0.10381889662E+03 -0.41147985985E+02  0.20110530739E+03  0.28714339053E+03  0.17186175263E+03 0.  0.
        -24    2    3    3    0    0  0.47482657208E+02 -0.75229728148E+02  0.98492361284E+02  0.16513173646E+03  0.98252890147E+02 0.  0.
          6    2    1    2  501    0 -0.10381889662E+03  0.41147985985E+02  0.80227214500E+03  0.82811398777E+03  0.17222271062E+03 0.  0.
         24    2    5    5    0    0 -0.10446000126E+03  0.82040452753E+02  0.51471318073E+03  0.53762327744E+03  0.80415186896E+02 0.  0.
          5    1    5    5  501    0  0.64110463133E+00 -0.40892466768E+02  0.28755896427E+03  0.29049071033E+03  0.47000000000E+01 0. -1.
        -11    1    6    6    0    0 -0.54898577605E+02  0.41643650686E+02  0.12531089253E+03  0.14300652871E+03  0.00000000000E+00 0.  1.
         12    1    6    6    0    0 -0.49561423651E+02  0.40396802067E+02  0.38940228819E+03  0.39461674874E+03  0.00000000000E+00 0. -1.
         -5    1    3    3    0  503  0.56336239417E+02  0.34081742163E+02  0.10261294611E+03  0.12201165407E+03  0.47000000000E+01 0.  1.
         11    1    4    4    0    0  0.62729592311E+02 -0.90818168173E+02  0.86599939935E+02  0.14029430145E+03  0.00000000000E+00 0. -1.
        -12    1    4    4    0    0 -0.15246935103E+02  0.15588440025E+02  0.11892421349E+02  0.24837435013E+02  0.00000000000E+00 0.  1.
</event>
<event>
12    1  0.8358445E-002  0.4178641E+03  0.7818608E-02  0.1037767E+00
         21   -1    0    0  503  502  0.00000000000E+00  0.00000000000E+00  0.49177080074E+03  0.49177080074E+03  0.00000000000E+00 0. -1.
         21   -1    0    0  501  503 -0.00000000000E+00 -0.00000000000E+00 -0.38736667646E+03  0.38736667646E+03  0.00000000000E+00 0. -1.
          6    2    1    2  501    0 -0.35203545757E+03 -0.14539132826E+03 -0.74808192899E+02  0.42446458046E+03  0.17177401616E+03 0.  0.
         24    2    3    3    0    0 -0.14596486089E+03 -0.11520857057E+03 -0.75506775048E+02  0.21614111156E+03  0.80230615628E+02 0.  0.
         -6    2    1    2    0  502  0.35203545757E+03  0.14539132826E+03  0.17921231718E+03  0.45467289674E+03  0.17188015208E+03 0.  0.
        -24    2    5    5    0    0  0.30284639857E+03  0.14591628643E+03  0.20215409421E+03  0.40019120955E+03  0.79241546048E+02 0.  0.
          5    1    3    3  501    0 -0.20607059668E+03 -0.30182757693E+02  0.69858214918E+00  0.20832346890E+03  0.47000000000E+01 0. -1.
        -11    1    4    4    0    0 -0.94759055782E+02 -0.56895546340E+02 -0.82933289891E+02  0.13818217113E+03  0.00000000000E+00 0.  1.
         12    1    4    4    0    0 -0.51205805106E+02 -0.58313024225E+02  0.74265148430E+01  0.77958940433E+02  0.00000000000E+00 0. -1.
         -5    1    5    5    0  502  0.49189058993E+02 -0.52495816737E+00 -0.22941777029E+02  0.54481687189E+02  0.47000000000E+01 0.  1.
         11    1    6    6    0    0  0.79922900572E+02  0.30243890661E+02  0.93148425382E+02  0.12640803815E+03  0.00000000000E+00 0. -1.
        -12    1    6    6    0    0  0.22292349800E+03  0.11567239576E+03  0.10900566883E+03  0.27378317140E+03  0.00000000000E+00 0.  1.
</event>
<event>
12    1  0.8358445E-002  0.2260125E+03  0.7818608E-02  0.1129773E+00
         21   -1    0    0  503  502  0.00000000000E+00  0.00000000000E+00  0.32676836795E+03  0.32676836795E+03  0.00000000000E+00 0. -1.
         21   -1    0    0  501  503 -0.00000000000E+00 -0.00000000000E+00 -0.19422279291E+03  0.19422279291E+03  0.00000000000E+00 0. -1.
          6    2    1    2  501    0 -0.24803583832E+02  0.14174638212E+03 -0.50688366960E+02  0.23003351820E+03  0.17215938643E+03 0.  0.
         24    2    3    3    0    0 -0.45075322001E+02  0.97176193333E+02 -0.94968706934E+02  0.16384980717E+03  0.79703869481E+02 0.  0.
         -6    2    1    2    0  502  0.24803583832E+02 -0.14174638212E+03  0.18323394200E+03  0.29095764266E+03  0.17428258005E+03 0.  0.
        -24    2    5    5    0    0  0.67571712435E+02 -0.97046598999E+02  0.17905622288E+03  0.22877463235E+03  0.79326683743E+02 0.  0.
          5    1    3    3  501    0  0.20271738168E+02  0.44570188785E+02  0.44280339974E+02  0.66183711024E+02  0.47000000000E+01 0. -1.
        -13    1    4    4    0    0 -0.24564275907E+02 -0.13245988179E+01  0.12525769152E+01  0.24631832287E+02  0.00000000000E+00 0.  1.
         14    1    4    4    0    0 -0.20511046094E+02  0.98500792151E+02 -0.96221283849E+02  0.13921797489E+03  0.00000000000E+00 0. -1.
         -5    1    5    5    0  502 -0.42768128603E+02 -0.44699783119E+02  0.41777191219E+01  0.62183010318E+02  0.47000000000E+01 0.  1.
         13    1    6    6    0    0  0.87823885046E+01 -0.38263796059E+02  0.10200370259E+02  0.40562248336E+02  0.00000000000E+00 0. -1.
        -14    1    6    6    0    0  0.58789323930E+02 -0.58782802941E+02  0.16885585262E+03  0.18821238401E+03  0.00000000000E+00 0.  1.
</event>
<event>
12    1  0.8358445E-002  0.1975588E+03  0.7818608E-02  0.1152681E+00
         21   -1    0    0  503  502  0.00000000000E+00  0.00000000000E+00  0.97748213789E+03  0.97748213789E+03  0.00000000000E+00 0. -1.
         21   -1    0    0  501  503 -0.00000000000E+00 -0.00000000000E+00 -0.70960443707E+02  0.70960443707E+02  0.00000000000E+00 0.  1.
          6    2    1    2  501    0  0.97711404243E+02 -0.52647154005E+01  0.99591239485E+02  0.21768013041E+03  0.16700595332E+03 0.  0.
         24    2    3    3    0    0  0.42945899371E+02  0.47573058745E+02  0.15434605010E+02  0.10412168719E+03  0.80594990663E+02 0.  0.
         -6    2    1    2    0  502 -0.97711404243E+02  0.52647154005E+01  0.80693045470E+03  0.83076245119E+03  0.17162242230E+03 0.  0.
        -24    2    5    5    0    0 -0.19197253862E+02  0.40845349541E+01  0.18242882343E+03  0.20132600318E+03  0.82865348326E+02 0.  0.
          5    1    3    3  501    0  0.54765504872E+02 -0.52837774145E+02  0.84156634475E+02  0.11355844322E+03  0.47000000000E+01 0. -1.
        -13    1    4    4    0    0  0.17786218795E+02  0.63843527186E+02  0.27589176221E+02  0.71787939009E+02  0.00000000000E+00 0.  1.
         14    1    4    4    0    0  0.25159680576E+02 -0.16270468442E+02 -0.12154571211E+02  0.32333748179E+02  0.00000000000E+00 0. -1.
         -5    1    5    5    0  502 -0.78514150381E+02  0.11801804463E+01  0.62450163126E+03  0.62943644801E+03  0.47000000000E+01 0.  1.
         11    1    6    6    0    0 -0.30231617972E+01  0.11138998228E+02  0.18329608469E+03  0.18365911753E+03  0.00000000000E+00 0. -1.
        -12    1    6    6    0    0 -0.16174092065E+02 -0.70544632743E+01 -0.86726125977E+00  0.17666885642E+02  0.00000000000E+00 0.  1.
</event>
<event>
12    1  0.8358445E-002  0.2671348E+03  0.7818608E-02  0.1102935E+00
         21   -1    0    0  501  502  0.00000000000E+00  0.00000000000E+00  0.26925656088E+03  0.26925656088E+03  0.00000000000E+00 0.  1.
         21   -1    0    0  502  503 -0.00000000000E+00 -0.00000000000E+00 -0.29181457251E+03  0.29181457251E+03  0.00000000000E+00 0.  1.
         -6    2    1    2    0  503 -0.20020539722E+03 -0.42701814997E+02 -0.96316033192E+02  0.28394077390E+03  0.17158070625E+03 0.  0.
        -24    2    3    3    0    0 -0.33498226459E+02 -0.23253965800E+00 -0.25717019271E+02  0.97926712885E+02  0.88352084105E+02 0.  0.
          6    2    1    2  501    0  0.20020539722E+03  0.42701814997E+02  0.73758021561E+02  0.27713035948E+03  0.17162559344E+03 0.  0.
         24    2    5    5    0    0  0.67037813338E+02  0.40407099053E+02  0.86359226925E+02  0.14326568343E+03  0.83308690445E+02 0.  0.
          5    1    5    5  501    0  0.13316758388E+03  0.22947159440E+01 -0.12601205363E+02  0.13386467605E+03  0.47000000000E+01 0. -1.
        -13    1    6    6    0    0  0.45788457924E+02 -0.20204592543E+02  0.39581950511E+02  0.63808614192E+02  0.00000000000E+00 0.  1.
         14    1    6    6    0    0  0.21249355415E+02  0.60611691597E+02  0.46777276414E+02  0.79457069242E+02  0.00000000000E+00 0. -1.
         -5    1    3    3    0  503 -0.16670717076E+03 -0.42469275339E+02 -0.70599013921E+02  0.18601406102E+03  0.47000000000E+01 0.  1.
         13    1    4    4    0    0 -0.41220481308E+02  0.18817111638E+02  0.18672490626E+02  0.49008914249E+02  0.00000000000E+00 0. -1.
        -14    1    4    4    0    0  0.77222548497E+01 -0.19049651296E+02 -0.44389509897E+02  0.48917798636E+02  0.00000000000E+00 0.  1.
</event>
<event>
12    1  0.8358445E-002  0.1958532E+03  0.7818608E-02  0.1154107E+00
         21   -1    0    0  503  502  0.00000000000E+00  0.00000000000E+00  0.33771951289E+03  0.33771951289E+03  0.00000000000E+00 0. -1.
         21   -1    0    0  501  503 -0.00000000000E+00 -0.00000000000E+00 -0.12117218819E+03  0.12117218819E+03  0.00000000000E+00 0.  1.
          6    2    1    2  501    0  0.17656075008E+02 -0.88400682663E+02  0.17433848722E+03  0.26220677645E+03  0.17387371224E+03 0.  0.
         24    2    3    3    0    0 -0.16116051786E+02  0.14607329039E+02  0.49605600958E+02  0.96884092163E+02  0.80328764966E+02 0.  0.
         -6    2    1    2    0  502 -0.17656075008E+02  0.88400682663E+02  0.42208837474E+02  0.19668492463E+03  0.16963771968E+03 0.  0.
        -24    2    5    5    0    0  0.99862838787E+01  0.58811002244E+02  0.89781745303E+02  0.13403573668E+03  0.79664026177E+02 0.  0.
          5    1    3    3  501    0  0.33772126794E+02 -0.10300801170E+03  0.12473288626E+03  0.16532268428E+03  0.47000000000E+01 0. -1.
        -13    1    4    4    0    0 -0.36259730392E+01 -0.81980608415E+01 -0.20358439231E+02  0.22244593275E+02  0.00000000000E+00 0.  1.
         14    1    4    4    0    0 -0.12490078747E+02  0.22805389881E+02  0.69964040189E+02  0.74639498888E+02  0.00000000000E+00 0. -1.
         -5    1    5    5    0  502 -0.27642358886E+02  0.29589680420E+02 -0.47572907829E+02  0.62649187955E+02  0.47000000000E+01 0.  1.
         13    1    6    6    0    0  0.23782493874E+02 -0.12415544625E+02  0.27502430196E+02  0.38420520948E+02  0.00000000000E+00 0. -1.
        -14    1    6    6    0    0 -0.13796209995E+02  0.71226546869E+02  0.62279315107E+02  0.95615215732E+02  0.00000000000E+00 0.  1.
</event>
<event>
12    1  0.8358445E-002  0.1812327E+03  0.7818608E-02  0.1168057E+00
         21   -1    0    0  501  502  0.00000000000E+00  0.00000000000E+00  0.47288965078E+03  0.47288965078E+03  0.00000000000E+00 0. -1.
         21   -1    0    0  502  503 -0.00000000000E+00 -0.00000000000E+00 -0.78421270150E+02  0.78421270150E+02  0.00000000000E+00 0. -1.
         -6    2    1    2    0  503  0.40859740323E+01  0.29387738410E+02  0.95826531830E+02  0.20500738027E+03  0.17878749232E+03 0.  0.
        -24    2    3    3    0    0  0.22267662094E+01  0.58375961368E+02 -0.54931603280E+00  0.10423948968E+03  0.86329937488E+02 0.  0.
          6    2    1    2  501    0 -0.40859740323E+01 -0.29387738410E+02  0.29864184881E+03  0.34630354066E+03  0.17279714715E+03 0.  0.
         24    2    5    5    0    0  0.89808604788E+01  0.79530967367E+01  0.29460988226E+03  0.30626072748E+03  0.82805451900E+02 0.  0.
          5    1    5    5  501    0 -0.13066834511E+02 -0.37340835147E+02  0.40319665424E+01  0.40042813185E+02  0.47000000000E+01 0. -1.
        -13    1    6    6    0    0 -0.21230931051E+02  0.30639591682E+02  0.78842621950E+02  0.87210641826E+02  0.00000000000E+00 0.  1.
         14    1    6    6    0    0  0.30211791530E+02 -0.22686494945E+02  0.21576726031E+03  0.21905008565E+03  0.00000000000E+00 0. -1.
         -5    1    3    3    0  503  0.18592078229E+01 -0.28988222958E+02  0.96375847862E+02  0.10076789060E+03  0.47000000000E+01 0.  1.
         13    1    4    4    0    0  0.30659887272E+02  0.16206609496E+02 -0.29664139629E+02  0.45635995210E+02  0.00000000000E+00 0. -1.
        -14    1    4    4    0    0 -0.28433121063E+02  0.42169351872E+02  0.29114823596E+02  0.58603494467E+02  0.00000000000E+00 0.  1.
</event>
<event>
12    1  0.8358445E-002  0.1876990E+03  0.7818608E-02  0.1161191E+00
         21   -1    0    0  503  502  0.00000000000E+00  0.00000000000E+00  0.23014597776E+03  0.23014597776E+03  0.00000000000E+00 0. -1.
         21   -1    0    0  501  503 -0.00000000000E+00 -0.00000000000E+00 -0.29855191659E+03  0.29855191659E+03  0.00000000000E+00 0. -1.
          6    2    1    2  501    0  0.70852902746E+02  0.23866899254E+02 -0.22001612777E+03  0.28741682741E+03  0.16914955954E+03 0.  0.
         24    2    3    3    0    0  0.94590930502E+02 -0.27730881632E+02 -0.16408748983E+03  0.20756742230E+03  0.80268826791E+02 0.  0.
         -6    2    1    2    0  502 -0.70852902746E+02 -0.23866899254E+02  0.15161018894E+03  0.24128106694E+03  0.17216602791E+03 0.  0.
        -24    2    5    5    0    0 -0.44679247909E+02  0.41888130759E+02  0.13488327337E+03  0.16840676500E+03  0.80102998500E+02 0.  0.
          5    1    3    3  501    0 -0.23738027755E+02  0.51597780886E+02 -0.55928637939E+02  0.79849405106E+02  0.47000000000E+01 0. -1.
        -13    1    4    4    0    0 -0.14000171131E+02 -0.40696045061E+01 -0.10415512386E+02  0.17917850619E+02  0.00000000000E+00 0.  1.
         14    1    4    4    0    0  0.10859110163E+03 -0.23661277126E+02 -0.15367197744E+03  0.18964957169E+03  0.00000000000E+00 0. -1.
         -5    1    5    5    0  502 -0.26173654837E+02 -0.65755030013E+02  0.16726915567E+02  0.72874301945E+02  0.47000000000E+01 0.  1.
         11    1    6    6    0    0  0.11509833393E+02  0.42241763849E+02  0.70111833763E+02  0.82659011072E+02  0.00000000000E+00 0. -1.
        -12    1    6    6    0    0 -0.56189081303E+02 -0.35363308975E+00  0.64771439610E+02  0.85747753925E+02  0.00000000000E+00 0.  1.
</event>
<event>
12    1  0.8358445E-002  0.1858778E+03  0.7818608E-02  0.1163569E+00
         21   -1    0    0  501  502  0.00000000000E+00  0.00000000000E+00  0.16166812899E+03  0.16166812899E+03  0.00000000000E+00 0.  1.
         21   -1    0    0  502  503 -0.00000000000E+00 -0.00000000000E+00 -0.41314075985E+03  0.41314075985E+03  0.00000000000E+00 0.  1.
         -6    2    1    2    0  503 -0.29903015994E+01 -0.53879340104E+02 -0.32763998933E+03  0.37393079453E+03  0.17194287218E+03 0.  0.
        -24    2    3    3    0    0  0.73059047714E+01 -0.75709807917E+02 -0.33121950994E+03  0.34908156600E+03  0.79788625085E+02 0.  0.
          6    2    1    2  501    0  0.29903015994E+01  0.53879340104E+02  0.76167358466E+02  0.20087809431E+03  0.17787247422E+03 0.  0.
         24    2    5    5    0    0 -0.56702738747E+02  0.21408601759E+02  0.87402897134E+02  0.13184234094E+03  0.77907686562E+02 0.  0.
          5    1    5    5  501    0  0.59693040347E+02  0.32470738345E+02 -0.11235538668E+02  0.69035753372E+02  0.47000000000E+01 0. -1.
        -11    1    6    6    0    0 -0.36077328200E+02 -0.27637535850E+02  0.42442943197E+02  0.62183682950E+02  0.00000000000E+00 0.  1.
         12    1    6    6    0    0 -0.20625410547E+02  0.49046137609E+02  0.44959953937E+02  0.69658657987E+02  0.00000000000E+00 0. -1.
         -5    1    3    3    0  503 -0.10296206371E+02  0.21830467814E+02  0.35795206147E+01  0.24849228528E+02  0.47000000000E+01 0.  1.
         13    1    4    4    0    0 -0.31940526184E+02 -0.13580773503E+02 -0.77144439877E+02  0.84592548287E+02  0.00000000000E+00 0. -1.
        -14    1    4    4    0    0  0.39246430956E+02 -0.62129034415E+02 -0.25407507007E+03  0.26448901771E+03  0.00000000000E+00 0.  1.
</event>
<event>
12    1  0.8358445E-002  0.1912405E+03  0.7818608E-02  0.1157831E+00
         21   -1    0    0  501  502  0.00000000000E+00  0.00000000000E+00  0.94909618135E+03  0.94909618135E+03  0.00000000000E+00 0.  1.
         21   -1    0    0  502  503 -0.00000000000E+00 -0.00000000000E+00 -0.39146407564E+02  0.39146407564E+02  0.00000000000E+00 0. -1.
         -6    2    1    2    0  503  0.82320961977E+02  0.10783024939E+02  0.37178820427E+03  0.41711141940E+03  0.16988953160E+03 0.  0.
        -24    2    3    3    0    0  0.63322857398E+02 -0.44335144924E+02  0.32374375391E+03  0.34141928086E+03  0.76037607780E+02 0.  0.
          6    2    1    2  501    0 -0.82320961977E+02 -0.10783024939E+02  0.53816156951E+03  0.57113116952E+03  0.17227862168E+03 0.  0.
         24    2    5    5    0    0 -0.11593861963E+03 -0.28829884395E+02  0.33486995327E+03  0.36423649274E+03  0.79103800715E+02 0.  0.
          5    1    5    5  501    0  0.33617657654E+02  0.18046859456E+02  0.20329161624E+03  0.20689467677E+03  0.47000000000E+01 0. -1.
        -11    1    6    6    0    0 -0.78954788786E+02 -0.27763904555E+02  0.30619228202E+03  0.31742464718E+03  0.00000000000E+00 0.  1.
         12    1    6    6    0    0 -0.36983830845E+02 -0.10659798402E+01  0.28677671253E+02  0.46811845568E+02  0.00000000000E+00 0. -1.
         -5    1    3    3    0  503  0.18998104579E+02  0.55118169863E+02  0.48044450358E+02  0.75692138541E+02  0.47000000000E+01 0.  1.
         11    1    4    4    0    0  0.19719115118E+02 -0.15051775819E+02  0.16674913022E+02  0.29890670461E+02  0.00000000000E+00 0. -1.
        -12    1    4    4    0    0  0.43603742280E+02 -0.29283369105E+02  0.30706884089E+03  0.31152861039E+03  0.00000000000E+00 0.  1.
</event>
<event>
12    1  0.8358445E-002  0.1893915E+03  0.7818608E-02  0.1159362E+00
         21   -1    0    0  501  502  0.00000000000E+00  0.00000000000E+00  0.12594570798E+04  0.12594570798E+04  0.00000000000E+00 0.  1.
         21   -1    0    0  502  503 -0.00000000000E+00 -0.00000000000E+00 -0.29642015585E+02  0.29642015585E+02  0.00000000000E+00 0.  1.
         -6    2    1    2    0  503 -0.75039558262E+02  0.10722429257E+01  0.47754010592E+03  0.51372531611E+03  0.17388807502E+03 0.  0.
        -24    2    3    3    0    0 -0.12221473821E+02 -0.57713060150E+02  0.20686146283E+03  0.22966398220E+03  0.80459419486E+02 0.  0.
          6    2    1    2  501    0  0.75039558262E+02 -0.10722429257E+01  0.75227495830E+03  0.77537377929E+03  0.17220569013E+03 0.  0.
         24    2    5    5    0    0 -0.74284050799E+01  0.33572568978E+02  0.36355535073E+03  0.37646746036E+03  0.91503863729E+02 0.  0.
          5    1    5    5  501    0  0.82467963342E+02 -0.34644811903E+02  0.38871960757E+03  0.39890631892E+03  0.47000000000E+01 0. -1.
        -11    1    6    6    0    0  0.32080561765E+02  0.68565375703E+01  0.26451627436E+03  0.26654274320E+03  0.00000000000E+00 0.  1.
         12    1    6    6    0    0 -0.39508966844E+02  0.26716031407E+02  0.99039076370E+02  0.10992471716E+03  0.00000000000E+00 0. -1.
         -5    1    3    3    0  503 -0.62818084441E+02  0.58785303075E+02  0.27067864310E+03  0.28406133390E+03  0.47000000000E+01 0.  1.
         11    1    4    4    0    0  0.16925482826E+02  0.12022111361E+02  0.23619437106E+02  0.31446477381E+02  0.00000000000E+00 0. -1.
        -12    1    4    4    0    0 -0.29146956647E+02 -0.69735171511E+02  0.18324202572E+03  0.19821750482E+03  0.00000000000E+00 0.  1.
</event>
<event>
12    1  0.8358445E-002  0.2315461E+03  0.7818608E-02  0.1125836E+00
         21   -1    0    0  501  502  0.00000000000E+00  0.00000000000E+00  0.43071356734E+03  0.43071356734E+03  0.00000000000E+00 0. -1.
         21   -1    0    0  502  503 -0.00000000000E+00 -0.00000000000E+00 -0.15935466229E+03  0.15935466229E+03  0.00000000000E+00 0. -1.
         -6    2    1    2    0  503 -0.26948449715E+02  0.15066726478E+03 -0.43953252935E+01  0.22999325716E+03  0.17161216692E+03 0.  0.
        -24    2    3    3    0    0  0.30912411414E+02  0.37804108357E+02 -0.35497680035E+02  0.99320315052E+02  0.78865150137E+02 0.  0.
          6    2    1    2  501    0  0.26948449715E+02 -0.15066726478E+03  0.27575423035E+03  0.36007497248E+03  0.17374333551E+03 0.  0.
         24    2    5    5    0    0  0.32342851469E+02 -0.84679699951E+02  0.26623756170E+03  0.29302189452E+03  0.82235514114E+02 0.  0.
          5    1    5    5  501    0 -0.53944017540E+01 -0.65987564828E+02  0.95166686458E+01  0.67053077963E+02  0.47000000000E+01 0. -1.
        -11    1    6    6    0    0  0.17373587014E+02  0.27074211535E+01  0.12522332782E+03  0.12645178324E+03  0.00000000000E+00 0.  1.
         12    1    6    6    0    0  0.14969264455E+02 -0.87387121105E+02  0.14101423388E+03  0.16657011128E+03  0.00000000000E+00 0. -1.
         -5    1    3    3    0  503 -0.57860861128E+02  0.11286315642E+03  0.31102354741E+02  0.13067294211E+03  0.47000000000E+01 0.  1.
         11    1    4    4    0    0 -0.18942167829E+02  0.25994221355E+02 -0.35744973285E+02  0.48085427949E+02  0.00000000000E+00 0. -1.
        -12    1    4    4    0    0  0.49854579243E+02  0.11809887002E+02  0.24729324965E+00  0.51234887103E+02  0.00000000000E+00 0.  1.
</event>
<event>
12    1  0.8358445E-002  0.2010697E+03  0.7818608E-02  0.1149165E+00
         21   -1    0    0  501  502  0.00000000000E+00  0.00000000000E+00  0.53808317029E+02  0.53808317029E+02  0.00000000000E+00 0. -1.
         21   -1    0    0  502  503 -0.00000000000E+00 -0.00000000000E+00 -0.16871050180E+04  0.16871050180E+04  0.00000000000E+00 0. -1.
         -6    2    1    2    0  503 -0.97074826407E+02  0.29708870809E+02 -0.14655193943E+04  0.14790388287E+04  0.17176327504E+03 0.  0.
        -24    2    3    3    0    0 -0.13124341976E+03 -0.72123344302E+00 -0.11479635247E+04  0.11581692222E+04  0.79437634860E+02 0.  0.
          6    2    1    2  501    0  0.97074826407E+02 -0.29708870809E+02 -0.16777730659E+03  0.26187450630E+03  0.17355948121E+03 0.  0.
         24    2    5    5    0    0  0.11346514351E+03 -0.37423957623E+02 -0.18654101618E+03  0.23537296188E+03  0.79548658489E+02 0.  0.
          5    1    5    5  501    0 -0.16390317107E+02  0.77150868135E+01  0.18763709589E+02  0.26501544426E+02  0.47000000000E+01 0. -1.
        -11    1    6    6    0    0  0.35499053736E+02  0.18942381921E+02 -0.25052855007E+02  0.47398757294E+02  0.00000000000E+00 0.  1.
         12    1    6    6    0    0  0.77966089778E+02 -0.56366339543E+02 -0.16148816117E+03  0.18797420458E+03  0.00000000000E+00 0. -1.
         -5    1    3    3    0  503  0.34168593349E+02  0.30430104252E+02 -0.31755586961E+03  0.32086960644E+03  0.47000000000E+01 0.  1.
         11    1    4    4    0    0 -0.10209964462E+02  0.18338451569E+02 -0.37202102704E+03  0.37261264973E+03  0.00000000000E+00 0. -1.
        -12    1    4    4    0    0 -0.12103345529E+03 -0.19059685012E+02 -0.77594249769E+03  0.78555657251E+03  0.00000000000E+00 0.  1.
</event>
<event>
12    1  0.8358445E-002  0.2252193E+03  0.7818608E-02  0.1130206E+00
         21   -1    0    0  501  502  0.00000000000E+00  0.00000000000E+00  0.13043321319E+03  0.13043321319E+03  0.00000000000E+00 0. -1.
         21   -1    0    0  502  503 -0.00000000000E+00 -0.00000000000E+00 -0.39227859910E+03  0.39227859910E+03  0.00000000000E+00 0. -1.
         -6    2    1    2    0  503  0.11202393390E+03 -0.91471495343E+02 -0.10154318603E+03  0.24626918225E+03  0.17152578602E+03 0.  0.
        -24    2    3    3    0    0  0.99625009391E+02  0.35074520161E+01 -0.71017356865E+02  0.14562798782E+03  0.78908815377E+02 0.  0.
          6    2    1    2  501    0 -0.11202393390E+03  0.91471495343E+02 -0.16030219988E+03  0.27644263004E+03  0.17264801241E+03 0.  0.
         24    2    5    5    0    0 -0.21421959311E+02 -0.82355611390E+01 -0.30309944630E+02  0.89171993426E+02  0.80661185586E+02 0.  0.
          5    1    5    5  501    0 -0.90601974594E+02  0.99707056482E+02 -0.12999225525E+03  0.18727063661E+03  0.47000000000E+01 0. -1.
        -11    1    6    6    0    0  0.11750520031E+02  0.13303101097E+02 -0.43898614097E+02  0.47351193643E+02  0.00000000000E+00 0.  1.
         12    1    6    6    0    0 -0.33172479342E+02 -0.21538662236E+02  0.13588669467E+02  0.41820799783E+02  0.00000000000E+00 0. -1.
         -5    1    3    3    0  503  0.12398924514E+02 -0.94978947359E+02 -0.30525829165E+02  0.10064119443E+03  0.47000000000E+01 0.  1.
         13    1    4    4    0    0  0.45688599930E+02 -0.11570074858E+02 -0.75973233300E+02  0.89404960566E+02  0.00000000000E+00 0. -1.
        -14    1    4    4    0    0  0.53936409461E+02  0.15077526874E+02  0.49558764351E+01  0.56223027253E+02  0.00000000000E+00 0.  1.
</event>
<event>
12    1  0.8358445E-002  0.1931140E+03  0.7818608E-02  0.1155792E+00
         21   -1    0    0  503  502  0.00000000000E+00  0.00000000000E+00  0.10082770013E+03  0.10082770013E+03  0.00000000000E+00 0.  1.
         21   -1    0    0  501  503 -0.00000000000E+00 -0.00000000000E+00 -0.50966119223E+03  0.50966119223E+03  0.00000000000E+00 0.  1.
          6    2    1    2  501    0  0.87139931074E+02  0.67490615632E+01 -0.36463119463E+03  0.41238066100E+03  0.17164784896E+03 0.  0.
         24    2    3    3    0    0  0.79026388602E+02 -0.55914692045E+02 -0.27759480773E+03  0.30472380691E+03  0.80162948665E+02 0.  0.
         -6    2    1    2    0  502 -0.87139931074E+02 -0.67490615632E+01 -0.44202297478E+02  0.19810823136E+03  0.17220368989E+03 0.  0.
        -24    2    5    5    0    0 -0.67419301941E+02 -0.23298921454E+02 -0.93585177412E+02  0.14221941400E+03  0.79874741135E+02 0.  0.
          5    1    3    3  501    0  0.81135424719E+01  0.62663753609E+02 -0.87036386897E+02  0.10765685409E+03  0.47000000000E+01 0. -1.
        -13    1    4    4    0    0  0.79373538625E+01 -0.44878095465E+02 -0.16441987928E+03  0.17061928889E+03  0.00000000000E+00 0.  1.
         14    1    4    4    0    0  0.71089034740E+02 -0.11036596580E+02 -0.11317492844E+03  0.13410451802E+03  0.00000000000E+00 0. -1.
         -5    1    5    5    0  502 -0.19720629133E+02  0.16549859891E+02  0.49382879934E+02  0.55888817364E+02  0.47000000000E+01 0.  1.
         13    1    6    6    0    0  0.14307184904E+02 -0.16801909809E+02 -0.74177479634E+01  0.23281380929E+02  0.00000000000E+00 0. -1.
        -14    1    6    6    0    0 -0.81726486846E+02 -0.64970116447E+01 -0.86167429448E+02  0.11893803307E+03  0.00000000000E+00 0.  1.
</event>
<event>
12    1  0.8358445E-002  0.2324878E+03  0.7818608E-02  0.1125164E+00
         21   -1    0    0  503  502  0.00000000000E+00  0.00000000000E+00  0.63009130447E+02  0.63009130447E+02  0.00000000000E+00 0.  1.
         21   -1    0    0  501  503 -0.00000000000E+00 -0.00000000000E+00 -0.87190486054E+03  0.87190486054E+03  0.00000000000E+00 0. -1.
          6    2    1    2  501    0  0.15111376410E+03  0.30931680875E+02 -0.47589111493E+03  0.52964414084E+03  0.17394948712E+03 0.  0.
         24    2    3    3    0    0  0.37370001403E+01  0.12234853160E+02 -0.21025064852E+03  0.22524895474E+03  0.79800373477E+02 0.  0.
         -6    2    1    2    0  502 -0.15111376410E+03 -0.30931680875E+02 -0.33300461516E+03  0.40526985015E+03  0.17192858733E+03 0.  0.
        -24    2    5    5    0    0 -0.24625356890E+02 -0.14644229400E+02 -0.59707126422E+02  0.10364391363E+03  0.79726145206E+02 0.  0.
          5    1    3    3  501    0  0.14737676396E+03  0.18696827714E+02 -0.26564046642E+03  0.30439518610E+03  0.47000000000E+01 0. -1.
        -13    1    4    4    0    0  0.25827618677E+02  0.27280565672E+02 -0.48719098945E+02  0.61521100055E+02  0.00000000000E+00 0.  1.
         14    1    4    4    0    0 -0.22090618536E+02 -0.15045712512E+02 -0.16153154957E+03  0.16372785468E+03  0.00000000000E+00 0. -1.
         -5    1    5    5    0  502 -0.12648840721E+03 -0.16287451475E+02 -0.27329748874E+03  0.30162593653E+03  0.47000000000E+01 0.  1.
         13    1    6    6    0    0 -0.40185231417E+02 -0.81215979198E+01 -0.71941422965E+02  0.82803269954E+02  0.00000000000E+00 0. -1.
        -14    1    6    6    0    0  0.15559874527E+02 -0.65226314802E+01  0.12234296544E+02  0.20840643672E+02  0.00000000000E+00 0.  1.
</event>
<event>
12    1  0.8358445E-002  0.1772924E+03  0.7818608E-02  0.1170465E+00
         21   -1    0    0  501  502  0.00000000000E+00  0.00000000000E+00  0.10234557866E+03  0.10234557866E+03  0.00000000000E+00 0. -1.
         21   -1    0    0  502  503 -0.00000000000E+00 -0.00000000000E+00 -0.30914392449E+03  0.30914392449E+03  0.00000000000E+00 0. -1.
         -6    2    1    2    0  503 -0.46268854245E+02 -0.21411682419E+00 -0.12046325534E+03  0.21429328147E+03  0.17108290937E+03 0.  0.
        -24    2    3    3    0    0  0.31710819797E+02  0.68498137159E+01 -0.24730755140E+02  0.90529271062E+02  0.80817341141E+02 0.  0.
          6    2    1    2  501    0  0.46268854245E+02  0.21411682419E+00 -0.86335090497E+02  0.19719622168E+03  0.17114832536E+03 0.  0.
         24    2    5    5    0    0  0.11696417905E+02  0.23276410728E+02  0.16917664015E+02  0.85794497866E+02  0.79974314752E+02 0.  0.
          5    1    5    5  501    0  0.34572436340E+02 -0.23062293904E+02 -0.10325275451E+03  0.11140172382E+03  0.47000000000E+01 0. -1.
        -11    1    6    6    0    0  0.37933211587E+02 -0.10380076909E+02  0.17665746104E+02  0.43113259252E+02  0.00000000000E+00 0.  1.
         12    1    6    6    0    0 -0.26236793682E+02  0.33656487638E+02 -0.74808208815E+00  0.42681238614E+02  0.00000000000E+00 0. -1.
         -5    1    3    3    0  503 -0.77979674041E+02 -0.70639305401E+01 -0.95732500199E+02  0.12376401041E+03  0.47000000000E+01 0.  1.
         13    1    4    4    0    0  0.11694785844E+02 -0.33735448625E+02  0.54739640492E+01  0.36122192518E+02  0.00000000000E+00 0. -1.
        -14    1    4    4    0    0  0.20016033952E+02  0.40585262341E+02 -0.30204719189E+02  0.54407078545E+02  0.00000000000E+00 0.  1.
</event>
<event>
12    1  0.8358445E-002  0.1792705E+03  0.7818608E-02  0.1168754E+00
         21   -1    0    0  503  502  0.00000000000E+00  0.00000000000E+00  0.18088695202E+03  0.18088695202E+03  0.00000000000E+00 0.  1.
         21   -1    0    0  501  503 -0.00000000000E+00 -0.00000000000E+00 -0.24212379876E+03  0.24212379876E+03  0.00000000000E+00 0.  1.
          6    2    1    2  501    0 -0.47473416403E+02  0.12653957568E+02 -0.14051402629E+03  0.22699347041E+03  0.17137093136E+03 0.  0.
         24    2    3    3    0    0 -0.90628165311E+02  0.38022741793E+02 -0.92072041295E+02  0.15717496658E+03  0.81040212791E+02 0.  0.
         -6    2    1    2    0  502  0.47473416403E+02 -0.12653957568E+02  0.79277179556E+02  0.19601728037E+03  0.17240665619E+03 0.  0.
        -24    2    5    5    0    0  0.27255399794E+02 -0.70349601930E+02  0.77081695312E+02  0.13466203834E+03  0.80624769818E+02 0.  0.
          5    1    3    3  501    0  0.43154748907E+02 -0.25368784225E+02 -0.48441984998E+02  0.69818503829E+02  0.47000000000E+01 0. -1.
        -11    1    4    4    0    0 -0.41163795682E+02  0.15842367587E+02  0.65942148514E+01  0.44597335741E+02  0.00000000000E+00 0.  1.
         12    1    4    4    0    0 -0.49464369629E+02  0.22180374206E+02 -0.98666256146E+02  0.11257763084E+03  0.00000000000E+00 0. -1.
         -5    1    5    5    0  502  0.20218016609E+02  0.57695644361E+02  0.21954842443E+01  0.61355242033E+02  0.47000000000E+01 0.  1.
         11    1    6    6    0    0 -0.13394922990E+02  0.63606561675E+01 -0.45344466693E+01  0.15506228278E+02  0.00000000000E+00 0. -1.
        -12    1    6    6    0    0  0.40650322785E+02 -0.76710258097E+02  0.81616141981E+02  0.11915581006E+03  0.00000000000E+00 0.  1.
</event>
<event>
12    1  0.8358445E-002  0.2212849E+03  0.7818608E-02  0.1133183E+00
         21   -1    0    0  501  502  0.00000000000E+00  0.00000000000E+00  0.21217679671E+03  0.21217679671E+03  0.00000000000E+00 0. -1.
         21   -1    0    0  502  503 -0.00000000000E+00 -0.00000000000E+00 -0.23413820041E+03  0.23413820041E+03  0.00000000000E+00 0. -1.
         -6    2    1    2    0  503  0.96254830145E+02 -0.99295014020E+02  0.20935780004E+02  0.22091051311E+03  0.17099314543E+03 0.  0.
        -24    2    3    3    0    0  0.72555720338E+02 -0.98819719807E+02  0.72798908716E+02  0.16369383871E+03  0.80413445050E+02 0.  0.
          6    2    1    2  501    0 -0.96254830145E+02  0.99295014020E+02 -0.42897183707E+02  0.22540448400E+03  0.17274987960E+03 0.  0.
         24    2    5    5    0    0 -0.11469283469E+03  0.87868666227E+02  0.12463858075E+02  0.16576006781E+03  0.80285138649E+02 0.  0.
          5    1    5    5  501    0  0.18438004548E+02  0.11426347792E+02 -0.55361041782E+02  0.59644416191E+02  0.47000000000E+01 0. -1.
        -11    1    6    6    0    0 -0.15918703595E+02 -0.10196791494E+02 -0.14699315590E+02  0.23946806879E+02  0.00000000000E+00 0.  1.
         12    1    6    6    0    0 -0.98774131099E+02  0.98065457721E+02  0.27163173665E+02  0.14181326093E+03  0.00000000000E+00 0. -1.
         -5    1    3    3    0  503  0.23699109807E+02 -0.47529421292E+00 -0.51863128712E+02  0.57216674405E+02  0.47000000000E+01 0.  1.
         13    1    4    4    0    0 -0.90627288500E+01 -0.26245874525E+02 -0.67521802852E+01  0.28575705107E+02  0.00000000000E+00 0. -1.
        -14    1    4    4    0    0  0.81618449188E+02 -0.72573845282E+02  0.79551089001E+02  0.13511813360E+03  0.00000000000E+00 0.  1.
</event>
<event>
12    1  0.8358445E-002  0.2241257E+03  0.7818608E-02  0.1131035E+00
         21   -1    0    0  501  502  0.00000000000E+00  0.00000000000E+00  0.11835443285E+04  0.11835443285E+04  0.00000000000E+00 0.  1.
         21   -1    0    0  502  503 -0.00000000000E+00 -0.00000000000E+00 -0.10627142223E+03  0.10627142223E+03  0.00000000000E+00 0.  1.
         -6    2    1    2    0  503  0.11889635116E+02  0.14335912224E+03  0.37557530996E+02  0.22621790056E+03  0.17050152213E+03 0.  0.
        -24    2    3    3    0    0 -0.27860756736E+02  0.30841818969E+02 -0.22290343902E+02  0.92636107956E+02  0.79731734603E+02 0.  0.
          6    2    1    2  501    0 -0.11889635116E+02 -0.14335912224E+03  0.10397153752E+04  0.10635978501E+04  0.17186949680E+03 0.  0.
         24    2    5    5    0    0 -0.68420976711E+02 -0.61886464497E+02  0.49757401328E+03  0.51244185325E+03  0.80655996253E+02 0.  0.
          5    1    5    5  501    0  0.56531341594E+02 -0.81472657738E+02  0.54214136195E+03  0.55115599686E+03  0.47000000000E+01 0. -1.
        -11    1    6    6    0    0 -0.82831323261E+02 -0.65326276679E+02  0.39674931349E+03  0.41053449099E+03  0.00000000000E+00 0.  1.
         12    1    6    6    0    0  0.14410346551E+02  0.34398121810E+01  0.10082469979E+03  0.10190736226E+03  0.00000000000E+00 0. -1.
         -5    1    3    3    0  503  0.39750391852E+02  0.11251730327E+03  0.59847874897E+02  0.13358179261E+03  0.47000000000E+01 0.  1.
         11    1    4    4    0    0 -0.48112935050E+02  0.35668887877E+01  0.57506319176E+01  0.48586489709E+02  0.00000000000E+00 0. -1.
        -12    1    4    4    0    0  0.20252178314E+02  0.27274930182E+02 -0.28040975819E+02  0.44049618248E+02  0.00000000000E+00 0.  1.
</event>
<event>
12    1  0.8358445E-002  0.3475511E+03  0.7818608E-02  0.1063767E+00
         21   -1    0    0  501  502  0.00000000000E+00  0.00000000000E+00  0.39246672642E+03  0.39246672642E+03  0.00000000000E+00 0. -1.
         21   -1    0    0  502  503 -0.00000000000E+00 -0.00000000000E+00 -0.30913226067E+03  0.30913226067E+03  0.00000000000E+00 0.  1.
         -6    2    1    2    0  503  0.22070172251E+03  0.20338245037E+03  0.73569639330E+02  0.35391074532E+03  0.17253014920E+03 0.  0.
        -24    2    3    3    0    0  0.89798810770E+02  0.31591891051E+02  0.58695795306E+02  0.13736770154E+03  0.79767255457E+02 0.  0.
          6    2    1    2  501    0 -0.22070172251E+03 -0.20338245037E+03  0.97648264232E+01  0.34768824178E+03  0.17526577018E+03 0.  0.
         24    2    5    5    0    0 -0.18480336502E+03 -0.22485311576E+03 -0.53167589431E+01  0.30297553934E+03  0.83992274176E+02 0.  0.
          5    1    5    5  501    0 -0.35898357480E+02  0.21470665388E+02  0.15081585366E+02  0.44712702436E+02  0.47000000000E+01 0. -1.
        -11    1    6    6    0    0 -0.19019653336E+03 -0.19906901933E+03 -0.12705542173E+02  0.27561681110E+03  0.00000000000E+00 0.  1.
         12    1    6    6    0    0  0.53931683316E+01 -0.25784096434E+02  0.73887832301E+01  0.27358728245E+02  0.00000000000E+00 0. -1.
         -5    1    3    3    0  503  0.13090291174E+03  0.17179055932E+03  0.14873844024E+02  0.21654304378E+03  0.47000000000E+01 0.  1.
         13    1    4    4    0    0  0.48636112811E+02  0.50493124704E+02  0.59669539775E+02  0.92062376076E+02  0.00000000000E+00 0. -1.
        -14    1    4    4    0    0  0.41162697959E+02 -0.18901233653E+02 -0.97374446912E+00  0.45305325461E+02  0.00000000000E+00 0.  1.
</event>
<event>
12    1  0.8358445E-002  0.1751373E+03  0.7818608E-02  0.1172678E+00
         21   -1    0    0  503  502  0.00000000000E+00  0.00000000000E+00  0.67670572365E+03  0.67670572365E+03  0.00000000000E+00 0. -1.
         21   -1    0    0  501  503 -0.00000000000E+00 -0.00000000000E+00 -0.10918300670E+03  0.10918300670E+03  0.00000000000E+00 0. -1.
          6    2    1    2  501    0  0.33838643207E+02 -0.96722459616E+01 -0.17061757534E+02  0.17563298389E+03  0.17122276527E+03 0.  0.
         24    2    3    3    0    0  0.87039594233E+02  0.65367690416E+01 -0.26495029636E+01  0.11798858747E+03  0.79345236739E+02 0.  0.
         -6    2    1    2    0  502 -0.33838643207E+02  0.96722459616E+01  0.58458447448E+03  0.61025574646E+03  0.17156474629E+03 0.  0.
        -24    2    5    5    0    0 -0.26232219492E+02 -0.58821330581E+02  0.41155041398E+03  0.42394390088E+03  0.78782038418E+02 0.  0.
          5    1    3    3  501    0 -0.53200951026E+02 -0.16209015003E+02 -0.14412254570E+02  0.57644396425E+02  0.47000000000E+01 0. -1.
        -13    1    4    4    0    0  0.66456524518E+02 -0.26109774842E+02 -0.22136432164E+02  0.74754341829E+02  0.00000000000E+00 0.  1.
         14    1    4    4    0    0  0.20583069715E+02  0.32646543884E+02  0.19486929200E+02  0.43234245641E+02  0.00000000000E+00 0. -1.
         -5    1    5    5    0  502 -0.76064237151E+01  0.68493576543E+02  0.17303406050E+03  0.18631184558E+03  0.47000000000E+01 0.  1.
         11    1    6    6    0    0  0.21414581564E+02 -0.56282460832E+01  0.41215290317E+02  0.46786340031E+02  0.00000000000E+00 0. -1.
        -12    1    6    6    0    0 -0.47646801056E+02 -0.53193084498E+02  0.37033512366E+03  0.37715756085E+03  0.00000000000E+00 0.  1.
</event>
<event>
12    1  0.8358445E-002  0.2050901E+03  0.7818608E-02  0.1145553E+00
         21   -1    0    0  503  502  0.00000000000E+00  0.00000000000E+00  0.74553367099E+03  0.74553367099E+03  0.00000000000E+00 0. -1.
         21   -1    0    0  501  503 -0.00000000000E+00 -0.00000000000E+00 -0.16934824124E+03  0.16934824124E+03  0.00000000000E+00 0. -1.
          6    2    1    2  501    0 -0.82799791791E+02  0.75113661825E+02 -0.85588464883E+02  0.22205680500E+03  0.17171479730E+03 0.  0.
         24    2    3    3    0    0 -0.60485065840E+02 -0.22832308285E+02 -0.21986948458E+02  0.10306687708E+03  0.77198431052E+02 0.  0.
         -6    2    1    2    0  502  0.82799791791E+02 -0.75113661825E+02  0.66177389463E+03  0.69282510723E+03  0.17194206547E+03 0.  0.
        -24    2    5    5    0    0  0.98817546540E+02 -0.56307396695E+02  0.30102888521E+03  0.33120473184E+03  0.78375724782E+02 0.  0.
          5    1    3    3  501    0 -0.22314725951E+02  0.97945970110E+02 -0.63601516425E+02  0.11898992792E+03  0.47000000000E+01 0. -1.
        -11    1    4    4    0    0 -0.19830284879E+02  0.26451109841E+02  0.55061705345E+01  0.33514464402E+02  0.00000000000E+00 0.  1.
         12    1    4    4    0    0 -0.40654780961E+02 -0.49283418126E+02 -0.27493118992E+02  0.69552412676E+02  0.00000000000E+00 0. -1.
         -5    1    5    5    0  502 -0.16017754749E+02 -0.18806265129E+02  0.36074500942E+03  0.36162037539E+03  0.47000000000E+01 0.  1.
         11    1    6    6    0    0  0.60707566948E+02 -0.24868960986E+02  0.25629258150E+03  0.26455578095E+03  0.00000000000E+00 0. -1.
        -12    1    6    6    0    0  0.38109979591E+02 -0.31438435709E+02  0.44736303713E+02  0.66648950886E+02  0.00000000000E+00 0.  1.
</event>
<event>
12    1  0.8358445E-002  0.2280445E+03  0.7818608E-02  0.1128176E+00
         21   -1    0    0  501  502  0.00000000000E+00  0.00000000000E+00  0.17106707405E+03  0.17106707405E+03  0.00000000000E+00 0.  1.
         21   -1    0    0  502  503 -0.00000000000E+00 -0.00000000000E+00 -0.30347662195E+03  0.30347662195E+03  0.00000000000E+00 0. -1.
         -6    2    1    2    0  503  0.14901907585E+03 -0.19082152106E+02 -0.55671738294E+02  0.23474164071E+03  0.17156188955E+03 0.  0.
        -24    2    3    3    0    0  0.11611348287E+03 -0.49233394392E+02 -0.92196236871E+02  0.17687969763E+03  0.82945845674E+02 0.  0.
          6    2    1    2  501    0 -0.14901907585E+03  0.19082152106E+02 -0.76737809606E+02  0.23980205528E+03  0.17042746492E+03 0.  0.
         24    2    5    5    0    0 -0.14127399311E+03  0.45128507713E+02 -0.10644593979E+03  0.19926735477E+03  0.79886276930E+02 0.  0.
          5    1    5    5  501    0 -0.77450827327E+01 -0.26046355607E+02  0.29708130179E+02  0.40534700513E+02  0.47000000000E+01 0. -1.
        -13    1    6    6    0    0 -0.74778311127E+02  0.48702808511E+01 -0.10319167929E+02  0.75643907073E+02  0.00000000000E+00 0.  1.
         14    1    6    6    0    0 -0.66495681986E+02  0.40258226862E+02 -0.96126771856E+02  0.12362344770E+03  0.00000000000E+00 0. -1.
         -5    1    3    3    0  503  0.32905592976E+02  0.30151242286E+02  0.36524498577E+02  0.57861943078E+02  0.47000000000E+01 0.  1.
         11    1    4    4    0    0  0.12064138251E+03 -0.28578506336E+02 -0.94103089929E+02  0.15564853270E+03  0.00000000000E+00 0. -1.
        -12    1    4    4    0    0 -0.45278996409E+01 -0.20654888056E+02  0.19068530577E+01  0.21231164931E+02  0.00000000000E+00 0.  1.
</event>
<event>
12    1  0.8358445E-002  0.2081174E+03  0.7818608E-02  0.1143084E+00
         21   -1    0    0  501  502  0.00000000000E+00  0.00000000000E+00  0.80644244808E+03  0.80644244808E+03  0.00000000000E+00 0. -1.
         21   -1    0    0  502  503 -0.00000000000E+00 -0.00000000000E+00 -0.53964035770E+02  0.53964035770E+02  0.00000000000E+00 0. -1.
         -6    2    1    2    0  503 -0.93109407474E+02 -0.70004810171E+02  0.40725552588E+03  0.45735096214E+03  0.17246102168E+03 0.  0.
        -24    2    3    3    0    0 -0.82652982884E+02 -0.29398520470E+02  0.13357648620E+03  0.18043849521E+03  0.83782959495E+02 0.  0.
          6    2    1    2  501    0  0.93109407474E+02  0.70004810171E+02  0.34522288643E+03  0.40305552172E+03  0.17235102862E+03 0.  0.
         24    2    5    5    0    0  0.22428497851E+02 -0.26617847436E+02  0.12326520788E+03  0.15082739082E+03  0.79643223380E+02 0.  0.
          5    1    5    5  501    0  0.70680909623E+02  0.96622657606E+02  0.22195767855E+03  0.25222813090E+03  0.47000000000E+01 0. -1.
        -11    1    6    6    0    0  0.22839234036E+02 -0.22658873313E+02  0.50748910956E+01  0.32570073239E+02  0.00000000000E+00 0.  1.
         12    1    6    6    0    0 -0.41073618545E+00 -0.39589741227E+01  0.11819031678E+03  0.11825731758E+03  0.00000000000E+00 0. -1.
         -5    1    3    3    0  503 -0.10456424590E+02 -0.40606289701E+02  0.27367903968E+03  0.27691246693E+03  0.47000000000E+01 0.  1.
         13    1    4    4    0    0 -0.38048534949E+02 -0.27441698693E+01  0.11303072605E+01  0.38164107150E+02  0.00000000000E+00 0. -1.
        -14    1    4    4    0    0 -0.44604447935E+02 -0.26654350600E+02  0.13244617894E+03  0.14227438806E+03  0.00000000000E+00 0.  1.
</event>
<event>
12    1  0.8358445E-002  0.2090517E+03  0.7818608E-02  0.1142622E+00
         21   -1    0    0  501  502  0.00000000000E+00  0.00000000000E+00  0.13337330449E+04  0.13337330449E+04  0.00000000000E+00 0.  1.
         21   -1    0    0  502  503 -0.00000000000E+00 -0.00000000000E+00 -0.46662830136E+02  0.46662830136E+02  0.00000000000E+00 0.  1.
         -6    2    1    2    0  503  0.88776288528E+02 -0.76618796669E+02  0.26532631033E+03  0.33778791738E+03  0.17306344721E+03 0.  0.
        -24    2    3    3    0    0  0.73074718965E+02  0.19390397054E+02  0.12151816451E+03  0.16410090758E+03  0.80290357536E+02 0.  0.
          6    2    1    2  501    0 -0.88776288528E+02  0.76618796669E+02  0.10217439044E+04  0.10426079576E+04  0.17122814526E+03 0.  0.
         24    2    5    5    0    0 -0.11878149421E+02 -0.18964967539E+02  0.48429954386E+03  0.49132027370E+03  0.79679374602E+02 0.  0.
          5    1    5    5  501    0 -0.76898139108E+02  0.95583764208E+02  0.53744436053E+03  0.55128768393E+03  0.47000000000E+01 0. -1.
        -11    1    6    6    0    0 -0.26655817966E+02  0.19456871222E+02  0.32922334156E+03  0.33087325534E+03  0.00000000000E+00 0.  1.
         12    1    6    6    0    0  0.14777668546E+02 -0.38421838761E+02  0.15507620230E+03  0.16044701836E+03  0.00000000000E+00 0. -1.
         -5    1    3    3    0  503  0.15701569563E+02 -0.96009193723E+02  0.14380814583E+03  0.17368700980E+03  0.47000000000E+01 0.  1.
         13    1    4    4    0    0  0.87205424560E+02  0.23171648625E+02  0.11886661061E+03  0.14923465579E+03  0.00000000000E+00 0. -1.
        -14    1    4    4    0    0 -0.14130705595E+02 -0.37812515709E+01  0.26515539011E+01  0.14866251786E+02  0.00000000000E+00 0.  1.
</event>
<event>
12    1  0.8358445E-002  0.1743694E+03  0.7818608E-02  0.1175822E+00
         21   -1    0    0  503  502  0.00000000000E+00  0.00000000000E+00  0.55853863495E+03  0.55853863495E+03  0.00000000000E+00 0.  1.
         21   -1    0    0  501  503 -0.00000000000E+00 -0.00000000000E+00 -0.97761911743E+02  0.97761911743E+02  0.00000000000E+00 0.  1.
          6    2    1    2  501    0 -0.10426438539E+02 -0.41075463252E+01  0.13782645963E+01  0.16492328194E+03  0.16453633871E+03 0.  0.
         24    2    3    3    0    0  0.85887934705E+01  0.11070580719E+02 -0.57461055684E+02  0.10107886010E+03  0.81968517785E+02 0.  0.
         -6    2    1    2    0  502  0.10426438539E+02  0.41075463252E+01  0.45939845861E+03  0.49137726475E+03  0.17400887904E+03 0.  0.
        -24    2    5    5    0    0 -0.58798617592E+02  0.20024074012E+02  0.22385201490E+03  0.24530885680E+03  0.78793842891E+02 0.  0.
          5    1    3    3  501    0 -0.19015232009E+02 -0.15178127044E+02  0.58839320281E+02  0.63844421840E+02  0.47000000000E+01 0. -1.
        -13    1    4    4    0    0 -0.56395575237E+01  0.44111421809E+02 -0.44306783228E+02  0.62775100025E+02  0.00000000000E+00 0.  1.
         14    1    4    4    0    0  0.14228350994E+02 -0.33040841090E+02 -0.13154272456E+02  0.38303760074E+02  0.00000000000E+00 0. -1.
         -5    1    5    5    0  502  0.69225056131E+02 -0.15916527687E+02  0.23554644371E+03  0.24606840795E+03  0.47000000000E+01 0.  1.
         11    1    6    6    0    0 -0.38829063518E+02  0.57557778098E+01  0.28716703402E+02  0.48636140946E+02  0.00000000000E+00 0. -1.
        -12    1    6    6    0    0 -0.19969554074E+02  0.14268296202E+02  0.19513531150E+03  0.19667271585E+03  0.00000000000E+00 0.  1.
</event>
<event>
12    1  0.8358445E-002  0.1773152E+03  0.7818608E-02  0.1170487E+00
         21   -1    0    0  501  502  0.00000000000E+00  0.00000000000E+00  0.27094701279E+03  0.27094701279E+03  0.00000000000E+00 0. -1.
         21   -1    0    0  502  503 -0.00000000000E+00 -0.00000000000E+00 -0.12046557794E+03  0.12046557794E+03  0.00000000000E+00 0.  1.
         -6    2    1    2    0  503  0.32239168743E+02  0.27835416757E+02  0.37008479575E+02  0.18089708909E+03  0.17187191410E+03 0.  0.
        -24    2    3    3    0    0 -0.45676659389E+02  0.10060038102E+02  0.11353507488E+01  0.93171313341E+02  0.80573215331E+02 0.  0.
          6    2    1    2  501    0 -0.32239168743E+02 -0.27835416757E+02  0.11347295528E+03  0.21051550164E+03  0.17212347435E+03 0.  0.
         24    2    5    5    0    0 -0.28335238579E+02 -0.70974497418E+02  0.12260085824E+03  0.16600000362E+03  0.81760416664E+02 0.  0.
          5    1    5    5  501    0 -0.39039301636E+01  0.43139080662E+02 -0.91279029613E+01  0.44515498015E+02  0.47000000000E+01 0. -1.
        -11    1    6    6    0    0  0.14805896229E+02 -0.28821486646E+02  0.93647462290E+02  0.99094600504E+02  0.00000000000E+00 0.  1.
         12    1    6    6    0    0 -0.43141134808E+02 -0.42153010772E+02  0.28953395948E+02  0.66905403120E+02  0.00000000000E+00 0. -1.
         -5    1    3    3    0  503  0.77915828132E+02  0.17775378654E+02  0.35873128826E+02  0.87725775754E+02  0.47000000000E+01 0.  1.
         13    1    4    4    0    0 -0.44328368627E+02 -0.94380188822E+00  0.35667029099E+02  0.56903708068E+02  0.00000000000E+00 0. -1.
        -14    1    4    4    0    0 -0.13482907622E+01  0.11003839991E+02 -0.34531678351E+02  0.36267605273E+02  0.00000000000E+00 0.  1.
</event>
<event>
12    1  0.8358445E-002  0.1751801E+03  0.7818608E-02  0.1172985E+00
         21   -1    0    0  501  502  0.00000000000E+00  0.00000000000E+00  0.69007172920E+02  0.69007172920E+02  0.00000000000E+00 0.  1.
         21   -1    0    0  502  503 -0.00000000000E+00 -0.00000000000E+00 -0.53112199985E+03  0.53112199985E+03  0.00000000000E+00 0.  1.
         -6    2    1    2    0  503 -0.61361575913E+00  0.24703910989E+02 -0.35416115639E+03  0.39435730471E+03  0.17168837857E+03 0.  0.
        -24    2    3    3    0    0 -0.51406013240E+02  0.26724807389E+02 -0.11810149600E+03  0.15284083544E+03  0.77817505051E+02 0.  0.
          6    2    1    2  501    0  0.61361575913E+00 -0.24703910989E+02 -0.10795367053E+03  0.20577186806E+03  0.17342839145E+03 0.  0.
         24    2    5    5    0    0 -0.15436794463E+02 -0.82327176212E+02 -0.65271599206E+02  0.13213827806E+03  0.78638948998E+02 0.  0.
          5    1    5    5  501    0  0.16050410222E+02  0.57623265223E+02 -0.42682071327E+02  0.73633589998E+02  0.47000000000E+01 0. -1.
        -11    1    6    6    0    0 -0.35569449772E+02 -0.13356083621E+02 -0.49324437067E+01  0.38313179556E+02  0.00000000000E+00 0.  1.
         12    1    6    6    0    0  0.20132655309E+02 -0.68971092591E+02 -0.60339155500E+02  0.93825098505E+02  0.00000000000E+00 0. -1.
         -5    1    3    3    0  503  0.50792397481E+02 -0.20208964003E+01 -0.23605966039E+03  0.24151646927E+03  0.47000000000E+01 0.  1.
         11    1    4    4    0    0 -0.36332253493E+02 -0.23915832061E+02 -0.44391659525E+02  0.62149972666E+02  0.00000000000E+00 0. -1.
        -12    1    4    4    0    0 -0.15073759747E+02  0.50640639450E+02 -0.73709836479E+02  0.90690862773E+02  0.00000000000E+00 0.  1.
</event>
<event>
12    1  0.8358445E-002  0.1822450E+03  0.7818608E-02  0.1165805E+00
         21   -1    0    0  503  502  0.00000000000E+00  0.00000000000E+00  0.51787578029E+03  0.51787578029E+03  0.00000000000E+00 0. -1.
         21   -1    0    0  501  503 -0.00000000000E+00 -0.00000000000E+00 -0.13288710913E+03  0.13288710913E+03  0.00000000000E+00 0. -1.
          6    2    1    2  501    0 -0.56830598461E+02 -0.96585878899E+01 -0.41776674940E+02  0.18697204015E+03  0.17288796369E+03 0.  0.
         24    2    3    3    0    0 -0.30397909232E+01  0.55453172391E+02 -0.22683498443E+02  0.10025623022E+03  0.80327305071E+02 0.  0.
         -6    2    1    2    0  502  0.56830598461E+02  0.96585878899E+01  0.42676534610E+03  0.46379084927E+03  0.17219258400E+03 0.  0.
        -24    2    5    5    0    0 -0.12561441969E+02 -0.10493428948E+02  0.10011814537E+03  0.12921373886E+03  0.80029028502E+02 0.  0.
          5    1    3    3  501    0 -0.53790807538E+02 -0.65111760281E+02 -0.19093176497E+02  0.86715809927E+02  0.47000000000E+01 0. -1.
        -13    1    4    4    0    0 -0.34508835869E+02  0.34192116866E+01  0.17484355135E+01  0.34721863261E+02  0.00000000000E+00 0.  1.
         14    1    4    4    0    0  0.31469044945E+02  0.52033960705E+02 -0.24431933957E+02  0.65534366963E+02  0.00000000000E+00 0. -1.
         -5    1    5    5    0  502  0.69392040430E+02  0.20152016838E+02  0.32664720074E+03  0.33457711041E+03  0.47000000000E+01 0.  1.
         11    1    6    6    0    0 -0.23803985609E+02  0.15622342609E+02  0.96426373059E+02  0.10054219383E+03  0.00000000000E+00 0. -1.
        -12    1    6    6    0    0  0.11242543639E+02 -0.26115771557E+02  0.36917723082E+01  0.28671545027E+02  0.00000000000E+00 0.  1.
</event>
<event>
12    1  0.8358445E-002  0.2315701E+03  0.7818608E-02  0.1125554E+00
         21   -1    0    0  503  502  0.00000000000E+00  0.00000000000E+00  0.95805645916E+03  0.95805645916E+03  0.00000000000E+00 0.  1.
         21   -1    0    0  501  503 -0.00000000000E+00 -0.00000000000E+00 -0.56914867918E+02  0.56914867918E+02  0.00000000000E+00 0. -1.
          6    2    1    2  501    0  0.38884361383E+02  0.14974521536E+03  0.38449964993E+03  0.44880562429E+03  0.17219432196E+03 0.  0.
         24    2    3    3    0    0 -0.29207415373E+01  0.55788164615E+01  0.12615811139E+03  0.14998451102E+03  0.80869218816E+02 0.  0.
         -6    2    1    2    0  502 -0.38884361383E+02 -0.14974521536E+03  0.51664194131E+03  0.56616570279E+03  0.17230520715E+03 0.  0.
        -24    2    5    5    0    0  0.21190801595E+02 -0.13182852809E+03  0.26011795892E+03  0.30205081031E+03  0.75799264922E+02 0.  0.
          5    1    3    3  501    0  0.41805102921E+02  0.14416639890E+03  0.25834153854E+03  0.29882111327E+03  0.47000000000E+01 0. -1.
        -13    1    4    4    0    0  0.19245056645E+02 -0.29319631485E+02  0.83565100478E+02  0.90626370409E+02  0.00000000000E+00 0.  1.
         14    1    4    4    0    0 -0.22165798182E+02  0.34898447947E+02  0.42593010915E+02  0.59358140613E+02  0.00000000000E+00 0. -1.
         -5    1    5    5    0  502 -0.60075162978E+02 -0.17916687266E+02  0.25652398239E+03  0.26411489248E+03  0.47000000000E+01 0.  1.
         13    1    6    6    0    0  0.10382597623E+02  0.40270224898E+01  0.38233501186E+01  0.11774262170E+02  0.00000000000E+00 0. -1.
        -14    1    6    6    0    0  0.10808203972E+02 -0.13585555058E+03  0.25629460880E+03  0.29027654814E+03  0.00000000000E+00 0.  1.
</event>
<event>
12    1  0.8358445E-002  0.2234459E+03  0.7818608E-02  0.1131461E+00
         21   -1    0    0  501  502  0.00000000000E+00  0.00000000000E+00  0.13746704623E+04  0.13746704623E+04  0.00000000000E+00 0. -1.
         21   -1    0    0  502  503 -0.00000000000E+00 -0.00000000000E+00 -0.59062861717E+02  0.59062861717E+02  0.00000000000E+00 0.  1.
         -6    2    1    2    0  503  0.11322006400E+03 -0.86193996513E+02  0.21251288075E+03  0.30836632330E+03  0.17227848657E+03 0.  0.
        -24    2    3    3    0    0  0.98043054747E+02 -0.81048904300E+02  0.70094877952E+02  0.16497249113E+03  0.78238516360E+02 0.  0.
          6    2    1    2  501    0 -0.11322006400E+03  0.86193996513E+02  0.11030947199E+04  0.11253670007E+04  0.17141976972E+03 0.  0.
         24    2    5    5    0    0 -0.12165871273E+03  0.10048870708E+02  0.71319167206E+03  0.72798083131E+03  0.80074387083E+02 0.  0.
          5    1    5    5  501    0  0.84386487267E+01  0.76145125805E+02  0.38990304779E+03  0.39738616943E+03  0.47000000000E+01 0. -1.
        -13    1    6    6    0    0 -0.93450662294E+02  0.10912637458E+02  0.66874862435E+03  0.67533460929E+03  0.00000000000E+00 0.  1.
         14    1    6    6    0    0 -0.28208050437E+02 -0.86376674974E+00  0.44443047714E+02  0.52646222016E+02  0.00000000000E+00 0. -1.
         -5    1    3    3    0  503  0.15177009257E+02 -0.51450922134E+01  0.14241800280E+03  0.14339383217E+03  0.47000000000E+01 0.  1.
         11    1    4    4    0    0 -0.64264733970E+01  0.56316838142E+01 -0.49370841555E+01  0.98686484822E+01  0.00000000000E+00 0. -1.
        -12    1    4    4    0    0  0.10446952814E+03 -0.86680588114E+02  0.75031962108E+02  0.15510384265E+03  0.00000000000E+00 0.  1.
</event>
<event>
12    1  0.8358445E-002  0.2140101E+03  0.7818608E-02  0.1138534E+00
         21   -1    0    0  503  502  0.00000000000E+00  0.00000000000E+00  0.32418953995E+03  0.32418953995E+03  0.00000000000E+00 0.  1.
         21   -1    0    0  501  503 -0.00000000000E+00 -0.00000000000E+00 -0.22366718053E+03  0.22366718053E+03  0.00000000000E+00 0. -1.
          6    2    1    2  501    0 -0.97620460633E+02 -0.79839947543E+02 -0.11639472582E+03  0.24313823792E+03  0.17223326909E+03 0.  0.
         24    2    3    3    0    0 -0.63645520323E+02  0.22484801848E+02 -0.49399551003E+02  0.11611424666E+03  0.80534986597E+02 0.  0.
         -6    2    1    2    0  502  0.97620460633E+02  0.79839947543E+02  0.21691708523E+03  0.30471848256E+03  0.17290506121E+03 0.  0.
        -24    2    5    5    0    0  0.13172402590E+03  0.46303591096E+02  0.19451621998E+03  0.25169368524E+03  0.77575188075E+02 0.  0.
          5    1    3    3  501    0 -0.33974940310E+02 -0.10232474939E+03 -0.66995174815E+02  0.12702399126E+03  0.47000000000E+01 0. -1.
        -11    1    4    4    0    0 -0.26514559510E+02 -0.26334978167E+02 -0.18374879216E-01  0.37370486733E+02  0.00000000000E+00 0.  1.
         12    1    4    4    0    0 -0.37130960813E+02  0.48819780015E+02 -0.49381176123E+02  0.78743759924E+02  0.00000000000E+00 0. -1.
         -5    1    5    5    0  502 -0.34103565266E+02  0.33536356446E+02  0.22400865249E+02  0.53024797326E+02  0.47000000000E+01 0.  1.
         11    1    6    6    0    0  0.53246034780E+02 -0.13413126160E+02  0.38271966242E+02  0.66931275000E+02  0.00000000000E+00 0. -1.
        -12    1    6    6    0    0  0.78477991119E+02  0.59716717256E+02  0.15624425374E+03  0.18476241024E+03  0.00000000000E+00 0.  1.
</event>
<event>
12    1  0.8358445E-002  0.1886845E+03  0.7818608E-02  0.1160857E+00
         21   -1    0    0  503  502  0.00000000000E+00  0.00000000000E+00  0.51523367188E+02  0.51523367188E+02  0.00000000000E+00 0. -1.
         21   -1    0    0  501  503 -0.00000000000E+00 -0.00000000000E+00 -0.76953002299E+03  0.76953002299E+03  0.00000000000E+00 0. -1.
          6    2    1    2  501    0  0.33691540181E+02  0.56625658791E+02 -0.50073119120E+03  0.53328533568E+03  0.17123065817E+03 0.  0.
         24    2    3    3    0    0 -0.36095624046E+02 -0.14300962995E+01 -0.29737012413E+03  0.31053315816E+03  0.81834664672E+02 0.  0.
         -6    2    1    2    0  502 -0.33691540181E+02 -0.56625658791E+02 -0.21727546460E+03  0.28776805450E+03  0.17680565760E+03 0.  0.
        -24    2    5    5    0    0  0.46683709983E+02 -0.60106791417E+01 -0.87862940977E+02  0.12716995901E+03  0.78973445127E+02 0.  0.
          5    1    3    3  501    0  0.69787164227E+02  0.58055755090E+02 -0.20336106707E+03  0.22275217752E+03  0.47000000000E+01 0. -1.
        -13    1    4    4    0    0  0.21780440106E+02 -0.12154726831E+02 -0.14611500970E+03  0.14822861065E+03  0.00000000000E+00 0.  1.
         14    1    4    4    0    0 -0.57876064152E+02  0.10724630531E+02 -0.15125511443E+03  0.16230454751E+03  0.00000000000E+00 0. -1.
         -5    1    5    5    0  502 -0.80375250165E+02 -0.50614979649E+02 -0.12941252363E+03  0.16059809549E+03  0.47000000000E+01 0.  1.
         11    1    6    6    0    0  0.43664476058E+02 -0.33677568991E+02 -0.81856928645E+02  0.98698135189E+02  0.00000000000E+00 0. -1.
        -12    1    6    6    0    0  0.30192339249E+01  0.27666889849E+02 -0.60060123320E+01  0.28471823818E+02  0.00000000000E+00 0.  1.
</event>
<event>
12    1  0.8358445E-002  0.2262355E+03  0.7818608E-02  0.1129580E+00
         21   -1    0    0  501  502  0.00000000000E+00  0.00000000000E+00  0.12977550849E+04  0.12977550849E+04  0.00000000000E+00 0. -1.
         21   -1    0    0  502  503 -0.00000000000E+00 -0.00000000000E+00 -0.10271329451E+03  0.10271329451E+03  0.00000000000E+00 0. -1.
         -6    2    1    2    0  503  0.13690339799E+03 -0.51738558956E+02  0.47563801625E+02  0.23118136400E+03  0.17251982197E+03 0.  0.
        -24    2    3    3    0    0  0.16485853107E+03 -0.38365806660E+02  0.17651823282E+02  0.18785543161E+03  0.79547507391E+02 0.  0.
          6    2    1    2  501    0 -0.13690339799E+03  0.51738558956E+02  0.11474779888E+04  0.11692870154E+04  0.17060765170E+03 0.  0.
         24    2    5    5    0    0 -0.10389482122E+03  0.99100549127E+02  0.91723702478E+03  0.93187236600E+03  0.80295044496E+02 0.  0.
          5    1    5    5  501    0 -0.33008576777E+02 -0.47361990171E+02  0.23024096397E+03  0.23741464939E+03  0.47000000000E+01 0. -1.
        -13    1    6    6    0    0  0.59656961245E+01  0.24348916179E+02  0.26840811005E+03  0.26957628381E+03  0.00000000000E+00 0.  1.
         14    1    6    6    0    0 -0.10986051734E+03  0.74751632948E+02  0.64882891473E+03  0.66229608219E+03  0.00000000000E+00 0. -1.
         -5    1    3    3    0  503 -0.27955133078E+02 -0.13372752297E+02  0.29911978343E+02  0.43325932394E+02  0.47000000000E+01 0.  1.
         11    1    4    4    0    0  0.39131302849E+02 -0.29615857229E+02 -0.24645264719E+02  0.54915816802E+02  0.00000000000E+00 0. -1.
        -12    1    4    4    0    0  0.12572722822E+03 -0.87499494311E+01  0.42297088000E+02  0.13293961481E+03  0.00000000000E+00 0.  1.
</event>
<event>
12    1  0.8358445E-002  0.1927157E+03  0.7818608E-02  0.1158434E+00
         21   -1    0    0  503  502  0.00000000000E+00  0.00000000000E+00  0.58935146950E+02  0.58935146950E+02  0.00000000000E+00 0.  1.
         21   -1    0    0  501  503 -0.00000000000E+00 -0.00000000000E+00 -0.60355490979E+03  0.60355490979E+03  0.00000000000E+00 0. -1.
          6    2    1    2  501    0  0.34180997675E+02  0.50732235653E+02 -0.30120193205E+03  0.35202011878E+03  0.17162010319E+03 0.  0.
         24    2    3    3    0    0 -0.17755326282E+01  0.38570839228E+02 -0.46383345036E+02  0.94347120736E+02  0.72519668640E+02 0.  0.
         -6    2    1    2    0  502 -0.34180997675E+02 -0.50732235653E+02 -0.24341783080E+03  0.31046993796E+03  0.18274912228E+03 0.  0.
        -24    2    5    5    0    0 -0.59755581782E+01  0.46529375917E+01 -0.23884835216E+03  0.24797166305E+03  0.66212183315E+02 0.  0.
          5    1    3    3  501    0  0.35956530303E+02  0.12161396425E+02 -0.25481858701E+03  0.25767299804E+03  0.47000000000E+01 0. -1.
        -13    1    4    4    0    0  0.33927202193E+02  0.19043206950E+02 -0.34379043440E+02  0.51919335584E+02  0.00000000000E+00 0.  1.
         14    1    4    4    0    0 -0.35702734822E+02  0.19527632278E+02 -0.12004301596E+02  0.42427785153E+02  0.00000000000E+00 0. -1.
         -5    1    5    5    0  502 -0.28205439496E+02 -0.55385173245E+02 -0.45694786322E+01  0.62498274916E+02  0.47000000000E+01 0.  1.
         11    1    6    6    0    0 -0.79218781119E+01 -0.13246102965E+02 -0.22428243424E+03  0.22481286819E+03  0.00000000000E+00 0. -1.
        -12    1    6    6    0    0  0.19463199337E+01  0.17899040556E+02 -0.14565917923E+02  0.23158794853E+02  0.00000000000E+00 0.  1.
</event>
<event>
12    1  0.8358445E-002  0.1832550E+03  0.7818608E-02  0.1165016E+00
         21   -1    0    0  501  502  0.00000000000E+00  0.00000000000E+00  0.14590954885E+03  0.14590954885E+03  0.00000000000E+00 0. -1.
         21   -1    0    0  502  503 -0.00000000000E+00 -0.00000000000E+00 -0.60592282936E+03  0.60592282936E+03  0.00000000000E+00 0. -1.
         -6    2    1    2    0  503  0.16342801908E+02  0.54102495707E+02 -0.52704506199E+03  0.55799543730E+03  0.17432224030E+03 0.  0.
        -24    2    3    3    0    0 -0.49801610686E+02  0.22618683108E+02 -0.39725211789E+03  0.40888268764E+03  0.79899948877E+02 0.  0.
          6    2    1    2  501    0 -0.16342801908E+02 -0.54102495707E+02  0.67031781476E+02  0.19383694091E+03  0.17287374791E+03 0.  0.
         24    2    5    5    0    0  0.68524584551E+01 -0.52825486881E+02 -0.24155948956E+02  0.99619410500E+02  0.80641359285E+02 0.  0.
          5    1    5    5  501    0 -0.23195260363E+02 -0.12770088264E+01  0.91187730432E+02  0.94217530408E+02  0.47000000000E+01 0. -1.
        -13    1    6    6    0    0 -0.10990352355E+02 -0.69939603610E+02 -0.24429732352E+02  0.74894244244E+02  0.00000000000E+00 0.  1.
         14    1    6    6    0    0  0.17842810810E+02  0.17114116730E+02  0.27378339570E+00  0.24725166256E+02  0.00000000000E+00 0. -1.
         -5    1    3    3    0  503  0.66144412594E+02  0.31483812599E+02 -0.12979294409E+03  0.14911274966E+03  0.47000000000E+01 0.  1.
         11    1    4    4    0    0 -0.19763968735E+02  0.79673693136E+01 -0.35191117537E+03  0.35255576691E+03  0.00000000000E+00 0. -1.
        -12    1    4    4    0    0 -0.30037641951E+02  0.14651313795E+02 -0.45340942524E+02  0.56326920730E+02  0.00000000000E+00 0.  1.
</event>
<event>
12    1  0.8358445E-002  0.4120043E+03  0.7818608E-02  0.1039721E+00
         21   -1    0    0  501  502  0.00000000000E+00  0.00000000000E+00  0.40133494337E+03  0.40133494337E+03  0.00000000000E+00 0.  1.
         21   -1    0    0  502  503 -0.00000000000E+00 -0.00000000000E+00 -0.48944138715E+03  0.48944138715E+03  0.00000000000E+00 0.  1.
         -6    2    1    2    0  503 -0.32595063303E+03  0.18420858862E+03  0.12042881032E+03  0.42900310749E+03  0.17135912169E+03 0.  0.
        -24    2    3    3    0    0 -0.29648540537E+03  0.21005748863E+03  0.11510145661E+03  0.38916799772E+03  0.78585246753E+02 0.  0.
          6    2    1    2  501    0  0.32595063303E+03 -0.18420858862E+03 -0.20853525410E+03  0.46177322303E+03  0.17196202492E+03 0.  0.
         24    2    5    5    0    0  0.33913705200E+03 -0.16640398251E+03 -0.18213872129E+03  0.42699172525E+03  0.80269509771E+02 0.  0.
          5    1    5    5  501    0 -0.13186418972E+02 -0.17804606108E+02 -0.26396532810E+02  0.34781497788E+02  0.47000000000E+01 0. -1.
        -13    1    6    6    0    0  0.29584160987E+03 -0.14809872096E+03 -0.12661206433E+03  0.35424017857E+03  0.00000000000E+00 0.  1.
         14    1    6    6    0    0  0.43295442133E+02 -0.18305261547E+02 -0.55526656967E+02  0.72751546676E+02  0.00000000000E+00 0. -1.
         -5    1    3    3    0  503 -0.29465227657E+02 -0.25848900012E+02  0.53273537056E+01  0.39835109768E+02  0.47000000000E+01 0.  1.
         13    1    4    4    0    0 -0.38320667299E+01 -0.58158201177E+01  0.67801328895E+01  0.97200154868E+01  0.00000000000E+00 0. -1.
        -14    1    4    4    0    0 -0.29265333864E+03  0.21587330875E+03  0.10832132372E+03  0.37944798223E+03  0.00000000000E+00 0.  1.
</event>
<event>
12    1  0.8358445E-002  0.3368426E+03  0.7818608E-02  0.1068222E+00
         21   -1    0    0  503  502  0.00000000000E+00  0.00000000000E+00  0.20802933626E+03  0.20802933626E+03  0.00000000000E+00 0. -1.
         21   -1    0    0  501  503 -0.00000000000E+00 -0.00000000000E+00 -0.55057379293E+03  0.55057379293E+03  0.00000000000E+00 0.  1.
          6    2    1    2  501    0  0.19950549289E+03  0.21004679059E+03 -0.21151149327E+03  0.39717188096E+03  0.17054704720E+03 0.  0.
         24    2    3    3    0    0  0.15353764046E+03  0.15179953458E+03 -0.22490568607E+03  0.32162533444E+03  0.79015076974E+02 0.  0.
         -6    2    1    2    0  502 -0.19950549289E+03 -0.21004679059E+03 -0.13103296340E+03  0.36143124824E+03  0.17187441280E+03 0.  0.
        -24    2    5    5    0    0 -0.81610869178E+02 -0.12499352095E+03 -0.13383399697E+03  0.21595569440E+03  0.80259634637E+02 0.  0.
          5    1    3    3  501    0  0.45967852437E+02  0.58247256008E+02  0.13394192804E+02  0.75546546519E+02  0.47000000000E+01 0. -1.
        -11    1    4    4    0    0  0.12032026750E+03  0.15536205175E+03 -0.19245836920E+03  0.27505373616E+03  0.00000000000E+00 0.  1.
         12    1    4    4    0    0  0.33217372955E+02 -0.35625171734E+01 -0.32447316865E+02  0.46571598281E+02  0.00000000000E+00 0. -1.
         -5    1    5    5    0  502 -0.11789462372E+03 -0.85053269635E+02  0.28010335622E+01  0.14547555384E+03  0.47000000000E+01 0.  1.
         13    1    6    6    0    0  0.13909096931E+02 -0.33676513739E+02 -0.38513134716E+02  0.53017281152E+02  0.00000000000E+00 0. -1.
        -14    1    6    6    0    0 -0.95519966109E+02 -0.91317007212E+02 -0.95320862249E+02  0.16293841325E+03  0.00000000000E+00 0.  1.
</event>
<event>
12    1  0.8358445E-002  0.1733432E+03  0.7818608E-02  0.1174596E+00
         21   -1    0    0  501  502  0.00000000000E+00  0.00000000000E+00  0.12542969056E+03  0.12542969056E+03  0.00000000000E+00 0.  1.
         21   -1    0    0  502  503 -0.00000000000E+00 -0.00000000000E+00 -0.23971114359E+03  0.23971114359E+03  0.00000000000E+00 0.  1.
         -6    2    1    2    0  503 -0.96508484274E+01  0.11090562699E+02 -0.70083075872E+02  0.18697464882E+03  0.17271867971E+03 0.  0.
        -24    2    3    3    0    0 -0.38027207190E+02  0.65279087292E+02 -0.54886681498E+02  0.12377152915E+03  0.81236789066E+02 0.  0.
          6    2    1    2  501    0  0.96508484274E+01 -0.11090562699E+02 -0.44198377161E+02  0.17816618533E+03  0.17196962986E+03 0.  0.
         24    2    5    5    0    0  0.48973231647E+02  0.40240599588E+02 -0.51758057027E+01  0.10249591952E+03  0.80379980596E+02 0.  0.
          5    1    5    5  501    0 -0.39322383220E+02 -0.51331162288E+02 -0.39022571459E+02  0.75670265806E+02  0.47000000000E+01 0. -1.
        -13    1    6    6    0    0 -0.77409247386E+01  0.28953941755E+02  0.23372062809E+02  0.38006657034E+02  0.00000000000E+00 0.  1.
         14    1    6    6    0    0  0.56714156386E+02  0.11286657834E+02 -0.28547868512E+02  0.64489262488E+02  0.00000000000E+00 0. -1.
         -5    1    3    3    0  503  0.28376358762E+02 -0.54188524593E+02 -0.15196394374E+02  0.63203119671E+02  0.47000000000E+01 0.  1.
         13    1    4    4    0    0 -0.50722111666E+02  0.29441562269E+02 -0.20573023075E+01  0.58683649286E+02  0.00000000000E+00 0. -1.
        -14    1    4    4    0    0  0.12694904476E+02  0.35837525023E+02 -0.52829379191E+02  0.65087879863E+02  0.00000000000E+00 0.  1.
</event>
<event>
12    1  0.8358445E-002  0.3195556E+03  0.7818608E-02  0.1075868E+00
         21   -1    0    0  503  502  0.00000000000E+00  0.00000000000E+00  0.10230742243E+04  0.10230742243E+04  0.00000000000E+00 0. -1.
         21   -1    0    0  501  503 -0.00000000000E+00 -0.00000000000E+00 -0.23502366986E+03  0.23502366986E+03  0.00000000000E+00 0.  1.
          6    2    1    2  501    0 -0.65369373714E+02 -0.26154164084E+03 -0.83136987202E+02  0.33019317579E+03  0.17157677518E+03 0.  0.
         24    2    3    3    0    0 -0.10702061085E+03 -0.20552146320E+03 -0.88786048829E+02  0.25999995849E+03  0.77617864976E+02 0.  0.
         -6    2    1    2    0  502  0.65369373714E+02  0.26154164084E+03  0.87118754160E+03  0.92790471833E+03  0.17135416175E+03 0.  0.
        -24    2    5    5    0    0  0.76649562477E+02  0.13933104154E+03  0.35103334534E+03  0.39344690790E+03  0.79295430095E+02 0.  0.
          5    1    3    3  501    0  0.41651237135E+02 -0.56020177644E+02  0.56490616277E+01  0.70193217303E+02  0.47000000000E+01 0. -1.
        -13    1    4    4    0    0 -0.83678612304E+02 -0.82833044538E+02 -0.27631657129E+02  0.12094185338E+03  0.00000000000E+00 0.  1.
         14    1    4    4    0    0 -0.23341998545E+02 -0.12268841866E+03 -0.61154391701E+02  0.13905810510E+03  0.00000000000E+00 0. -1.
         -5    1    5    5    0  502 -0.11280188763E+02  0.12221059930E+03  0.52015419627E+03  0.53445781043E+03  0.47000000000E+01 0.  1.
         13    1    6    6    0    0  0.62000782965E+01  0.71541658917E+02  0.20920275396E+03  0.22118418162E+03  0.00000000000E+00 0. -1.
        -14    1    6    6    0    0  0.70449484180E+02  0.67789382623E+02  0.14183059137E+03  0.17226272628E+03  0.00000000000E+00 0.  1.
</event>
<event>
12    1  0.8358445E-002  0.1720653E+03  0.7818608E-02  0.1175869E+00
         21   -1    0    0  503  502  0.00000000000E+00  0.00000000000E+00  0.13633535876E+04  0.13633535876E+04  0.00000000000E+00 0.  1.
         21   -1    0    0  501  503 -0.00000000000E+00 -0.00000000000E+00 -0.15526581739E+03  0.15526581739E+03  0.00000000000E+00 0. -1.
          6    2    1    2  501    0 -0.18353717278E+02  0.74512821828E+01 -0.10022072257E+03  0.19912472695E+03  0.17092127751E+03 0.  0.
         24    2    3    3    0    0 -0.20095719113E+02  0.45371560653E+02 -0.12341809742E+03  0.15439006153E+03  0.78369942495E+02 0.  0.
         -6    2    1    2    0  502  0.18353717278E+02 -0.74512821828E+01  0.13083084928E+04  0.13194946780E+04  0.17030182785E+03 0.  0.
        -24    2    5    5    0    0  0.18425287714E+02 -0.77265185537E+01  0.13111310187E+04  0.13140049121E+04  0.84529110667E+02 0.  0.
          5    1    3    3  501    0  0.17420018351E+01 -0.37920278471E+02  0.23197374848E+02  0.44734665412E+02  0.47000000000E+01 0. -1.
        -13    1    4    4    0    0 -0.24742457854E+02  0.13218924583E+02 -0.13627893591E+01  0.28085341063E+02  0.00000000000E+00 0.  1.
         14    1    4    4    0    0  0.46467387411E+01  0.32152636070E+02 -0.12205530806E+03  0.12630472047E+03  0.00000000000E+00 0. -1.
         -5    1    5    5    0  502 -0.71570435839E-01  0.27523637094E+00 -0.28225259218E+01  0.54897659300E+01  0.47000000000E+01 0.  1.
         13    1    6    6    0    0  0.43597568302E+02  0.37077080927E+01  0.38789236151E+03  0.39035237822E+03  0.00000000000E+00 0. -1.
        -14    1    6    6    0    0 -0.25172280588E+02 -0.11434226646E+02  0.92323865719E+03  0.92365253390E+03  0.00000000000E+00 0.  1.
</event>
<event>
12    1  0.8358445E-002  0.2066721E+03  0.7818608E-02  0.1144778E+00
         21   -1    0    0  501  502  0.00000000000E+00  0.00000000000E+00  0.23316158229E+03  0.23316158229E+03  0.00000000000E+00 0.  1.
         21   -1    0    0  502  503 -0.00000000000E+00 -0.00000000000E+00 -0.23254782710E+03  0.23254782710E+03  0.00000000000E+00 0.  1.
         -6    2    1    2    0  503 -0.10898997405E+03  0.11847623943E+02 -0.10952359008E+03  0.23389902661E+03  0.17519748066E+03 0.  0.
        -24    2    3    3    0    0 -0.16906840364E+01  0.27421020493E+02 -0.64830371343E+01  0.84249055447E+02  0.79379485988E+02 0.  0.
          6    2    1    2  501    0  0.10898997405E+03 -0.11847623943E+02  0.11013734527E+03  0.23181038279E+03  0.17200766874E+03 0.  0.
         24    2    5    5    0    0 -0.56058745672E+01  0.24341065598E+02  0.52424882931E+02  0.98413800816E+02  0.79454355051E+02 0.  0.
          5    1    5    5  501    0  0.11459584862E+03 -0.36188689540E+02  0.57712462339E+02  0.13339658197E+03  0.47000000000E+01 0. -1.
        -13    1    6    6    0    0  0.16839220947E+02 -0.24369092880E+02  0.20010806913E+02  0.35746950124E+02  0.00000000000E+00 0.  1.
         14    1    6    6    0    0 -0.22445095514E+02  0.48710158477E+02  0.32414076018E+02  0.62666850692E+02  0.00000000000E+00 0. -1.
         -5    1    3    3    0  503 -0.10729929002E+03 -0.15573396551E+02 -0.10304055294E+03  0.14964997116E+03  0.47000000000E+01 0.  1.
         13    1    4    4    0    0  0.21082975939E+02 -0.15608601727E+02 -0.20827909807E+02  0.33495106348E+02  0.00000000000E+00 0. -1.
        -14    1    4    4    0    0 -0.22773659976E+02  0.43029622221E+02  0.14344872672E+02  0.50753949099E+02  0.00000000000E+00 0.  1.
</event>
<event>
12    1  0.8358445E-002  0.1750124E+03  0.7818608E-02  0.1173074E+00
         21   -1    0    0  503  502  0.00000000000E+00  0.00000000000E+00  0.20524890434E+03  0.20524890434E+03  0.00000000000E+00 0.  1.
         21   -1    0    0  501  503 -0.00000000000E+00 -0.00000000000E+00 -0.98836390552E+03  0.98836390552E+03  0.00000000000E+00 0.  1.
          6    2    1    2  501    0 -0.21466329555E+02 -0.15162700779E+02 -0.94209455131E+03  0.95821265894E+03  0.17302787446E+03 0.  0.
         24    2    3    3    0    0  0.26065449124E+01 -0.41123210934E+02 -0.89336788963E+03  0.89779884486E+03  0.78985233186E+02 0.  0.
         -6    2    1    2    0  502  0.21466329555E+02  0.15162700779E+02  0.15897955013E+03  0.23540015092E+03  0.17160426245E+03 0.  0.
        -24    2    5    5    0    0 -0.30554395317E+02 -0.37293858048E+02  0.56708805724E+02  0.10914944184E+03  0.79833007499E+02 0.  0.
          5    1    3    3  501    0 -0.24072874467E+02  0.25960510155E+02 -0.48726661684E+02  0.60413814078E+02  0.47000000000E+01 0. -1.
        -11    1    4    4    0    0  0.77594038827E+01  0.11561646410E+02 -0.56658693021E+03  0.56675799907E+03  0.00000000000E+00 0.  1.
         12    1    4    4    0    0 -0.51528589703E+01 -0.52684857344E+02 -0.32678095942E+03  0.33104084580E+03  0.00000000000E+00 0. -1.
         -5    1    5    5    0  502  0.52020724871E+02  0.52456558827E+02  0.10227074441E+03  0.12625070908E+03  0.47000000000E+01 0.  1.
         13    1    6    6    0    0 -0.16800248820E+02  0.23689993768E+02  0.86721981641E+01  0.30309589013E+02  0.00000000000E+00 0. -1.
        -14    1    6    6    0    0 -0.13754146497E+02 -0.60983851816E+02  0.48036607560E+02  0.78839852828E+02  0.00000000000E+00 0.  1.
</event>
<event>
12    1  0.8358445E-002  0.2216973E+03  0.7818608E-02  0.1132864E+00
         21   -1    0    0  503  502  0.00000000000E+00  0.00000000000E+00  0.30963541602E+03  0.30963541602E+03  0.00000000000E+00 0. -1.
         21   -1    0    0  501  503 -0.00000000000E+00 -0.00000000000E+00 -0.72602410342E+03  0.72602410342E+03  0.00000000000E+00 0. -1.
          6    2    1    2  501    0 -0.23295837210E+02 -0.13842289187E+03 -0.66617013689E+03  0.70168279056E+03  0.16991908152E+03 0.  0.
         24    2    3    3    0    0 -0.16151165065E+02 -0.10302460629E+02 -0.36467527215E+03  0.37398302751E+03  0.80673725082E+02 0.  0.
         -6    2    1    2    0  502  0.23295837210E+02  0.13842289187E+03  0.24978144949E+03  0.33397672888E+03  0.17159863023E+03 0.  0.
        -24    2    5    5    0    0 -0.25365766465E+02  0.12191621042E+03  0.23912285056E+03  0.28128785020E+03  0.80225510532E+02 0.  0.
          5    1    3    3  501    0 -0.71446721449E+01 -0.12812043125E+03 -0.30149486474E+03  0.32769976306E+03  0.47000000000E+01 0. -1.
        -13    1    4    4    0    0 -0.43634747571E+02 -0.23931439586E+02 -0.26717642425E+03  0.27177186512E+03  0.00000000000E+00 0.  1.
         14    1    4    4    0    0  0.27483582506E+02  0.13628978957E+02 -0.97498847901E+02  0.10221116239E+03  0.00000000000E+00 0. -1.
         -5    1    5    5    0  502  0.48661603675E+02  0.16506681452E+02  0.10658598931E+02  0.52688878675E+02  0.47000000000E+01 0.  1.
         13    1    6    6    0    0 -0.54455177121E+02  0.74014472425E+02  0.14134874442E+03  0.16859115040E+03  0.00000000000E+00 0. -1.
        -14    1    6    6    0    0  0.29089410656E+02  0.47901737997E+02  0.97774106138E+02  0.11269669980E+03  0.00000000000E+00 0.  1.
</event>
<event>
12    1  0.8358445E-002  0.3276545E+03  0.7818608E-02  0.1072322E+00
         21   -1    0    0  501  502  0.00000000000E+00  0.00000000000E+00  0.19032996983E+04  0.19032996983E+04  0.00000000000E+00 0.  1.
         21   -1    0    0  502  503 -0.00000000000E+00 -0.00000000000E+00 -0.10098407651E+03  0.10098407651E+03  0.00000000000E+00 0. -1.
         -6    2    1    2    0  503 -0.26369788687E+03 -0.91539302853E+02  0.23271324406E+03  0.40084712418E+03  0.16913587289E+03 0.  0.
        -24    2    3    3    0    0 -0.27226786141E+03 -0.11075704533E+03  0.21545849076E+03  0.37323222601E+03  0.80517214591E+02 0.  0.
          6    2    1    2  501    0  0.26369788687E+03  0.91539302853E+02  0.15696023777E+04  0.16034366506E+04  0.17158510688E+03 0.  0.
         24    2    5    5    0    0  0.70381676794E+02  0.56414442157E+02  0.43153839028E+03  0.44852685223E+03  0.82551712104E+02 0.  0.
          5    1    5    5  501    0  0.19331621008E+03  0.35124860695E+02  0.11380639874E+04  0.11549097984E+04  0.47000000000E+01 0. -1.
        -13    1    6    6    0    0  0.53231529690E+02  0.24555573016E+02  0.38569883882E+03  0.39012839706E+03  0.00000000000E+00 0.  1.
         14    1    6    6    0    0  0.17150147104E+02  0.31858869142E+02  0.45839551454E+02  0.58398455169E+02  0.00000000000E+00 0. -1.
         -5    1    3    3    0  503  0.85699745431E+01  0.19217742477E+02  0.17254753300E+02  0.27614898172E+02  0.47000000000E+01 0.  1.
         13    1    4    4    0    0 -0.76652685075E+02 -0.37714498227E+02  0.21162807646E+02  0.88010692153E+02  0.00000000000E+00 0. -1.
        -14    1    4    4    0    0 -0.19561517634E+03 -0.73042547103E+02  0.19429568311E+03  0.28522153386E+03  0.00000000000E+00 0.  1.
</event>
<event>
12    1  0.8358445E-002  0.1938069E+03  0.7818608E-02  0.1156942E+00
         21   -1    0    0  501  502  0.00000000000E+00  0.00000000000E+00  0.40268581985E+02  0.40268581985E+02  0.00000000000E+00 0.  1.
         21   -1    0    0  502  503 -0.00000000000E+00 -0.00000000000E+00 -0.12408026126E+04  0.12408026126E+04  0.00000000000E+00 0. -1.
         -6    2    1    2    0  503 -0.11242258894E+01  0.70206408109E+02 -0.92977435948E+03  0.94809687714E+03  0.17168903654E+03 0.  0.
        -24    2    3    3    0    0  0.27778110291E+02  0.65018690456E+02 -0.31127610037E+03  0.32888411566E+03  0.79201624689E+02 0.  0.
          6    2    1    2  501    0  0.11242258894E+01 -0.70206408109E+02 -0.27075967116E+03  0.33297431747E+03  0.18064023070E+03 0.  0.
         24    2    5    5    0    0 -0.34876563025E+01  0.36486229324E+02 -0.10155127825E+03  0.13282897386E+03  0.77378714806E+02 0.  0.
          5    1    5    5  501    0  0.46118821919E+01 -0.10669263743E+03 -0.16920839290E+03  0.20014534361E+03  0.47000000000E+01 0. -1.
        -13    1    6    6    0    0 -0.35085250869E+02  0.11340399322E+02 -0.77506638077E+02  0.85830405052E+02  0.00000000000E+00 0.  1.
         14    1    6    6    0    0  0.31597594566E+02  0.25145830001E+02 -0.24044640176E+02  0.46998568808E+02  0.00000000000E+00 0. -1.
         -5    1    3    3    0  503 -0.28902336181E+02  0.51877176528E+01 -0.61849825911E+03  0.61921276147E+03  0.47000000000E+01 0.  1.
         13    1    4    4    0    0  0.41428777017E+02  0.29887793211E+02 -0.26153092652E+03  0.26647335565E+03  0.00000000000E+00 0. -1.
        -14    1    4    4    0    0 -0.13650666726E+02  0.35130897245E+02 -0.49745173855E+02  0.62410760011E+02  0.00000000000E+00 0.  1.
</event>
<event>
12    1  0.8358445E-002  0.2032307E+03  0.7818608E-02  0.1150015E+00
         21   -1    0    0  501  502  0.00000000000E+00  0.00000000000E+00  0.22920916046E+03  0.22920916046E+03  0.00000000000E+00 0.  1.
         21   -1    0    0  502  503 -0.00000000000E+00 -0.00000000000E+00 -0.37468374437E+03  0.37468374437E+03  0.00000000000E+00 0.  1.
         -6    2    1    2    0  503 -0.74987065135E+02 -0.10094996943E+02  0.15024426760E+03  0.25273716992E+03  0.18862069932E+03 0.  0.
        -24    2    3    3    0    0 -0.99317803215E+02  0.46108269350E+02  0.71552344831E+02  0.15291081736E+03  0.79195842543E+02 0.  0.
          6    2    1    2  501    0  0.74987065135E+02  0.10094996943E+02 -0.29571885151E+03  0.35115573491E+03  0.17359649225E+03 0.  0.
         24    2    5    5    0    0  0.76689458779E+02  0.65191839120E+02 -0.16754563557E+03  0.21155264238E+03  0.80942766946E+02 0.  0.
          5    1    5    5  501    0 -0.17023936447E+01 -0.55096842177E+02 -0.12817321593E+03  0.13960309253E+03  0.47000000000E+01 0. -1.
        -11    1    6    6    0    0  0.64836911408E+01  0.53742908874E+01 -0.91847899904E+02  0.92233171745E+02  0.00000000000E+00 0.  1.
         12    1    6    6    0    0  0.70205767639E+02  0.59817548233E+02 -0.75697735670E+02  0.11931947063E+03  0.00000000000E+00 0. -1.
         -5    1    3    3    0  503  0.24330738081E+02 -0.56203266293E+02  0.78691922772E+02  0.99826352568E+02  0.47000000000E+01 0.  1.
         11    1    4    4    0    0 -0.82795323388E+02  0.30724170195E+02  0.11876173136E+02  0.89107147286E+02  0.00000000000E+00 0. -1.
        -12    1    4    4    0    0 -0.16522479828E+02  0.15384099154E+02  0.59676171694E+02  0.63803670071E+02  0.00000000000E+00 0.  1.
</event>
<event>
12    1  0.8358445E-002  0.2012783E+03  0.7818608E-02  0.1149680E+00
         21   -1    0    0  501  502  0.00000000000E+00  0.00000000000E+00  0.71111281572E+03  0.71111281572E+03  0.00000000000E+00 0. -1.
         21   -1    0    0  502  503 -0.00000000000E+00 -0.00000000000E+00 -0.56556802114E+02  0.56556802114E+02  0.00000000000E+00 0.  1.
         -6    2    1    2    0  503  0.10451008679E+02 -0.10203221744E+03  0.28184259699E+03  0.34633541379E+03  0.17318537003E+03 0.  0.
        -24    2    3    3    0    0  0.25010166593E+02  0.12790689433E+02  0.10587887395E+03  0.13566602625E+03  0.80036395223E+02 0.  0.
          6    2    1    2  501    0 -0.10451008679E+02  0.10203221744E+03  0.37271341661E+03  0.42133420404E+03  0.16759302967E+03 0.  0.
         24    2    5    5    0    0 -0.33991648756E+02 -0.12179788671E+01  0.13414612743E+03  0.16027634410E+03  0.80848050772E+02 0.  0.
          5    1    5    5  501    0  0.23540640077E+02  0.10325019630E+03  0.23856728918E+03  0.26105785994E+03  0.47000000000E+01 0. -1.
        -13    1    6    6    0    0  0.21346411275E+02  0.83390534561E+01  0.12067078320E+02  0.25900259961E+02  0.00000000000E+00 0.  1.
         14    1    6    6    0    0 -0.55338060031E+02 -0.95570323232E+01  0.12207904911E+03  0.13437608414E+03  0.00000000000E+00 0. -1.
         -5    1    3    3    0  503 -0.14559157914E+02 -0.11482290687E+03  0.17596372304E+03  0.21066938754E+03  0.47000000000E+01 0.  1.
         11    1    4    4    0    0 -0.90975180504E+01  0.40106230297E+02  0.51524925672E+02  0.65924900522E+02  0.00000000000E+00 0. -1.
        -12    1    4    4    0    0  0.34107684643E+02 -0.27315540864E+02  0.54353948275E+02  0.69741125726E+02  0.00000000000E+00 0.  1.
</event>
<event>
12    1  0.8358445E-002  0.1811211E+03  0.7818608E-02  0.1167257E+00
         21   -1    0    0  503  502  0.00000000000E+00  0.00000000000E+00  0.10672426643E+03  0.10672426643E+03  0.00000000000E+00 0. -1.
         21   -1    0    0  501  503 -0.00000000000E+00 -0.00000000000E+00 -0.31581548120E+03  0.31581548120E+03  0.00000000000E+00 0. -1.
          6    2    1    2  501    0 -0.69964543124E+01  0.53309934855E+02 -0.14664788790E+03  0.23304602925E+03  0.17295649510E+03 0.  0.
         24    2    3    3    0    0  0.50292033819E+02  0.24929231054E+02 -0.29421744918E+02  0.99436546734E+02  0.76623968351E+02 0.  0.
         -6    2    1    2    0  502  0.69964543124E+01 -0.53309934855E+02 -0.62443326875E+02  0.18949371837E+03  0.17063938791E+03 0.  0.
        -24    2    5    5    0    0  0.69719471883E+02 -0.47477448512E+02 -0.38539209057E+02  0.12195342167E+03  0.79198822881E+02 0.  0.
          5    1    3    3  501    0 -0.57288488131E+02  0.28380703801E+02 -0.11722614298E+03  0.13360948252E+03  0.47000000000E+01 0. -1.
        -11    1    4    4    0    0  0.84107335891E+01  0.73587065745E+01 -0.48795830317E+02  0.50059205530E+02  0.00000000000E+00 0.  1.
         12    1    4    4    0    0  0.41881300230E+02  0.17570524479E+02  0.19374085399E+02  0.49377341204E+02  0.00000000000E+00 0. -1.
         -5    1    5    5    0  502 -0.62723017570E+02 -0.58324863424E+01 -0.23904117818E+02  0.67540296703E+02  0.47000000000E+01 0.  1.
         11    1    6    6    0    0  0.55612942911E+02 -0.61307067643E+02 -0.48692429080E+01  0.82916014669E+02  0.00000000000E+00 0. -1.
        -12    1    6    6    0    0  0.14106528972E+02  0.13829619131E+02 -0.33669966149E+02  0.39037407002E+02  0.00000000000E+00 0.  1.
</event>
<event>
12    1  0.8358445E-002  0.1947308E+03  0.7818608E-02  0.1154648E+00
         21   -1    0    0  503  502  0.00000000000E+00  0.00000000000E+00  0.18512441723E+04  0.18512441723E+04  0.00000000000E+00 0. -1.
         21   -1    0    0  501  503 -0.00000000000E+00 -0.00000000000E+00 -0.22768903896E+02  0.22768903896E+02  0.00000000000E+00 0. -1.
          6    2    1    2  501    0  0.84776355332E+02 -0.29902731872E+02  0.60933204550E+03  0.63969182653E+03  0.17273936281E+03 0.  0.
         24    2    3    3    0    0  0.43492907408E+02 -0.77622118342E+02  0.49363339989E+03  0.50782170287E+03  0.79322898166E+02 0.  0.
         -6    2    1    2    0  502 -0.84776355332E+02  0.29902731872E+02  0.12191432229E+04  0.12343212496E+04  0.17075580698E+03 0.  0.
        -24    2    5    5    0    0  0.57446975873E+01 -0.76382494309E+00  0.80719173498E+03  0.81140208820E+03  0.82348447080E+02 0.  0.
          5    1    3    3  501    0  0.41283447924E+02  0.47719386471E+02  0.11569864561E+03  0.13187012366E+03  0.47000000000E+01 0. -1.
        -13    1    4    4    0    0  0.44570623435E+02 -0.51797589627E+02  0.17090473151E+03  0.18405965885E+03  0.00000000000E+00 0.  1.
         14    1    4    4    0    0 -0.10777160267E+01 -0.25824528715E+02  0.32272866838E+03  0.32376204402E+03  0.00000000000E+00 0. -1.
         -5    1    5    5    0  502 -0.90521052919E+02  0.30666556815E+02  0.41195148790E+03  0.42291916144E+03  0.47000000000E+01 0.  1.
         13    1    6    6    0    0  0.14348516267E+02 -0.39870376602E+02  0.39165479280E+03  0.39394035535E+03  0.00000000000E+00 0. -1.
        -14    1    6    6    0    0 -0.86038186797E+01  0.39106551659E+02  0.41553694218E+03  0.41746173285E+03  0.00000000000E+00 0.  1.
</event>
<event>
12    1  0.8358445E-002  0.1804164E+03  0.7818608E-02  0.1167997E+00
         21   -1    0    0  503  502  0.00000000000E+00  0.00000000000E+00  0.15899959586E+03  0.15899959586E+03  0.00000000000E+00 0. -1.
         21   -1    0    0  501  503 -0.00000000000E+00 -0.00000000000E+00 -0.29524748307E+03  0.29524748307E+03  0.00000000000E+00 0. -1.
          6    2    1    2  501    0  0.23150967237E+02 -0.48598949372E+02 -0.19612080988E+03  0.26648349834E+03  0.17219830909E+03 0.  0.
         24    2    3    3    0    0  0.25256830476E+02  0.35393626135E+02 -0.68479599043E+02  0.11359937194E+03  0.79528268955E+02 0.  0.
         -6    2    1    2    0  502 -0.23150967237E+02  0.48598949372E+02  0.59872922678E+02  0.18776358060E+03  0.16962479230E+03 0.  0.
        -24    2    5    5    0    0 -0.73151694779E+02  0.10704615174E+02  0.63169292824E+02  0.12476350619E+03  0.78165297198E+02 0.  0.
          5    1    3    3  501    0 -0.21058632391E+01 -0.83992575507E+02 -0.12764121084E+03  0.15288412640E+03  0.47000000000E+01 0. -1.
        -13    1    4    4    0    0  0.39801918386E+02 -0.11522086720E+02 -0.33774191300E+02  0.53456965754E+02  0.00000000000E+00 0.  1.
         14    1    4    4    0    0 -0.14545087910E+02  0.46915712856E+02 -0.34705407743E+02  0.60142406185E+02  0.00000000000E+00 0. -1.
         -5    1    5    5    0  502  0.50000727541E+02  0.37894334198E+02 -0.32963701468E+01  0.63000074406E+02  0.47000000000E+01 0.  1.
         11    1    6    6    0    0 -0.69939242527E+02 -0.23023355491E+02  0.41040184091E+02  0.84296318149E+02  0.00000000000E+00 0. -1.
        -12    1    6    6    0    0 -0.32124522515E+01  0.33727970665E+02  0.22129108733E+02  0.40467188041E+02  0.00000000000E+00 0.  1.
</event>
<event>
12    1  0.8358445E-002  0.1819537E+03  0.7818608E-02  0.1166880E+00
         21   -1    0    0  503  502  0.00000000000E+00  0.00000000000E+00  0.59594065067E+03  0.59594065067E+03  0.00000000000E+00 0.  1.
         21   -1    0    0  501  503 -0.00000000000E+00 -0.00000000000E+00 -0.11982507310E+03  0.11982507310E+03  0.00000000000E+00 0.  1.
          6    2    1    2  501    0 -0.29122354624E+02  0.37537561708E+02 -0.25289555366E+02  0.18370276295E+03  0.17564157659E+03 0.  0.
         24    2    3    3    0    0 -0.41850466744E+01 -0.26815881383E+02 -0.62575906053E+02  0.10511779674E+03  0.79983755000E+02 0.  0.
         -6    2    1    2    0  502  0.29122354624E+02 -0.37537561708E+02  0.50140513293E+03  0.53206296083E+03  0.17154214314E+03 0.  0.
        -24    2    5    5    0    0  0.12844750607E+02 -0.64924679286E+02  0.16238604879E+03  0.19151774501E+03  0.77004001286E+02 0.  0.
          5    1    3    3  501    0 -0.24937307950E+02  0.64353443091E+02  0.37286350687E+02  0.78584966202E+02  0.47000000000E+01 0. -1.
        -13    1    4    4    0    0  0.31322450964E+02 -0.32249395440E+02 -0.49556992085E+02  0.66910499215E+02  0.00000000000E+00 0.  1.
         14    1    4    4    0    0 -0.35507497639E+02  0.54335140570E+01 -0.13018913967E+02  0.38207297529E+02  0.00000000000E+00 0. -1.
         -5    1    5    5    0  502  0.16277604018E+02  0.27387117578E+02  0.33901908414E+03  0.34054521582E+03  0.47000000000E+01 0.  1.
         11    1    6    6    0    0 -0.26143494237E+02 -0.43578531900E+02  0.52911159874E+02  0.73363216755E+02  0.00000000000E+00 0. -1.
        -12    1    6    6    0    0  0.38988244844E+02 -0.21346147387E+02  0.10947488892E+03  0.11815452826E+03  0.00000000000E+00 0.  1.
</event>
<event>
12    1  0.8358445E-002  0.2140471E+03  0.7818608E-02  0.1138507E+00
         21   -1    0    0  501  502  0.00000000000E+00  0.00000000000E+00  0.20714452515E+02  0.20714452515E+02  0.00000000000E+00 0. -1.
         21   -1    0    0  502  503 -0.00000000000E+00 -0.00000000000E+00 -0.22193949608E+04  0.22193949608E+04  0.00000000000E+00 0. -1.
         -6    2    1    2    0  503  0.71892027448E+01  0.12770451406E+03 -0.11872952546E+04  0.12064353259E+04  0.17162763914E+03 0.  0.
        -24    2    3    3    0    0 -0.46186146576E+02  0.12793981737E+03 -0.78185353126E+03  0.79746825597E+03  0.78478773849E+02 0.  0.
          6    2    1    2  501    0 -0.71892027448E+01 -0.12770451406E+03 -0.10113852537E+04  0.10336740874E+04  0.17094402595E+03 0.  0.
         24    2    5    5    0    0 -0.45044398211E+02 -0.14411734429E+03 -0.78991396039E+03  0.80834317389E+03  0.81583179782E+02 0.  0.
          5    1    5    5  501    0  0.37855195467E+02  0.16412830238E+02 -0.22147129331E+03  0.22533091350E+03  0.47000000000E+01 0. -1.
        -13    1    6    6    0    0  0.74595969648E+01 -0.86103248748E+02 -0.52676401665E+03  0.53380684172E+03  0.00000000000E+00 0.  1.
         14    1    6    6    0    0 -0.52503995176E+02 -0.58014095545E+02 -0.26314994374E+03  0.27453633217E+03  0.00000000000E+00 0. -1.
         -5    1    3    3    0  503  0.53375349321E+02 -0.23530331044E+00 -0.40544172332E+03  0.40896706993E+03  0.47000000000E+01 0.  1.
         11    1    4    4    0    0  0.14364963642E+02  0.41118871629E+02 -0.35609734528E+03  0.35875121337E+03  0.00000000000E+00 0. -1.
        -12    1    4    4    0    0 -0.60551110218E+02  0.86820945737E+02 -0.42575618598E+03  0.43871704260E+03  0.00000000000E+00 0.  1.
</event>
<event>
12    1  0.8358445E-002  0.2418299E+03  0.7818608E-02  0.1118623E+00
         21   -1    0    0  503  502  0.00000000000E+00  0.00000000000E+00  0.17237352152E+04  0.17237352152E+04  0.00000000000E+00 0.  1.
         21   -1    0    0  501  503 -0.00000000000E+00 -0.00000000000E+00 -0.34525185787E+02  0.34525185787E+02  0.00000000000E+00 0.  1.
          6    2    1    2  501    0 -0.65025301414E+02  0.15733810369E+03  0.72589247470E+03  0.76511539496E+03  0.17175015015E+03 0.  0.
         24    2    3    3    0    0 -0.19373403600E+02  0.43609415845E+02  0.49903331812E+03  0.50722883629E+03  0.77264026946E+02 0.  0.
         -6    2    1    2    0  502  0.65025301414E+02 -0.15733810369E+03  0.96331755471E+03  0.99314500602E+03  0.17138472245E+03 0.  0.
        -24    2    5    5    0    0  0.95748469827E+02 -0.16110373333E+03  0.89720463640E+03  0.91999378586E+03  0.79310932945E+02 0.  0.
          5    1    3    3  501    0 -0.45651897814E+02  0.11372868785E+03  0.22685915659E+03  0.25788655867E+03  0.47000000000E+01 0. -1.
        -11    1    4    4    0    0 -0.34260749696E+02 -0.94834827211E+01  0.18290449643E+03  0.18632710546E+03  0.00000000000E+00 0.  1.
         12    1    4    4    0    0  0.14887346096E+02  0.53092898566E+02  0.31612882168E+03  0.32090173083E+03  0.00000000000E+00 0. -1.
         -5    1    5    5    0  502 -0.30723168413E+02  0.37656296358E+01  0.66112918309E+02  0.73151220163E+02  0.47000000000E+01 0.  1.
         13    1    6    6    0    0  0.22272770166E+02 -0.10899128833E+03  0.42802109962E+03  0.44224115474E+03  0.00000000000E+00 0. -1.
        -14    1    6    6    0    0  0.73475699661E+02 -0.52112445000E+02  0.46918353678E+03  0.47775263112E+03  0.00000000000E+00 0.  1.
</event>
<event>
12    1  0.8358445E-002  0.2138274E+03  0.7818608E-02  0.1139903E+00
         21   -1    0    0  501  502  0.00000000000E+00  0.00000000000E+00  0.14280249923E+03  0.14280249923E+03  0.00000000000E+00 0. -1.
         21   -1    0    0  502  503 -0.00000000000E+00 -0.00000000000E+00 -0.31472449528E+03  0.31472449528E+03  0.00000000000E+00 0. -1.
         -6    2    1    2    0  503 -0.91002703249E+02  0.87955616587E+02 -0.59636910121E+02  0.22198809006E+03  0.17234984360E+03 0.  0.
        -24    2    3    3    0    0 -0.69366544848E+02  0.67164048226E+02  0.25621406386E+02  0.13148127706E+03  0.85487676501E+02 0.  0.
          6    2    1    2  501    0  0.91002703249E+02 -0.87955616587E+02 -0.11228508593E+03  0.23553890446E+03  0.16386870508E+03 0.  0.
         24    2    5    5    0    0  0.84451827782E+02 -0.12159525504E+03 -0.10944144573E+03  0.20082989217E+03  0.80235268334E+02 0.  0.
          5    1    5    5  501    0  0.65508754667E+01  0.33639638449E+02 -0.28436401976E+01  0.34709012286E+02  0.47000000000E+01 0. -1.
        -11    1    6    6    0    0  0.67415620692E+01 -0.79873611453E+02 -0.50197318350E+02  0.94578080099E+02  0.00000000000E+00 0.  1.
         12    1    6    6    0    0  0.77710265713E+02 -0.41721643583E+02 -0.59244127379E+02  0.10625181207E+03  0.00000000000E+00 0. -1.
         -5    1    3    3    0  503 -0.21636158400E+02  0.20791568361E+02 -0.85258316507E+02  0.90506812997E+02  0.47000000000E+01 0.  1.
         11    1    4    4    0    0 -0.53884723842E+02 -0.46750657800E+01  0.20404320093E+02  0.57807923176E+02  0.00000000000E+00 0. -1.
        -12    1    4    4    0    0 -0.15481821007E+02  0.71839114006E+02  0.52170862934E+01  0.73673353882E+02  0.00000000000E+00 0.  1.
</event>
<event>
12    1  0.8358445E-002  0.2181588E+03  0.7818608E-02  0.1135474E+00
         21   -1    0    0  501  502  0.00000000000E+00  0.00000000000E+00  0.38351819346E+03  0.38351819346E+03  0.00000000000E+00 0. -1.
         21   -1    0    0  502  503 -0.00000000000E+00 -0.00000000000E+00 -0.17970242409E+03  0.17970242409E+03  0.00000000000E+00 0. -1.
         -6    2    1    2    0  503 -0.12036603403E+03 -0.56490292884E+02 -0.55810660643E+02  0.22410539625E+03  0.17154959472E+03 0.  0.
        -24    2    3    3    0    0 -0.15459382758E+03 -0.38850409908E+02 -0.62121666180E+02  0.18480366455E+03  0.69890536891E+02 0.  0.
          6    2    1    2  501    0  0.12036603403E+03  0.56490292884E+02  0.25962643001E+03  0.33911522131E+03  0.17295697391E+03 0.  0.
         24    2    5    5    0    0  0.78636100851E+02  0.64906929627E+02  0.74098531059E+02  0.14870797778E+03  0.78910864152E+02 0.  0.
          5    1    5    5  501    0  0.41729933174E+02 -0.84166367425E+01  0.18552789895E+03  0.19040724352E+03  0.47000000000E+01 0. -1.
        -13    1    6    6    0    0  0.27181669309E+02  0.26251175684E+02  0.75398296477E+02  0.84337835417E+02  0.00000000000E+00 0.  1.
         14    1    6    6    0    0  0.51454431542E+02  0.38655753943E+02 -0.12997654189E+01  0.64370142367E+02  0.00000000000E+00 0. -1.
         -5    1    3    3    0  503  0.34227793558E+02 -0.17639882976E+02  0.63110055366E+01  0.39301731694E+02  0.47000000000E+01 0.  1.
         11    1    4    4    0    0 -0.11340838211E+03 -0.31006698508E+02 -0.10119342825E+02  0.11800541337E+03  0.00000000000E+00 0. -1.
        -12    1    4    4    0    0 -0.41185445477E+02 -0.78437114006E+01 -0.52002323355E+02  0.66798251189E+02  0.00000000000E+00 0.  1.
</event>
<event>
12    1  0.8358445E-002  0.1811520E+03  0.7818608E-02  0.1166812E+00
         21   -1    0    0  501  502  0.00000000000E+00  0.00000000000E+00  0.46893094462E+03  0.46893094462E+03  0.00000000000E+00 0. -1.
         21   -1    0    0  502  503 -0.00000000000E+00 -0.00000000000E+00 -0.16027259538E+03  0.16027259538E+03  0.00000000000E+00 0. -1.
         -6    2    1    2    0  503  0.20500347826E+02  0.50649448843E+02  0.39080399285E+03  0.43074796755E+03  0.17271485110E+03 0.  0.
        -24    2    3    3    0    0 -0.54230856617E+02  0.42579621929E+02  0.20615949912E+03  0.23133494368E+03  0.79120838446E+02 0.  0.
          6    2    1    2  501    0 -0.20500347826E+02 -0.50649448843E+02 -0.82145643604E+02  0.19845557245E+03  0.17219487956E+03 0.  0.
         24    2    5    5    0    0 -0.80196615101E+02 -0.25880458286E+02 -0.59382634378E+02  0.12977230077E+03  0.78824219547E+02 0.  0.
          5    1    5    5  501    0  0.59696267274E+02 -0.24768990557E+02 -0.22763009226E+02  0.68683271680E+02  0.47000000000E+01 0. -1.
        -13    1    6    6    0    0 -0.70863867143E+02 -0.14039453965E+02 -0.39754983530E+01  0.72350525370E+02  0.00000000000E+00 0.  1.
         14    1    6    6    0    0 -0.93327479572E+01 -0.11841004322E+02 -0.55407136025E+02  0.57421775402E+02  0.00000000000E+00 0. -1.
         -5    1    3    3    0  503  0.74731204443E+02  0.80698269143E+01  0.18464449373E+03  0.19941302387E+03  0.47000000000E+01 0.  1.
         13    1    4    4    0    0 -0.63832036628E+01  0.31972526090E+01  0.14183743227E+03  0.14201698809E+03  0.00000000000E+00 0. -1.
        -14    1    4    4    0    0 -0.47847652954E+02  0.39382369320E+02  0.64322066846E+02  0.89317955585E+02  0.00000000000E+00 0.  1.
</event>
<event>
12    1  0.8358445E-002  0.1945733E+03  0.7818608E-02  0.1154436E+00
         21   -1    0    0  503  502  0.00000000000E+00  0.00000000000E+00  0.57513931338E+03  0.57513931338E+03  0.00000000000E+00 0.  1.
         21   -1    0    0  501  503 -0.00000000000E+00 -0.00000000000E+00 -0.65850745661E+02  0.65850745661E+02  0.00000000000E+00 0.  1.
          6    2    1    2  501    0 -0.90548847592E+02  0.12307015633E+02  0.26580043711E+03  0.32930874130E+03  0.17159201115E+03 0.  0.
         24    2    3    3    0    0 -0.61200648627E+02 -0.15768648443E+01  0.47592057650E+02  0.10864821971E+03  0.76101417854E+02 0.  0.
         -6    2    1    2    0  502  0.90548847592E+02 -0.12307015633E+02  0.24348813061E+03  0.31168131775E+03  0.17177956122E+03 0.  0.
        -24    2    5    5    0    0 -0.20398803679E+02 -0.41437452667E+01  0.11833052612E+03  0.14416255382E+03  0.79670864789E+02 0.  0.
          5    1    3    3  501    0 -0.29348198966E+02  0.13883880477E+02  0.21820837946E+03  0.22066052159E+03  0.47000000000E+01 0. -1.
        -13    1    4    4    0    0 -0.60088694606E+02 -0.30537554690E+02  0.41107933974E+02  0.78949703619E+02  0.00000000000E+00 0.  1.
         14    1    4    4    0    0 -0.11119540210E+01  0.28960689846E+02  0.64841236766E+01  0.29698516090E+02  0.00000000000E+00 0. -1.
         -5    1    5    5    0  502  0.11094765127E+03 -0.81632703658E+01  0.12515760449E+03  0.16751876392E+03  0.47000000000E+01 0.  1.
         13    1    6    6    0    0 -0.32750351535E+02  0.24994967185E+02  0.31855009398E+02  0.52077591477E+02  0.00000000000E+00 0. -1.
        -14    1    6    6    0    0  0.12351547856E+02 -0.29138712452E+02  0.86475516724E+02  0.92084962347E+02  0.00000000000E+00 0.  1.
</event>
<event>
12    1  0.8358445E-002  0.1956536E+03  0.7818608E-02  0.1153859E+00
         21   -1    0    0  503  502  0.00000000000E+00  0.00000000000E+00  0.14576061147E+03  0.14576061147E+03  0.00000000000E+00 0. -1.
         21   -1    0    0  501  503 -0.00000000000E+00 -0.00000000000E+00 -0.34613362066E+03  0.34613362066E+03  0.00000000000E+00 0.  1.
          6    2    1    2  501    0  0.40752275631E+02 -0.82827091552E+02 -0.22310789147E+03  0.29674480103E+03  0.17250875524E+03 0.  0.
         24    2    3    3    0    0  0.32389853120E+02 -0.12495655982E+03 -0.17872420816E+03  0.23480270264E+03  0.80788131309E+02 0.  0.
         -6    2    1    2    0  502 -0.40752275631E+02  0.82827091552E+02  0.22734882283E+02  0.19514943111E+03  0.17042696537E+03 0.  0.
        -24    2    5    5    0    0 -0.50454281415E+02  0.54415772002E+02  0.76657653843E+02  0.13325365349E+03  0.79833761778E+02 0.  0.
          5    1    3    3  501    0  0.83624225111E+01  0.42129468270E+02 -0.44383683319E+02  0.61942098382E+02  0.47000000000E+01 0. -1.
        -11    1    4    4    0    0  0.25263543078E+02  0.95096858454E+00 -0.21032184810E+02  0.32886224289E+02  0.00000000000E+00 0.  1.
         12    1    4    4    0    0  0.71263100414E+01 -0.12590752841E+03 -0.15769202335E+03  0.20191647836E+03  0.00000000000E+00 0. -1.
         -5    1    5    5    0  502  0.97020057837E+01  0.28411319550E+02 -0.53922771560E+02  0.61895777623E+02  0.47000000000E+01 0.  1.
         13    1    6    6    0    0 -0.61552679122E+02  0.67128255242E+02  0.70910749118E+02  0.11542646707E+03  0.00000000000E+00 0. -1.
        -14    1    6    6    0    0  0.11098397708E+02 -0.12712483240E+02  0.57469047247E+01  0.17827186422E+02  0.00000000000E+00 0.  1.
</event>
<event>
12    1  0.8358445E-002  0.2356983E+03  0.7818608E-02  0.1122714E+00
         21   -1    0    0  503  502  0.00000000000E+00  0.00000000000E+00  0.13603396631E+04  0.13603396631E+04  0.00000000000E+00 0.  1.
         21   -1    0    0  501  503 -0.00000000000E+00 -0.00000000000E+00 -0.71434356860E+02  0.71434356860E+02  0.00000000000E+00 0.  1.
          6    2    1    2  501    0 -0.12279109455E+03 -0.10377251198E+03  0.17566793205E+03  0.29385876105E+03  0.17218409319E+03 0.  0.
         24    2    3    3    0    0 -0.29243025770E+02 -0.96882709052E+02  0.50572633305E+02  0.13743103229E+03  0.78027453671E+02 0.  0.
         -6    2    1    2    0  502  0.12279109455E+03  0.10377251198E+03  0.11132373742E+04  0.11379152589E+04  0.17235805181E+03 0.  0.
        -24    2    5    5    0    0  0.63890267319E+02 -0.75961874461E+01  0.37551725672E+03  0.38950002899E+03  0.80977738702E+02 0.  0.
          5    1    3    3  501    0 -0.93548068783E+02 -0.68898029306E+01  0.12509529874E+03  0.15642772876E+03  0.47000000000E+01 0. -1.
        -13    1    4    4    0    0 -0.28864207593E+02 -0.21772192061E+02 -0.13610898950E+02  0.38631947884E+02  0.00000000000E+00 0.  1.
         14    1    4    4    0    0 -0.37881817663E+00 -0.75110516991E+02  0.64183532255E+02  0.98799084402E+02  0.00000000000E+00 0. -1.
         -5    1    5    5    0  502  0.58900827234E+02  0.11136869943E+03  0.73772011747E+03  0.74841522992E+03  0.47000000000E+01 0.  1.
         11    1    6    6    0    0 -0.29410669059E+00 -0.24635634664E+02  0.20553461406E+03  0.20700598680E+03  0.00000000000E+00 0. -1.
        -12    1    6    6    0    0  0.64184374010E+02  0.17039447218E+02  0.16998264266E+03  0.18249404219E+03  0.00000000000E+00 0.  1.
</event>
<event>
12    1  0.8358445E-002  0.1834359E+03  0.7818608E-02  0.1165154E+00
         21   -1    0    0  503  502  0.00000000000E+00  0.00000000000E+00  0.69563286699E+02  0.69563286699E+02  0.00000000000E+00 0. -1.
         21   -1    0    0  501  503 -0.00000000000E+00 -0.00000000000E+00 -0.51199852481E+03  0.51199852481E+03  0.00000000000E+00 0.  1.
          6    2    1    2  501    0  0.48640121155E+02  0.35194293072E+02 -0.29606231746E+03  0.34688377773E+03  0.17050208145E+03 0.  0.
         24    2    3    3    0    0  0.21858584787E+02  0.44591631833E+02 -0.30312865258E+03  0.31725973752E+03  0.79376001899E+02 0.  0.
         -6    2    1    2    0  502 -0.48640121155E+02 -0.35194293072E+02 -0.14637292065E+03  0.23467803378E+03  0.17333276664E+03 0.  0.
        -24    2    5    5    0    0  0.36169477339E+02 -0.35926835277E+02 -0.10016711281E+03  0.13798123294E+03  0.80039999818E+02 0.  0.
          5    1    3    3  501    0  0.26781536368E+02 -0.93973387611E+01  0.70663351199E+01  0.29624040205E+02  0.47000000000E+01 0. -1.
        -13    1    4    4    0    0  0.80180502581E+01  0.62949757333E+02 -0.15710309881E+03  0.16943537038E+03  0.00000000000E+00 0.  1.
         14    1    4    4    0    0  0.13840534529E+02 -0.18358125500E+02 -0.14602555377E+03  0.14782436714E+03  0.00000000000E+00 0. -1.
         -5    1    5    5    0  502 -0.84809598494E+02  0.73254220447E+00 -0.46205807831E+02  0.96696800837E+02  0.47000000000E+01 0.  1.
         13    1    6    6    0    0 -0.12486147919E+01 -0.36078115344E+02 -0.59253404392E+01  0.36582770603E+02  0.00000000000E+00 0. -1.
        -14    1    6    6    0    0  0.37418092131E+02  0.15128006743E+00 -0.94241772375E+02  0.10139846234E+03  0.00000000000E+00 0.  1.
</event>
<event>
12    1  0.8358445E-002  0.1959964E+03  0.7818608E-02  0.1153954E+00
         21   -1    0    0  503  502  0.00000000000E+00  0.00000000000E+00  0.53080744897E+03  0.53080744897E+03  0.00000000000E+00 0. -1.
         21   -1    0    0  501  503 -0.00000000000E+00 -0.00000000000E+00 -0.11620006226E+03  0.11620006226E+03  0.00000000000E+00 0. -1.
          6    2    1    2  501    0  0.26847509783E+02 -0.87961651776E+02  0.68112267108E+01  0.19611469681E+03  0.17307957861E+03 0.  0.
         24    2    3    3    0    0  0.67071618161E+02 -0.29225684757E+02  0.40703159142E+02  0.11712959821E+03  0.81913692390E+02 0.  0.
         -6    2    1    2    0  502 -0.26847509783E+02  0.87961651776E+02  0.40779616000E+03  0.45089281442E+03  0.16896325348E+03 0.  0.
        -24    2    5    5    0    0 -0.65043238240E+02  0.64217457079E+02  0.37688565827E+03  0.39611828046E+03  0.80699368460E+02 0.  0.
          5    1    3    3  501    0 -0.40224108378E+02 -0.58735967019E+02 -0.33891932431E+02  0.78985098597E+02  0.47000000000E+01 0. -1.
        -11    1    4    4    0    0  0.62066321137E+02 -0.37516811104E+02  0.60918338062E+02  0.94714218822E+02  0.00000000000E+00 0.  1.
         12    1    4    4    0    0  0.50052970242E+01  0.82911263470E+01 -0.20215178920E+02  0.22415379390E+02  0.00000000000E+00 0. -1.
         -5    1    5    5    0  502  0.38195728457E+02  0.23744194696E+02  0.30910501726E+02  0.54774533965E+02  0.47000000000E+01 0.  1.
         13    1    6    6    0    0 -0.50828796572E+02  0.59237434609E+02  0.15331695848E+03  0.17204281437E+03  0.00000000000E+00 0. -1.
        -14    1    6    6    0    0 -0.14214441668E+02  0.49800224702E+01  0.22356869979E+03  0.22407546608E+03  0.00000000000E+00 0.  1.
</event>
<event>
12    1  0.8358445E-002  0.2084539E+03  0.7818608E-02  0.1144505E+00
         21   -1    0    0  503  502  0.00000000000E+00  0.00000000000E+00  0.48459494625E+02  0.48459494625E+02  0.00000000000E+00 0. -1.
         21   -1    0    0  501  503 -0.00000000000E+00 -0.00000000000E+00 -0.13434293458E+04  0.13434293458E+04  0.00000000000E+00 0. -1.
          6    2    1    2  501    0 -0.10882923515E+03  0.43834697015E+02 -0.10559494967E+04  0.10747394074E+04  0.16208075522E+03 0.  0.
         24    2    3    3    0    0 -0.86608676336E+02 -0.10907591140E+02 -0.41685926042E+03  0.43290695931E+03  0.77567738531E+02 0.  0.
         -6    2    1    2    0  502  0.10882923515E+03 -0.43834697015E+02 -0.23902035446E+03  0.31714943298E+03  0.17230133462E+03 0.  0.
        -24    2    5    5    0    0  0.53673536212E+02 -0.25005189257E+01 -0.35203217728E+02  0.10194213611E+03  0.79157005319E+02 0.  0.
          5    1    3    3  501    0 -0.22220558809E+02  0.54742288155E+02 -0.63909023630E+03  0.64183244813E+03  0.47000000000E+01 0. -1.
        -11    1    4    4    0    0 -0.21162278501E+02  0.25794038679E+02 -0.64183638003E+02  0.72337499611E+02  0.00000000000E+00 0.  1.
         12    1    4    4    0    0 -0.65446397836E+02 -0.36701629819E+02 -0.35267562241E+03  0.36056945970E+03  0.00000000000E+00 0. -1.
         -5    1    5    5    0  502  0.55155698934E+02 -0.41334178090E+02 -0.20381713673E+03  0.21520729688E+03  0.47000000000E+01 0.  1.
         13    1    6    6    0    0  0.46421554985E+02 -0.36750163581E+02 -0.13419989693E+02  0.60709401363E+02  0.00000000000E+00 0. -1.
        -14    1    6    6    0    0  0.72519812267E+01  0.34249644656E+02 -0.21783228035E+02  0.41232734743E+02  0.00000000000E+00 0.  1.
</event>
<event>
12    1  0.8358445E-002  0.1957730E+03  0.7818608E-02  0.1154461E+00
         21   -1    0    0  503  502  0.00000000000E+00  0.00000000000E+00  0.48334321429E+03  0.48334321429E+03  0.00000000000E+00 0. -1.
         21   -1    0    0  501  503 -0.00000000000E+00 -0.00000000000E+00 -0.84843102012E+02  0.84843102012E+02  0.00000000000E+00 0.  1.
          6    2    1    2  501    0  0.17131458429E+02 -0.92250672058E+02  0.11674967220E+03  0.22794201177E+03  0.17182375100E+03 0.  0.
         24    2    3    3    0    0 -0.34860655113E+02 -0.10498672559E+03  0.10509766102E+03  0.17295795685E+03  0.81433768562E+02 0.  0.
         -6    2    1    2    0  502 -0.17131458429E+02  0.92250672058E+02  0.28175044008E+03  0.34024430454E+03  0.16606987362E+03 0.  0.
        -24    2    5    5    0    0 -0.11917218399E+02  0.23536378821E+02  0.25322744386E+03  0.26551483439E+03  0.75352556291E+02 0.  0.
          5    1    3    3  501    0  0.51992113542E+02  0.12736053532E+02  0.11652011184E+02  0.54984054914E+02  0.47000000000E+01 0. -1.
        -13    1    4    4    0    0 -0.98153845339E+01 -0.26618108257E+02 -0.11199877564E+02  0.30500864220E+02  0.00000000000E+00 0.  1.
         14    1    4    4    0    0 -0.25045270579E+02 -0.78368617334E+02  0.11629753858E+03  0.14245709264E+03  0.00000000000E+00 0. -1.
         -5    1    5    5    0  502 -0.52142400294E+01  0.68714293237E+02  0.28522996221E+02  0.74729470141E+02  0.47000000000E+01 0.  1.
         13    1    6    6    0    0  0.17332952784E+02  0.24887037830E+02  0.21616003772E+03  0.21827724987E+03  0.00000000000E+00 0. -1.
        -14    1    6    6    0    0 -0.29250171183E+02 -0.13506590094E+01  0.37067406137E+02  0.47237584525E+02  0.00000000000E+00 0.  1.
</event>
<event>
12    1  0.8358445E-002  0.1798102E+03  0.7818608E-02  0.1168424E+00
         21   -1    0    0  503  502  0.00000000000E+00  0.00000000000E+00  0.16175068893E+03  0.16175068893E+03  0.00000000000E+00 0.  1.
         21   -1    0    0  501  503 -0.00000000000E+00 -0.00000000000E+00 -0.19932630205E+03  0.19932630205E+03  0.00000000000E+00 0.  1.
          6    2    1    2  501    0 -0.42351320299E+02 -0.20344586125E+02 -0.33983761173E+02  0.18123087847E+03  0.17170381118E+03 0.  0.
         24    2    3    3    0    0 -0.74057170221E+02 -0.58492484842E+02 -0.42857837501E+02  0.13062097503E+03  0.79493456575E+02 0.  0.
         -6    2    1    2    0  502  0.42351320299E+02  0.20344586125E+02 -0.35918519448E+01  0.17984611251E+03  0.17356320540E+03 0.  0.
        -24    2    5    5    0    0  0.91547255204E+02  0.35435758421E+02  0.69840958887E+01  0.12710216342E+03  0.80433758092E+02 0.  0.
          5    1    3    3  501    0  0.31705849922E+02  0.38147898717E+02  0.88740763274E+01  0.50609903443E+02  0.47000000000E+01 0. -1.
        -11    1    4    4    0    0  0.10834090541E+02  0.54510116489E+00 -0.22859653022E+02  0.25302932427E+02  0.00000000000E+00 0.  1.
         12    1    4    4    0    0 -0.84891260762E+02 -0.59037586006E+02 -0.19998184479E+02  0.10531804260E+03  0.00000000000E+00 0. -1.
         -5    1    5    5    0  502 -0.49195934905E+02 -0.15091172297E+02 -0.10575947834E+02  0.52743949085E+02  0.47000000000E+01 0.  1.
         13    1    6    6    0    0 -0.14132076375E+02  0.11689470960E+01 -0.57026601246E+01  0.15284055499E+02  0.00000000000E+00 0. -1.
        -14    1    6    6    0    0  0.10567933158E+03  0.34266811325E+02  0.12686756013E+02  0.11181810792E+03  0.00000000000E+00 0.  1.
</event>
<event>
12    1  0.8358445E-002  0.1776618E+03  0.7818608E-02  0.1171514E+00
         21   -1    0    0  501  502  0.00000000000E+00  0.00000000000E+00  0.16445014166E+03  0.16445014166E+03  0.00000000000E+00 0. -1.
         21   -1    0    0  502  503 -0.00000000000E+00 -0.00000000000E+00 -0.43816501116E+03  0.43816501116E+03  0.00000000000E+00 0. -1.
         -6    2    1    2    0  503  0.16542342952E+02 -0.15768350043E+01 -0.36455544116E+03  0.40307637735E+03  0.17115420175E+03 0.  0.
        -24    2    3    3    0    0  0.40285747932E+02  0.46093083081E+02 -0.13185526942E+03  0.16431367025E+03  0.76587573172E+02 0.  0.
          6    2    1    2  501    0 -0.16542342952E+02  0.15768350043E+01  0.90840571659E+02  0.19953877546E+03  0.17688294981E+03 0.  0.
         24    2    5    5    0    0  0.14592009491E+02 -0.25112314599E+02 -0.13993206476E+02  0.86871701095E+02  0.80668008146E+02 0.  0.
          5    1    5    5  501    0 -0.31134352443E+02  0.26689149603E+02  0.10483377813E+03  0.11266707437E+03  0.47000000000E+01 0. -1.
        -11    1    6    6    0    0  0.26403164441E+02  0.36486460501E+01 -0.38816079850E+02  0.47086386200E+02  0.00000000000E+00 0.  1.
         12    1    6    6    0    0 -0.11811154950E+02 -0.28760960649E+02  0.24822873374E+02  0.39785314895E+02  0.00000000000E+00 0. -1.
         -5    1    3    3    0  503 -0.23743404980E+02 -0.47669918086E+02 -0.23270017174E+03  0.23876270710E+03  0.47000000000E+01 0.  1.
         11    1    4    4    0    0  0.15774182180E+01  0.11752062756E+02 -0.10564497620E+03  0.10630832621E+03  0.00000000000E+00 0. -1.
        -12    1    4    4    0    0  0.38708329714E+02  0.34341020325E+02 -0.26210293223E+02  0.58005344039E+02  0.00000000000E+00 0.  1.
</event>
<event>
12    1  0.8358445E-002  0.2056368E+03  0.7818608E-02  0.1145646E+00
         21   -1    0    0  503  502  0.00000000000E+00  0.00000000000E+00  0.19516226698E+03  0.19516226698E+03  0.00000000000E+00 0.  1.
         21   -1    0    0  501  503 -0.00000000000E+00 -0.00000000000E+00 -0.22368373559E+03  0.22368373559E+03  0.00000000000E+00 0.  1.
          6    2    1    2  501    0  0.10266265439E+02  0.11200427534E+03 -0.58375958697E+02  0.21105334435E+03  0.16877620599E+03 0.  0.
         24    2    3    3    0    0 -0.32664840137E+02  0.27400555903E+02 -0.70798146293E+02  0.11525527593E+03  0.80334418940E+02 0.  0.
         -6    2    1    2    0  502 -0.10266265439E+02 -0.11200427534E+03  0.29854490094E+02  0.20779265822E+03  0.17215151563E+03 0.  0.
        -24    2    5    5    0    0 -0.42674811739E+02 -0.13819741262E+03  0.31819650541E+02  0.16581235129E+03  0.74576009999E+02 0.  0.
          5    1    3    3  501    0  0.42931105576E+02  0.84603719434E+02  0.12422187596E+02  0.95798068418E+02  0.47000000000E+01 0. -1.
        -11    1    4    4    0    0 -0.42621424596E+02  0.46470863256E+02 -0.31576148408E+02  0.70520777893E+02  0.00000000000E+00 0.  1.
         12    1    4    4    0    0  0.99565844589E+01 -0.19070307353E+02 -0.39221997885E+02  0.44734498038E+02  0.00000000000E+00 0. -1.
         -5    1    5    5    0  502  0.32408546300E+02  0.26193137288E+02 -0.19651604464E+01  0.41980306929E+02  0.47000000000E+01 0.  1.
         13    1    6    6    0    0 -0.11366613123E+02 -0.11715386345E+03  0.19907823476E+01  0.11772081732E+03  0.00000000000E+00 0. -1.
        -14    1    6    6    0    0 -0.31308198616E+02 -0.21043549174E+02  0.29828868193E+02  0.48091533975E+02  0.00000000000E+00 0.  1.
</event>
<event>
12    1  0.8358445E-002  0.2900256E+03  0.7818608E-02  0.1090449E+00
         21   -1    0    0  503  502  0.00000000000E+00  0.00000000000E+00  0.38210998263E+03  0.38210998263E+03  0.00000000000E+00 0.  1.
         21   -1    0    0  501  503 -0.00000000000E+00 -0.00000000000E+00 -0.21947794516E+03  0.21947794516E+03  0.00000000000E+00 0.  1.
          6    2    1    2  501    0  0.40182481340E+02 -0.22993568170E+03  0.80555587238E+02  0.30017227849E+03  0.17067262409E+03 0.  0.
         24    2    3    3    0    0  0.79779337091E+02 -0.11855288702E+03  0.12528864440E+02  0.16370337013E+03  0.78881501627E+02 0.  0.
         -6    2    1    2    0  502 -0.40182481340E+02  0.22993568170E+03  0.82076450236E+02  0.30141564930E+03  0.17213308930E+03 0.  0.
        -24    2    5    5    0    0 -0.32995987365E+02  0.32980644595E+02  0.36437571114E+02  0.99059701461E+02  0.79427134940E+02 0.  0.
          5    1    3    3  501    0 -0.39596855752E+02 -0.11138279468E+03  0.68026722798E+02  0.13646890836E+03  0.47000000000E+01 0. -1.
        -11    1    4    4    0    0  0.61484264944E+02 -0.10298982169E+03  0.40717478005E+02  0.12666937761E+03  0.00000000000E+00 0.  1.
         12    1    4    4    0    0  0.18295072147E+02 -0.15563065329E+02 -0.28188613565E+02  0.37033992521E+02  0.00000000000E+00 0. -1.
         -5    1    5    5    0  502 -0.71864939750E+01  0.19695503710E+03  0.45638879123E+02  0.20235594783E+03  0.47000000000E+01 0.  1.
         11    1    6    6    0    0 -0.89685402825E+01  0.52249284402E+02  0.22736126447E+01  0.53062149879E+02  0.00000000000E+00 0. -1.
        -12    1    6    6    0    0 -0.24027447082E+02 -0.19268639807E+02  0.34163958469E+02  0.45997551582E+02  0.00000000000E+00 0.  1.
</event>
<event>
12    1  0.8358445E-002  0.1885203E+03  0.7818608E-02  0.1160001E+00
         21   -1    0    0  501  502  0.00000000000E+00  0.00000000000E+00  0.34324755137E+02  0.34324755137E+02  0.00000000000E+00 0.  1.
         21   -1    0    0  502  503 -0.00000000000E+00 -0.00000000000E+00 -0.11248489364E+04  0.11248489364E+04  0.00000000000E+00 0.  1.
         -6    2    1    2    0  503  0.80690034632E+02  0.40558632394E+01 -0.71184699725E+03  0.73616506787E+03  0.16936802511E+03 0.  0.
        -24    2    3    3    0    0  0.40869347032E+02 -0.58600940937E+02 -0.32773594903E+03  0.34491712903E+03  0.80328076103E+02 0.  0.
          6    2    1    2  501    0 -0.80690034632E+02 -0.40558632394E+01 -0.37867718400E+03  0.42300862367E+03  0.17033072035E+03 0.  0.
         24    2    5    5    0    0 -0.99261292649E+02 -0.36494250646E+02 -0.19609677752E+03  0.23658213565E+03  0.79577171393E+02 0.  0.
          5    1    5    5  501    0  0.18571258017E+02  0.32438387407E+02 -0.18258040648E+03  0.18642648802E+03  0.47000000000E+01 0. -1.
        -11    1    6    6    0    0 -0.84059564637E+02 -0.15614763761E+02 -0.19233578704E+03  0.21048250813E+03  0.00000000000E+00 0.  1.
         12    1    6    6    0    0 -0.15201728012E+02 -0.20879486885E+02 -0.37609904808E+01  0.26099627517E+02  0.00000000000E+00 0. -1.
         -5    1    3    3    0  503  0.39820687600E+02  0.62656804177E+02 -0.38411104823E+03  0.39124793883E+03  0.47000000000E+01 0.  1.
         13    1    4    4    0    0  0.22695950054E+02 -0.85030234076E+01 -0.16902533424E+02  0.29548319615E+02  0.00000000000E+00 0. -1.
        -14    1    4    4    0    0  0.18173396978E+02 -0.50097917530E+02 -0.31083341560E+03  0.31536880942E+03  0.00000000000E+00 0.  1.
</event>
<event>
12    1  0.8358445E-002  0.1832770E+03  0.7818608E-02  0.1165446E+00
         21   -1    0    0  503  502  0.00000000000E+00  0.00000000000E+00  0.15172503509E+03  0.15172503509E+03  0.00000000000E+00 0. -1.
         21   -1    0    0  501  503 -0.00000000000E+00 -0.00000000000E+00 -0.23477053487E+03  0.23477053487E+03  0.00000000000E+00 0.  1.
          6    2    1    2  501    0  0.54210947803E+02  0.31645165519E+02 -0.94318244280E+02  0.20612225837E+03  0.17219236576E+03 0.  0.
         24    2    3    3    0    0  0.86378023424E+02 -0.17089494872E+01 -0.10327292909E+03  0.15869342619E+03  0.83989417146E+02 0.  0.
         -6    2    1    2    0  502 -0.54210947803E+02 -0.31645165519E+02  0.11272744501E+02  0.18037331159E+03  0.16872229670E+03 0.  0.
        -24    2    5    5    0    0  0.11279319268E+02 -0.22073689731E+02  0.55778256005E+02  0.10047701140E+03  0.79811936175E+02 0.  0.
          5    1    3    3  501    0 -0.32167075621E+02  0.33354115007E+02  0.89546848124E+01  0.47428832180E+02  0.47000000000E+01 0. -1.
        -13    1    4    4    0    0  0.32332769276E+01 -0.31363962619E+02 -0.19994375646E+02  0.37335335653E+02  0.00000000000E+00 0.  1.
         14    1    4    4    0    0  0.83144746496E+02  0.29655013132E+02 -0.83278553447E+02  0.12135809053E+03  0.00000000000E+00 0. -1.
         -5    1    5    5    0  502 -0.65490267071E+02 -0.95714757879E+01 -0.44505511504E+02  0.79896300190E+02  0.47000000000E+01 0.  1.
         11    1    6    6    0    0 -0.22792806868E+02 -0.26410796002E+02  0.56176713285E+02  0.66127644037E+02  0.00000000000E+00 0. -1.
        -12    1    6    6    0    0  0.34072126136E+02  0.43371062702E+01 -0.39845728043E+00  0.34349367366E+02  0.00000000000E+00 0.  1.
</event>
<event>
12    1  0.8358445E-002  0.1736859E+03  0.7818608E-02  0.1174731E+00
         21   -1    0    0  503  502  0.00000000000E+00  0.00000000000E+00  0.34610893144E+03  0.34610893144E+03  0.00000000000E+00 0.  1.
         21   -1    0    0  501  503 -0.00000000000E+00 -0.00000000000E+00 -0.13039262286E+03  0.13039262286E+03  0.00000000000E+00 0.  1.
          6    2    1    2  501    0  0.15865251257E+02 -0.33667904223E+01 -0.30857675339E+02  0.17640572732E+03  0.17292698756E+03 0.  0.
         24    2    3    3    0    0  0.95849638879E+01 -0.40387832509E+02 -0.75467664882E+02  0.11790666123E+03  0.80520579799E+02 0.  0.
         -6    2    1    2    0  502 -0.15865251257E+02  0.33667904223E+01  0.24657398391E+03  0.30009582698E+03  0.17028133883E+03 0.  0.
        -24    2    5    5    0    0  0.53938434544E+02  0.19427964937E+02  0.12936015921E+03  0.16264879507E+03  0.80210842192E+02 0.  0.
          5    1    3    3  501    0  0.62802873691E+01  0.37021042087E+02  0.44609989543E+02  0.58499066092E+02  0.47000000000E+01 0. -1.
        -13    1    4    4    0    0  0.45002686561E+02 -0.24749254810E+02 -0.36757229367E+02  0.63157432833E+02  0.00000000000E+00 0.  1.
         14    1    4    4    0    0 -0.35417722673E+02 -0.15638577699E+02 -0.38710435515E+02  0.54749228392E+02  0.00000000000E+00 0. -1.
         -5    1    5    5    0  502 -0.69803685801E+02 -0.16061174515E+02  0.11721382470E+03  0.13744703190E+03  0.47000000000E+01 0.  1.
         11    1    6    6    0    0 -0.17886279193E+01 -0.18671556791E+02  0.24696607385E+01  0.18918917702E+02  0.00000000000E+00 0. -1.
        -12    1    6    6    0    0  0.55727062464E+02  0.38099521728E+02  0.12689049847E+03  0.14372987737E+03  0.00000000000E+00 0.  1.
</event>
<event>
12    1  0.8358445E-002  0.2729373E+03  0.7818608E-02  0.1100204E+00
         21   -1    0    0  503  502  0.00000000000E+00  0.00000000000E+00  0.59075309028E+02  0.59075309028E+02  0.00000000000E+00 0. -1.
         21   -1    0    0  501  503 -0.00000000000E+00 -0.00000000000E+00 -0.12423199444E+04  0.12423199444E+04  0.00000000000E+00 0.  1.
          6    2    1    2  501    0  0.64018127916E+02 -0.19664523453E+03 -0.58311270599E+03  0.64382855482E+03  0.17812105757E+03 0.  0.
         24    2    3    3    0    0 -0.11608895852E+02 -0.21862675756E+02 -0.20003812266E+03  0.21600076707E+03  0.77642371194E+02 0.  0.
         -6    2    1    2    0  502 -0.64018127916E+02  0.19664523453E+03 -0.60013192935E+03  0.65756669858E+03  0.17166234732E+03 0.  0.
        -24    2    5    5    0    0 -0.80821853174E+02  0.19068956718E+03 -0.59938076531E+03  0.63911434362E+03  0.79467977307E+02 0.  0.
          5    1    3    3  501    0  0.75627023768E+02 -0.17478255877E+03 -0.38307458333E+03  0.42782778775E+03  0.47000000000E+01 0. -1.
        -11    1    4    4    0    0 -0.10024137114E+02 -0.39050375505E+02 -0.19331940855E+03  0.19747862891E+03  0.00000000000E+00 0.  1.
         12    1    4    4    0    0 -0.15847587371E+01  0.17187699750E+02 -0.67187141063E+01  0.18522138164E+02  0.00000000000E+00 0. -1.
         -5    1    5    5    0  502  0.16803725258E+02  0.59556673459E+01 -0.75116404299E+00  0.18452354958E+02  0.47000000000E+01 0.  1.
         11    1    6    6    0    0 -0.18028240517E+02  0.21703191353E+02 -0.27140727508E+02  0.39149266413E+02  0.00000000000E+00 0. -1.
        -12    1    6    6    0    0 -0.62793612657E+02  0.16898637583E+03 -0.57224003780E+03  0.59996507720E+03  0.00000000000E+00 0.  1.
</event>
<event>
12    1  0.8358445E-002  0.1898324E+03  0.7818608E-02  0.1159201E+00
         21   -1    0    0  501  502  0.00000000000E+00  0.00000000000E+00  0.80960949345E+02  0.80960949345E+02  0.00000000000E+00 0.  1.
         21   -1    0    0  502  503 -0.00000000000E+00 -0.00000000000E+00 -0.66762316989E+03  0.66762316989E+03  0.00000000000E+00 0.  1.
         -6    2    1    2    0  503 -0.65512266255E+02  0.40288725649E+02 -0.51100599960E+03  0.54423095134E+03  0.17071953116E+03 0.  0.
        -24    2    3    3    0    0 -0.83632050425E+01  0.10623692647E+02 -0.10205387377E+03  0.13021409105E+03  0.79736505518E+02 0.  0.
          6    2    1    2  501    0  0.65512266255E+02 -0.40288725649E+02 -0.75656220943E+02  0.20435316790E+03  0.17355493372E+03 0.  0.
         24    2    5    5    0    0  0.69993018032E+02  0.35065166731E+02 -0.59696571130E+02  0.12705448320E+03  0.80315456832E+02 0.  0.
          5    1    5    5  501    0 -0.44807517775E+01 -0.75353892380E+02 -0.15959649813E+02  0.77298684695E+02  0.47000000000E+01 0. -1.
        -11    1    6    6    0    0  0.81741233603E+02  0.11085216169E+02 -0.31715611172E+02  0.88376418124E+02  0.00000000000E+00 0.  1.
         12    1    6    6    0    0 -0.11748215571E+02  0.23979950562E+02 -0.27980959958E+02  0.38678065079E+02  0.00000000000E+00 0. -1.
         -5    1    3    3    0  503 -0.57149061212E+02  0.29665033003E+02 -0.40895212583E+03  0.41401686029E+03  0.47000000000E+01 0.  1.
         11    1    4    4    0    0  0.25696584164E+02  0.29249705662E+02 -0.69007243789E+02  0.79232943996E+02  0.00000000000E+00 0. -1.
        -12    1    4    4    0    0 -0.34059789206E+02 -0.18626013016E+02 -0.33046629980E+02  0.50981147051E+02  0.00000000000E+00 0.  1.
</event>
<event>
12    1  0.8358445E-002  0.1941711E+03  0.7818608E-02  0.1155138E+00
         21   -1    0    0  503  502  0.00000000000E+00  0.00000000000E+00  0.45515592423E+02  0.45515592423E+02  0.00000000000E+00 0. -1.
         21   -1    0    0  501  503 -0.00000000000E+00 -0.00000000000E+00 -0.82487205879E+03  0.82487205879E+03  0.00000000000E+00 0. -1.
          6    2    1    2  501    0 -0.39564447017E+02  0.74154623441E+02 -0.35765473620E+03  0.40613043980E+03  0.17309179691E+03 0.  0.
         24    2    3    3    0    0  0.37888285917E+02  0.54676025030E+02 -0.14004174512E+03  0.17427737097E+03  0.79598503342E+02 0.  0.
         -6    2    1    2    0  502  0.39564447017E+02 -0.74154623441E+02 -0.42170173016E+03  0.46425721141E+03  0.17503758305E+03 0.  0.
        -24    2    5    5    0    0  0.54662305761E+01 -0.47986848130E+02 -0.90608556193E+02  0.13035270309E+03  0.80307530640E+02 0.  0.
          5    1    3    3  501    0 -0.77452732934E+02  0.19478598412E+02 -0.21761299109E+03  0.23185306883E+03  0.47000000000E+01 0. -1.
        -13    1    4    4    0    0  0.19341548374E+02 -0.12191215983E+01 -0.10277170112E+03  0.10458300198E+03  0.00000000000E+00 0.  1.
         14    1    4    4    0    0  0.18546737543E+02  0.55895146628E+02 -0.37270043994E+02  0.69694368993E+02  0.00000000000E+00 0. -1.
         -5    1    5    5    0  502  0.34098216441E+02 -0.26167775312E+02 -0.33109317397E+03  0.33390450832E+03  0.47000000000E+01 0.  1.
         11    1    6    6    0    0  0.13239224470E+02 -0.56811337045E+02 -0.99684414873E+02  0.11549799847E+03  0.00000000000E+00 0. -1.
        -12    1    6    6    0    0 -0.77729938935E+01  0.88244889155E+01  0.90758586792E+01  0.14854704624E+02  0.00000000000E+00 0.  1.
</event>
<event>
12    1  0.8358445E-002  0.2132241E+03  0.7818608E-02  0.1139331E+00
         21   -1    0    0  501  502  0.00000000000E+00  0.00000000000E+00  0.15792499535E+03  0.15792499535E+03  0.00000000000E+00 0. -1.
         21   -1    0    0  502  503 -0.00000000000E+00 -0.00000000000E+00 -0.40102076303E+03  0.40102076303E+03  0.00000000000E+00 0. -1.
         -6    2    1    2    0  503 -0.14808147598E+01 -0.12486280291E+03 -0.27100675069E+03  0.34390264292E+03  0.17097209282E+03 0.  0.
        -24    2    3    3    0    0  0.41472355681E+02 -0.50265533573E+02 -0.22327596205E+03  0.24536307915E+03  0.78130053301E+02 0.  0.
          6    2    1    2  501    0  0.14808147598E+01  0.12486280291E+03  0.27910983007E+02  0.21504311546E+03  0.17283404228E+03 0.  0.
         24    2    5    5    0    0  0.67872288117E+02  0.90047470371E+02  0.28357304308E+02  0.13992837445E+03  0.77849976584E+02 0.  0.
          5    1    5    5  501    0 -0.66391473357E+02  0.34815332542E+02 -0.44632130129E+00  0.75114741012E+02  0.47000000000E+01 0. -1.
        -11    1    6    6    0    0  0.86391939349E+01 -0.67681009630E+01 -0.14866342824E+02  0.18478393097E+02  0.00000000000E+00 0.  1.
         12    1    6    6    0    0  0.59233094182E+02  0.96815571334E+02  0.43223647133E+02  0.12144998135E+03  0.00000000000E+00 0. -1.
         -5    1    3    3    0  503 -0.42953170441E+02 -0.74597269340E+02 -0.47730788642E+02  0.98539563771E+02  0.47000000000E+01 0.  1.
         13    1    4    4    0    0  0.29572486184E+02 -0.26064774239E+02 -0.21281821959E+03  0.21643821054E+03  0.00000000000E+00 0. -1.
        -14    1    4    4    0    0  0.11899869497E+02 -0.24200759334E+02 -0.10457742463E+02  0.28924868605E+02  0.00000000000E+00 0.  1.
</event>
<event>
12    1  0.8358445E-002  0.1879903E+03  0.7818608E-02  0.1160431E+00
         21   -1    0    0  503  502  0.00000000000E+00  0.00000000000E+00  0.23700605511E+03  0.23700605511E+03  0.00000000000E+00 0.  1.
         21   -1    0    0  501  503 -0.00000000000E+00 -0.00000000000E+00 -0.19449193403E+03  0.19449193403E+03  0.00000000000E+00 0. -1.
          6    2    1    2  501    0 -0.55821402828E+02 -0.44983568251E+02 -0.83502327370E+02  0.20570120290E+03  0.17378376154E+03 0.  0.
         24    2    3    3    0    0  0.40658535948E+01  0.10986595294E+02 -0.92520785079E+02  0.12310238167E+03  0.80354615677E+02 0.  0.
         -6    2    1    2    0  502  0.55821402828E+02  0.44983568251E+02  0.12601644845E+03  0.22579678624E+03  0.17310255044E+03 0.  0.
        -24    2    5    5    0    0  0.87707030677E+02 -0.15131859752E+02  0.94798616142E+02  0.15078211433E+03  0.76334605324E+02 0.  0.
          5    1    3    3  501    0 -0.59887256423E+02 -0.55970163545E+02  0.90184577082E+01  0.82598821230E+02  0.47000000000E+01 0. -1.
        -11    1    4    4    0    0 -0.25910269953E+02  0.34447690112E+02 -0.50909789824E+02  0.66706762349E+02  0.00000000000E+00 0.  1.
         12    1    4    4    0    0  0.29976123548E+02 -0.23461094818E+02 -0.41610995255E+02  0.56395619325E+02  0.00000000000E+00 0. -1.
         -5    1    5    5    0  502 -0.31885627849E+02  0.60115428003E+02  0.31217832313E+02  0.75014671909E+02  0.47000000000E+01 0.  1.
         11    1    6    6    0    0  0.64738915121E+02 -0.10782078501E+02  0.14585070551E+02  0.67231723397E+02  0.00000000000E+00 0. -1.
        -12    1    6    6    0    0  0.22968115555E+02 -0.43497812512E+01  0.80213545590E+02  0.83550390934E+02  0.00000000000E+00 0.  1.
</event>
<event>
12    1  0.8358445E-002  0.3092128E+03  0.7818608E-02  0.1080884E+00
         21   -1    0    0  503  502  0.00000000000E+00  0.00000000000E+00  0.23094264181E+03  0.23094264181E+03  0.00000000000E+00 0. -1.
         21   -1    0    0  501  503 -0.00000000000E+00 -0.00000000000E+00 -0.70221158453E+03  0.70221158453E+03  0.00000000000E+00 0. -1.
          6    2    1    2  501    0  0.24145795518E+03  0.83267271006E+02 -0.53576277804E+03  0.61859057982E+03  0.17429047183E+03 0.  0.
         24    2    3    3    0    0  0.24868956487E+03  0.38448233587E+02 -0.45641849574E+03  0.52705562787E+03  0.78390211649E+02 0.  0.
         -6    2    1    2    0  502 -0.24145795518E+03 -0.83267271006E+02  0.64493835321E+02  0.31456364652E+03  0.17191698687E+03 0.  0.
        -24    2    5    5    0    0 -0.24840688781E+03 -0.43003460093E+02  0.54193101754E+02  0.27216485826E+03  0.87072029408E+02 0.  0.
          5    1    3    3  501    0 -0.72316096891E+01  0.44819037420E+02 -0.79344282306E+02  0.91534951950E+02  0.47000000000E+01 0. -1.
        -11    1    4    4    0    0  0.90146805524E+02 -0.10234452121E+02 -0.22270615809E+03  0.24047707460E+03  0.00000000000E+00 0.  1.
         12    1    4    4    0    0  0.15854275935E+03  0.48682685708E+02 -0.23371233764E+03  0.28657855327E+03  0.00000000000E+00 0. -1.
         -5    1    5    5    0  502  0.69489326220E+01 -0.40263810913E+02  0.10300733567E+02  0.42398788259E+02  0.47000000000E+01 0.  1.
         13    1    6    6    0    0 -0.11017927992E+03  0.57540435270E+01  0.59779328483E+02  0.12548366768E+03  0.00000000000E+00 0. -1.
        -14    1    6    6    0    0 -0.13822760789E+03 -0.48757503620E+02 -0.55862267292E+01  0.14668119058E+03  0.00000000000E+00 0.  1.
</event>
<event>
12    1  0.8358445E-002  0.2021324E+03  0.7818608E-02  0.1147957E+00
         21   -1    0    0  501  502  0.00000000000E+00  0.00000000000E+00  0.10185317805E+04  0.10185317805E+04  0.00000000000E+00 0. -1.
         21   -1    0    0  502  503 -0.00000000000E+00 -0.00000000000E+00 -0.16812822702E+03  0.16812822702E+03  0.00000000000E+00 0. -1.
         -6    2    1    2    0  503  0.10476770941E+03  0.18106357602E+02 -0.92545297994E+02  0.22228972033E+03  0.17188360731E+03 0.  0.
        -24    2    3    3    0    0  0.48531952790E+02  0.10090450437E+02  0.26274307937E+02  0.90506171113E+02  0.71020138836E+02 0.  0.
          6    2    1    2  501    0 -0.10476770941E+03 -0.18106357602E+02  0.94294885148E+03  0.96437028720E+03  0.17191102702E+03 0.  0.
         24    2    5    5    0    0 -0.82984766968E+02  0.29995082771E+02  0.36455229955E+03  0.38354939706E+03  0.80159742605E+02 0.  0.
          5    1    5    5  501    0 -0.21782942444E+02 -0.48101440373E+02  0.57839655193E+03  0.58082089015E+03  0.47000000000E+01 0. -1.
        -11    1    6    6    0    0 -0.16125381213E+02  0.43849685783E+02  0.20017417487E+03  0.20555418543E+03  0.00000000000E+00 0.  1.
         12    1    6    6    0    0 -0.66859385756E+02 -0.13854603012E+02  0.16437812468E+03  0.17799521163E+03  0.00000000000E+00 0. -1.
         -5    1    3    3    0  503  0.56235756623E+02  0.80159071650E+01 -0.11881960593E+03  0.13178354922E+03  0.47000000000E+01 0.  1.
         13    1    4    4    0    0  0.22727799314E+02  0.14863125703E+02 -0.22403936630E+02  0.35205138031E+02  0.00000000000E+00 0. -1.
        -14    1    4    4    0    0  0.25804153477E+02 -0.47726752652E+01  0.48678244567E+02  0.55301033082E+02  0.00000000000E+00 0.  1.
</event>
<event>
12    1  0.8358445E-002  0.2214901E+03  0.7818608E-02  0.1132898E+00
         21   -1    0    0  501  502  0.00000000000E+00  0.00000000000E+00  0.46393981204E+02  0.46393981204E+02  0.00000000000E+00 0.  1.
         21   -1    0    0  502  503 -0.00000000000E+00 -0.00000000000E+00 -0.10587913636E+04  0.10587913636E+04  0.00000000000E+00 0. -1.
         -6    2    1    2    0  503 -0.26722972169E+02 -0.13638824459E+03 -0.54146867637E+03  0.58477038360E+03  0.17161644312E+03 0.  0.
        -24    2    3    3    0    0  0.13779781153E+02 -0.22562861089E+02 -0.12229926832E+03  0.14851154576E+03  0.79997519479E+02 0.  0.
          6    2    1    2  501    0  0.26722972169E+02  0.13638824459E+03 -0.47092870598E+03  0.52041496115E+03  0.17245873469E+03 0.  0.
         24    2    5    5    0    0 -0.28367778536E+02  0.22974838044E+02 -0.12867672371E+03  0.15564640307E+03  0.79596039613E+02 0.  0.
          5    1    5    5  501    0  0.55090750704E+02  0.11341340654E+03 -0.34225198227E+03  0.36476855808E+03  0.47000000000E+01 0. -1.
        -11    1    6    6    0    0 -0.38266993059E+02  0.33180329773E+02 -0.36625883119E+02  0.62504018718E+02  0.00000000000E+00 0.  1.
         12    1    6    6    0    0  0.98992145236E+01 -0.10205491728E+02 -0.92050840590E+02  0.93142384353E+02  0.00000000000E+00 0. -1.
         -5    1    3    3    0  503 -0.40502753321E+02 -0.11382538350E+03 -0.41916940805E+03  0.43625883785E+03  0.47000000000E+01 0.  1.
         13    1    4    4    0    0 -0.82745741580E+01  0.27702679511E+02 -0.49685903072E+02  0.57485615537E+02  0.00000000000E+00 0. -1.
        -14    1    4    4    0    0  0.22054355311E+02 -0.50265540600E+02 -0.72613365248E+02  0.91025930221E+02  0.00000000000E+00 0.  1.
</event>
<event>
12    1  0.8358445E-002  0.1865187E+03  0.7818608E-02  0.1161869E+00
         21   -1    0    0  503  502  0.00000000000E+00  0.00000000000E+00  0.18018638238E+04  0.18018638238E+04  0.00000000000E+00 0.  1.
         21   -1    0    0  501  503 -0.00000000000E+00 -0.00000000000E+00 -0.19340372966E+02  0.19340372966E+02  0.00000000000E+00 0.  1.
          6    2    1    2  501    0 -0.50526797742E+02  0.50555562864E+02  0.96509108542E+03  0.98276224001E+03  0.17120746187E+03 0.  0.
         24    2    3    3    0    0 -0.64130807433E+02 -0.25351791689E+02  0.63107390750E+03  0.63992618487E+03  0.80596349507E+02 0.  0.
         -6    2    1    2    0  502  0.50526797742E+02 -0.50555562864E+02  0.81743236536E+03  0.83844195671E+03  0.17228006443E+03 0.  0.
        -24    2    5    5    0    0 -0.11351749369E+02 -0.82073380756E+02  0.57600305579E+03  0.58718008344E+03  0.78332803262E+02 0.  0.
          5    1    3    3  501    0  0.13604009691E+02  0.75907354553E+02  0.33401717792E+03  0.34283605514E+03  0.47000000000E+01 0. -1.
        -13    1    4    4    0    0 -0.81266190345E+01  0.23021226119E+02  0.73163846863E+02  0.77129548661E+02  0.00000000000E+00 0.  1.
         14    1    4    4    0    0 -0.56004188398E+02 -0.48373017808E+02  0.55791006064E+03  0.56279663621E+03  0.00000000000E+00 0. -1.
         -5    1    5    5    0  502  0.61878547111E+02  0.31517817892E+02  0.24142930957E+03  0.25126187327E+03  0.47000000000E+01 0.  1.
         11    1    6    6    0    0  0.58646306702E+01  0.74401864349E+01  0.95943782627E+01  0.13483410597E+02  0.00000000000E+00 0. -1.
        -12    1    6    6    0    0 -0.17216380039E+02 -0.89513567191E+02  0.56640867753E+03  0.57369667284E+03  0.00000000000E+00 0.  1.
</event>
<event>
12    1  0.8358445E-002  0.1840940E+03  0.7818608E-02  0.1164193E+00
         21   -1    0    0  501  502  0.00000000000E+00  0.00000000000E+00  0.22114605244E+03  0.22114605244E+03  0.00000000000E+00 0. -1.
         21   -1    0    0  502  503 -0.00000000000E+00 -0.00000000000E+00 -0.16338480127E+03  0.16338480127E+03  0.00000000000E+00 0.  1.
         -6    2    1    2    0  503  0.50638413632E+02  0.23657669426E+02  0.79248146364E+02  0.20042675840E+03  0.17540434009E+03 0.  0.
        -24    2    3    3    0    0  0.30803153938E+02  0.37382594273E+02 -0.23487421195E+02  0.94792966781E+02  0.78024066477E+02 0.  0.
          6    2    1    2  501    0 -0.50638413632E+02 -0.23657669426E+02 -0.21486895187E+02  0.18410409531E+03  0.17409393151E+03 0.  0.
         24    2    5    5    0    0 -0.10994123939E+02 -0.61274995035E+02  0.32632010741E+02  0.10704775962E+03  0.80739574790E+02 0.  0.
          5    1    5    5  501    0 -0.39644289693E+02  0.37617325610E+02 -0.54118905927E+02  0.77056335691E+02  0.47000000000E+01 0. -1.
        -13    1    6    6    0    0 -0.35025896148E+02 -0.68366339739E+02  0.22764977620E+02  0.80118749468E+02  0.00000000000E+00 0.  1.
         14    1    6    6    0    0  0.24031772210E+02  0.70913447035E+01  0.98670331208E+01  0.26929010153E+02  0.00000000000E+00 0. -1.
         -5    1    3    3    0  503  0.19835259694E+02 -0.13724924848E+02  0.10273556756E+03  0.10563379161E+03  0.47000000000E+01 0.  1.
         13    1    4    4    0    0 -0.24496818576E+02  0.20004081802E+02  0.15178168679E+01  0.31663246472E+02  0.00000000000E+00 0. -1.
        -14    1    4    4    0    0  0.55299972514E+02  0.17378512472E+02 -0.25005238063E+02  0.63129720310E+02  0.00000000000E+00 0.  1.
</event>
<event>
12    1  0.8358445E-002  0.1789827E+03  0.7818608E-02  0.1169163E+00
         21   -1    0    0  501  502  0.00000000000E+00  0.00000000000E+00  0.16346899798E+03  0.16346899798E+03  0.00000000000E+00 0.  1.
         21   -1    0    0  502  503 -0.00000000000E+00 -0.00000000000E+00 -0.42671320857E+03  0.42671320857E+03  0.00000000000E+00 0.  1.
         -6    2    1    2    0  503 -0.26811048390E+02  0.44037667170E+02 -0.34914165100E+03  0.39165469464E+03  0.16980977276E+03 0.  0.
        -24    2    3    3    0    0 -0.61444395443E+02  0.14767852548E+02 -0.12146338673E+03  0.15945720801E+03  0.81729698828E+02 0.  0.
          6    2    1    2  501    0  0.26811048390E+02 -0.44037667170E+02  0.85897440408E+02  0.19852751191E+03  0.17139619095E+03 0.  0.
         24    2    5    5    0    0  0.29890529898E+02  0.27804341545E+02  0.88925889662E+02  0.12640248902E+03  0.80020311116E+02 0.  0.
          5    1    5    5  501    0 -0.30794815082E+01 -0.71842008715E+02 -0.30284492536E+01  0.72125022894E+02  0.47000000000E+01 0. -1.
        -11    1    6    6    0    0  0.30958575998E+02 -0.86513202869E+01  0.83571358162E+02  0.89540218202E+02  0.00000000000E+00 0.  1.
         12    1    6    6    0    0 -0.10680461000E+01  0.36455661832E+02  0.53545314999E+01  0.36862270815E+02  0.00000000000E+00 0. -1.
         -5    1    3    3    0  503  0.34633347053E+02  0.29269814622E+02 -0.22767826426E+03  0.23219748662E+03  0.47000000000E+01 0.  1.
         13    1    4    4    0    0 -0.11019769021E+02 -0.30317519530E+02 -0.59710806459E+02  0.67867280096E+02  0.00000000000E+00 0. -1.
        -14    1    4    4    0    0 -0.50424626423E+02  0.45085372078E+02 -0.61752580274E+02  0.91589927917E+02  0.00000000000E+00 0.  1.
</event>
<event>
12    1  0.8358445E-002  0.2071823E+03  0.7818608E-02  0.1144112E+00
         21   -1    0    0  503  502  0.00000000000E+00  0.00000000000E+00  0.43627127369E+03  0.43627127369E+03  0.00000000000E+00 0. -1.
         21   -1    0    0  501  503 -0.00000000000E+00 -0.00000000000E+00 -0.18613605662E+03  0.18613605662E+03  0.00000000000E+00 0. -1.
          6    2    1    2  501    0 -0.10300229484E+03 -0.47919066417E+02 -0.89672925547E+02  0.22441978820E+03  0.17151471684E+03 0.  0.
         24    2    3    3    0    0 -0.11523426428E+03 -0.19870142403E+02 -0.10832240393E+02  0.13971850811E+03  0.75697858969E+02 0.  0.
         -6    2    1    2    0  502  0.10300229484E+03  0.47919066417E+02  0.33980814262E+03  0.39798754211E+03  0.17325934379E+03 0.  0.
        -24    2    5    5    0    0  0.91302363496E+02 -0.29051112178E+02  0.24562356982E+03  0.27570050052E+03  0.80620960281E+02 0.  0.
          5    1    3    3  501    0  0.12231969437E+02 -0.28048924013E+02 -0.78840685154E+02  0.84701280097E+02  0.47000000000E+01 0. -1.
        -11    1    4    4    0    0 -0.27250038651E+02 -0.38700962335E+02 -0.14980343025E+02  0.49646145563E+02  0.00000000000E+00 0.  1.
         12    1    4    4    0    0 -0.87984225627E+02  0.18830819932E+02  0.41481026319E+01  0.90072362542E+02  0.00000000000E+00 0. -1.
         -5    1    5    5    0  502  0.11699931345E+02  0.76970178595E+02  0.94184572798E+02  0.12228704158E+03  0.47000000000E+01 0.  1.
         13    1    6    6    0    0  0.33761602685E+02  0.16613378102E+02  0.15259452409E+03  0.15716532356E+03  0.00000000000E+00 0. -1.
        -14    1    6    6    0    0  0.57540760811E+02 -0.45664490280E+02  0.93029045735E+02  0.11853517696E+03  0.00000000000E+00 0.  1.
</event>
<event>
12    1  0.8358445E-002  0.2195136E+03  0.7818608E-02  0.1134611E+00
         21   -1    0    0  501  502  0.00000000000E+00  0.00000000000E+00  0.57471725971E+03  0.57471725971E+03  0.00000000000E+00 0. -1.
         21   -1    0    0  502  503 -0.00000000000E+00 -0.00000000000E+00 -0.11877847114E+03  0.11877847114E+03  0.00000000000E+00 0.  1.
         -6    2    1    2    0  503  0.16506740725E+02 -0.13192587344E+03  0.38646618564E+02  0.22288960485E+03  0.17466913366E+03 0.  0.
        -24    2    3    3    0    0 -0.52214518371E+02 -0.70042554941E+02 -0.97522250298E+01  0.11840661762E+03  0.79326576703E+02 0.  0.
          6    2    1    2  501    0 -0.16506740725E+02  0.13192587344E+03  0.41729217001E+03  0.47060612599E+03  0.17222213012E+03 0.  0.
         24    2    5    5    0    0  0.56380355001E+02  0.78103007891E+02  0.27981870590E+03  0.30589282079E+03  0.77415020275E+02 0.  0.
          5    1    5    5  501    0 -0.72887095727E+02  0.53822865545E+02  0.13747346410E+03  0.16471330521E+03  0.47000000000E+01 0. -1.
        -13    1    6    6    0    0  0.28184041696E+02  0.58308018515E+02  0.79057515615E+02  0.10219714284E+03  0.00000000000E+00 0.  1.
         14    1    6    6    0    0  0.28196313305E+02  0.19794989376E+02  0.20076119029E+03  0.20369567795E+03  0.00000000000E+00 0. -1.
         -5    1    3    3    0  503  0.68721259097E+02 -0.61883318496E+02  0.48398843594E+02  0.10448298723E+03  0.47000000000E+01 0.  1.
         11    1    4    4    0    0 -0.70320171440E+02 -0.38855542612E+02  0.23297921072E+01  0.80374794770E+02  0.00000000000E+00 0. -1.
        -12    1    4    4    0    0  0.18105653069E+02 -0.31187012329E+02 -0.12082017137E+02  0.38031822848E+02  0.00000000000E+00 0.  1.
</event>
<event>
12    1  0.8358445E-002  0.1807764E+03  0.7818608E-02  0.1167333E+00
         21   -1    0    0  501  502  0.00000000000E+00  0.00000000000E+00  0.11801304903E+03  0.11801304903E+03  0.00000000000E+00 0.  1.
         21   -1    0    0  502  503 -0.00000000000E+00 -0.00000000000E+00 -0.46284622086E+03  0.46284622086E+03  0.00000000000E+00 0.  1.
         -6    2    1    2    0  503 -0.21396542536E+02 -0.45022749214E+02 -0.35769127134E+03  0.40077820427E+03  0.17376784355E+03 0.  0.
        -24    2    3    3    0    0 -0.99994636327E+01 -0.12543282090E+02 -0.60111770134E+02  0.10117770573E+03  0.79788345200E+02 0.  0.
          6    2    1    2  501    0  0.21396542536E+02  0.45022749214E+02  0.12858099504E+02  0.18008106561E+03  0.17256592795E+03 0.  0.
         24    2    5    5    0    0 -0.32243327585E+02  0.73973151202E+02 -0.15443985787E+02  0.11271297618E+03  0.77162419804E+02 0.  0.
          5    1    5    5  501    0  0.53639870121E+02 -0.28950401987E+02  0.28302085291E+02  0.67368089432E+02  0.47000000000E+01 0. -1.
        -11    1    6    6    0    0  0.12451655153E+02  0.68518241021E+01  0.20074854181E+02  0.24596564393E+02  0.00000000000E+00 0.  1.
         12    1    6    6    0    0 -0.44694982738E+02  0.67121327099E+02 -0.35518839968E+02  0.88116411787E+02  0.00000000000E+00 0. -1.
         -5    1    3    3    0  503 -0.11397078903E+02 -0.32479467124E+02 -0.29757950120E+03  0.29960049854E+03  0.47000000000E+01 0.  1.
         13    1    4    4    0    0  0.34637618700E+02 -0.85758903184E+01 -0.19313794905E+02  0.40575031702E+02  0.00000000000E+00 0. -1.
        -14    1    4    4    0    0 -0.44637082333E+02 -0.39673917718E+01 -0.40797975229E+02  0.60602674029E+02  0.00000000000E+00 0.  1.
</event>
<event>
12    1  0.8358445E-002  0.3751069E+03  0.7818608E-02  0.1052790E+00
         21   -1    0    0  501  502  0.00000000000E+00  0.00000000000E+00  0.30222145156E+03  0.30222145156E+03  0.00000000000E+00 0.  1.
         21   -1    0    0  502  503 -0.00000000000E+00 -0.00000000000E+00 -0.80372631896E+03  0.80372631896E+03  0.00000000000E+00 0. -1.
         -6    2    1    2    0  503 -0.31728565265E+03 -0.10415767314E+03  0.10809309081E+03  0.39037071452E+03  0.17083960963E+03 0.  0.
        -24    2    3    3    0    0 -0.22137397721E+03 -0.38692344097E+02  0.10016475145E+02  0.23829878636E+03  0.78628535088E+02 0.  0.
          6    2    1    2  501    0  0.31728565265E+03  0.10415767314E+03 -0.60959795821E+03  0.71557705600E+03  0.17006424130E+03 0.  0.
         24    2    5    5    0    0  0.23945692978E+03  0.13729498849E+03 -0.50625174851E+03  0.58194352416E+03  0.78599601516E+02 0.  0.
          5    1    5    5  501    0  0.77828722872E+02 -0.33137315355E+02 -0.10334620970E+03  0.13363353184E+03  0.47000000000E+01 0. -1.
        -11    1    6    6    0    0 -0.34916316167E+00 -0.67989787958E+01 -0.17604106470E+02  0.18874654757E+02  0.00000000000E+00 0.  1.
         12    1    6    6    0    0  0.23980609294E+03  0.14409396729E+03 -0.48864764204E+03  0.56306886940E+03  0.00000000000E+00 0. -1.
         -5    1    3    3    0  503 -0.95911675440E+02 -0.65465329039E+02  0.98076615664E+02  0.15207192815E+03  0.47000000000E+01 0.  1.
         11    1    4    4    0    0 -0.17946568594E+03  0.12379136958E+01  0.15588778151E+02  0.18014570454E+03  0.00000000000E+00 0. -1.
        -12    1    4    4    0    0 -0.41908291269E+02 -0.39930257793E+02 -0.55723030067E+01  0.58153081821E+02  0.00000000000E+00 0.  1.
</event>
<event>
12    1  0.8358445E-002  0.1820885E+03  0.7818608E-02  0.1165867E+00
         21   -1    0    0  501  502  0.00000000000E+00  0.00000000000E+00  0.18852996398E+03  0.18852996398E+03  0.00000000000E+00 0.  1.
         21   -1    0    0  502  503 -0.00000000000E+00 -0.00000000000E+00 -0.22619925115E+03  0.22619925115E+03  0.00000000000E+00 0.  1.
         -6    2    1    2    0  503  0.35307139033E+02 -0.45946147914E+02 -0.11691539324E+03  0.21614375588E+03  0.17231155346E+03 0.  0.
        -24    2    3    3    0    0  0.69699212295E+02 -0.77174745192E+02 -0.10450554729E+03  0.16783087698E+03  0.80198954873E+02 0.  0.
          6    2    1    2  501    0 -0.35307139033E+02  0.45946147914E+02  0.79246106071E+02  0.19858545926E+03  0.17262270050E+03 0.  0.
         24    2    5    5    0    0 -0.82135648444E+01  0.77291905246E+02  0.10137175347E+03  0.15138108936E+03  0.81231155048E+02 0.  0.
          5    1    5    5  501    0 -0.27093574188E+02 -0.31345757331E+02 -0.22125647396E+02  0.47204369900E+02  0.47000000000E+01 0. -1.
        -13    1    6    6    0    0  0.31737068854E+02  0.31236597248E+02  0.69611754127E+02  0.82636328935E+02  0.00000000000E+00 0.  1.
         14    1    6    6    0    0 -0.39950633699E+02  0.46055307998E+02  0.31759999339E+02  0.68744760424E+02  0.00000000000E+00 0. -1.
         -5    1    3    3    0  503 -0.34392073262E+02  0.31228597278E+02 -0.12409845950E+02  0.48312878901E+02  0.47000000000E+01 0.  1.
         11    1    4    4    0    0  0.14722701225E+02 -0.48771878689E+02 -0.57216587717E+01  0.51265889842E+02  0.00000000000E+00 0. -1.
        -12    1    4    4    0    0  0.54976511070E+02 -0.28402866503E+02 -0.98783888519E+02  0.11656498714E+03  0.00000000000E+00 0.  1.
</event>
<event>
12    1  0.8358445E-002  0.2398821E+03  0.7818608E-02  0.1119936E+00
         21   -1    0    0  503  502  0.00000000000E+00  0.00000000000E+00  0.63909217630E+02  0.63909217630E+02  0.00000000000E+00 0. -1.
         21   -1    0    0  501  503 -0.00000000000E+00 -0.00000000000E+00 -0.21503232241E+04  0.21503232241E+04  0.00000000000E+00 0.  1.
          6    2    1    2  501    0  0.46221861283E+02 -0.16043833437E+03 -0.18881282298E+04  0.19033054530E+04  0.17223970433E+03 0.  0.
         24    2    3    3    0    0 -0.43507499506E+02 -0.65816725401E+02 -0.96869202210E+03  0.97465609127E+03  0.73249701015E+02 0.  0.
         -6    2    1    2    0  502 -0.46221861283E+02  0.16043833437E+03 -0.19828577666E+03  0.31092698870E+03  0.17170155351E+03 0.  0.
        -24    2    5    5    0    0 -0.92593885288E+00  0.10066018654E+02 -0.10234761789E+03  0.12683523377E+03  0.74229101736E+02 0.  0.
          5    1    3    3  501    0  0.89729360789E+02 -0.94621608968E+02 -0.91943620772E+03  0.92864936178E+03  0.47000000000E+01 0. -1.
        -11    1    4    4    0    0 -0.46696831587E+01 -0.65918789270E+02 -0.70942526713E+03  0.71249652796E+03  0.00000000000E+00 0.  1.
         12    1    4    4    0    0 -0.38837816347E+02  0.10206386880E+00 -0.25926675498E+03  0.26215956330E+03  0.00000000000E+00 0. -1.
         -5    1    5    5    0  502 -0.45295922430E+02  0.15037231572E+03 -0.95938158774E+02  0.18409175492E+03  0.47000000000E+01 0.  1.
         13    1    6    6    0    0 -0.27591647186E+02 -0.19297041675E+02 -0.34251445880E+02  0.48029536295E+02  0.00000000000E+00 0. -1.
        -14    1    6    6    0    0  0.26665708333E+02  0.29363060329E+02 -0.68096172008E+02  0.78805697478E+02  0.00000000000E+00 0.  1.
</event>
<event>
12    1  0.8358445E-002  0.2633920E+03  0.7818608E-02  0.1105201E+00
         21   -1    0    0  501  502  0.00000000000E+00  0.00000000000E+00  0.35511324734E+02  0.35511324734E+02  0.00000000000E+00 0. -1.
         21   -1    0    0  502  503 -0.00000000000E+00 -0.00000000000E+00 -0.19516403609E+04  0.19516403609E+04  0.00000000000E+00 0. -1.
         -6    2    1    2    0  503 -0.10241329315E+03  0.17214448910E+03 -0.92555723663E+03  0.96216005466E+03  0.17021622945E+03 0.  0.
        -24    2    3    3    0    0 -0.16778236508E+02  0.15344450616E+03 -0.56443124791E+03  0.59051893474E+03  0.79393028521E+02 0.  0.
          6    2    1    2  501    0  0.10241329315E+03 -0.17214448910E+03 -0.99057179957E+03  0.10249916310E+04  0.17103551031E+03 0.  0.
         24    2    5    5    0    0  0.47371528726E+02 -0.10533819491E+02 -0.38011698862E+03  0.39109513269E+03  0.78175793508E+02 0.  0.
          5    1    5    5  501    0  0.55041764424E+02 -0.16161066961E+03 -0.61045481095E+03  0.63389649831E+03  0.47000000000E+01 0. -1.
        -11    1    6    6    0    0  0.63680824904E+02  0.94927509595E+01 -0.30310301975E+03  0.30986577798E+03  0.00000000000E+00 0.  1.
         12    1    6    6    0    0 -0.16309296178E+02 -0.20026570451E+02 -0.77013968873E+02  0.81229354715E+02  0.00000000000E+00 0. -1.
         -5    1    3    3    0  503 -0.85635056642E+02  0.18699982940E+02 -0.36112598872E+03  0.37164111992E+03  0.47000000000E+01 0.  1.
         13    1    4    4    0    0 -0.28498141143E+02  0.14883801735E+03 -0.43825395975E+03  0.46371481828E+03  0.00000000000E+00 0. -1.
        -14    1    4    4    0    0  0.11719904635E+02  0.46064888170E+01 -0.12617728816E+03  0.12680411646E+03  0.00000000000E+00 0.  1.
</event>
<event>
12    1  0.8358445E-002  0.1855107E+03  0.7818608E-02  0.1162709E+00
         21   -1    0    0  503  502  0.00000000000E+00  0.00000000000E+00  0.14812003823E+03  0.14812003823E+03  0.00000000000E+00 0.  1.
         21   -1    0    0  501  503 -0.00000000000E+00 -0.00000000000E+00 -0.25309766096E+03  0.25309766096E+03  0.00000000000E+00 0. -1.
          6    2    1    2  501    0  0.61313219463E+02 -0.29005891950E+02 -0.11086184077E+03  0.21561372790E+03  0.17204150451E+03 0.  0.
         24    2    3    3    0    0  0.39197967362E+02 -0.74346249687E+02 -0.11785318552E+03  0.16446882281E+03  0.78081847140E+02 0.  0.
         -6    2    1    2    0  502 -0.61313219463E+02  0.29005891950E+02  0.58842180384E+01  0.18560397128E+03  0.17266602875E+03 0.  0.
        -24    2    5    5    0    0 -0.24853252523E+02 -0.48860696568E+02 -0.14495376630E+02  0.97116951466E+02  0.78845002938E+02 0.  0.
          5    1    3    3  501    0  0.22115252101E+02  0.45340357737E+02  0.69913447518E+01  0.51144905090E+02  0.47000000000E+01 0. -1.
        -11    1    4    4    0    0 -0.13930218296E+02 -0.43913431085E+02 -0.80489345325E+02  0.92741442313E+02  0.00000000000E+00 0.  1.
         12    1    4    4    0    0  0.53128185659E+02 -0.30432818602E+02 -0.37363840194E+02  0.71727380500E+02  0.00000000000E+00 0. -1.
         -5    1    5    5    0  502 -0.36459966941E+02  0.77866588518E+02  0.20379594668E+02  0.88487019814E+02  0.47000000000E+01 0.  1.
         13    1    6    6    0    0 -0.34978461747E+01  0.74888925025E+01 -0.33047371331E+02  0.34065337084E+02  0.00000000000E+00 0. -1.
        -14    1    6    6    0    0 -0.21355406348E+02 -0.56349589071E+02  0.18551994701E+02  0.63051614381E+02  0.00000000000E+00 0.  1.
</event>
<event>
12    1  0.8358445E-002  0.3301501E+03  0.7818608E-02  0.1071213E+00
         21   -1    0    0  503  502  0.00000000000E+00  0.00000000000E+00  0.11493887365E+03  0.11493887365E+03  0.00000000000E+00 0. -1.
         21   -1    0    0  501  503 -0.00000000000E+00 -0.00000000000E+00 -0.96958476903E+03  0.96958476903E+03  0.00000000000E+00 0.  1.
          6    2    1    2  501    0  0.19845145510E+03  0.19759692182E+03 -0.34115282583E+03  0.47474657139E+03  0.17484717020E+03 0.  0.
         24    2    3    3    0    0  0.60893160988E+02  0.53516312752E+02 -0.21008577576E+03  0.23624674371E+03  0.71445909270E+02 0.  0.
         -6    2    1    2    0  502 -0.19845145510E+03 -0.19759692182E+03 -0.51349306954E+03  0.60977707129E+03  0.17241061643E+03 0.  0.
        -24    2    5    5    0    0 -0.16560067471E+02 -0.60986305517E+02 -0.14046348529E+03  0.17283302669E+03  0.78407264462E+02 0.  0.
          5    1    3    3  501    0  0.13755829411E+03  0.14408060907E+03 -0.13106705008E+03  0.23849982768E+03  0.47000000000E+01 0. -1.
        -11    1    4    4    0    0  0.24619832981E+02 -0.16187649298E+02 -0.55516707753E+02  0.62851260970E+02  0.00000000000E+00 0.  1.
         12    1    4    4    0    0  0.36273328007E+02  0.69703962050E+02 -0.15456906800E+03  0.17339548274E+03  0.00000000000E+00 0. -1.
         -5    1    5    5    0  502 -0.18189138763E+03 -0.13661061630E+03 -0.37302958426E+03  0.43694404460E+03  0.47000000000E+01 0.  1.
         13    1    6    6    0    0 -0.29422832527E+02 -0.14973860843E+02 -0.10940646758E+02  0.34779553389E+02  0.00000000000E+00 0. -1.
        -14    1    6    6    0    0  0.12862765056E+02 -0.46012444674E+02 -0.12952283853E+03  0.13805347330E+03  0.00000000000E+00 0.  1.
</event>
<event>
12    1  0.8358445E-002  0.1790005E+03  0.7818608E-02  0.1168963E+00
         21   -1    0    0  503  502  0.00000000000E+00  0.00000000000E+00  0.35855003856E+03  0.35855003856E+03  0.00000000000E+00 0.  1.
         21   -1    0    0  501  503 -0.00000000000E+00 -0.00000000000E+00 -0.12779700873E+03  0.12779700873E+03  0.00000000000E+00 0.  1.
          6    2    1    2  501    0  0.33858063675E+02  0.31389944928E+02  0.24957430495E+03  0.30712945394E+03  0.17294354762E+03 0.  0.
         24    2    3    3    0    0 -0.25747009978E+02 -0.31842999744E+02  0.90628794064E+02  0.12591980869E+03  0.77235579574E+02 0.  0.
         -6    2    1    2    0  502 -0.33858063675E+02 -0.31389944928E+02 -0.18821275117E+02  0.17921759336E+03  0.17214240690E+03 0.  0.
        -24    2    5    5    0    0 -0.35214246281E+01  0.52777143483E+00  0.54024688894E+02  0.93966923217E+02  0.76801280423E+02 0.  0.
          5    1    3    3  501    0  0.59605073653E+02  0.63232944672E+02  0.15894551089E+03  0.18120964524E+03  0.47000000000E+01 0. -1.
        -13    1    4    4    0    0  0.11614400541E+02 -0.74945017164E+01 -0.91855763044E+01  0.16596284764E+02  0.00000000000E+00 0.  1.
         14    1    4    4    0    0 -0.37361410520E+02 -0.24348498028E+02  0.99814370369E+02  0.10932352393E+03  0.00000000000E+00 0. -1.
         -5    1    5    5    0  502 -0.30336639047E+02 -0.31917716363E+02 -0.72845964011E+02  0.85250670139E+02  0.47000000000E+01 0.  1.
         13    1    6    6    0    0  0.24445343809E+02 -0.22683125352E+02  0.62326755340E+01  0.33925584062E+02  0.00000000000E+00 0. -1.
        -14    1    6    6    0    0 -0.27966768437E+02  0.23210896786E+02  0.47792013360E+02  0.60041339154E+02  0.00000000000E+00 0.  1.
</event>
<event>
12    1  0.8358445E-002  0.2347997E+03  0.7818608E-02  0.1123525E+00
         21   -1    0    0  501  502  0.00000000000E+00  0.00000000000E+00  0.18631273819E+04  0.18631273819E+04  0.00000000000E+00 0. -1.
         21   -1    0    0  502  503 -0.00000000000E+00 -0.00000000000E+00 -0.43213218132E+02  0.43213218132E+02  0.00000000000E+00 0.  1.
         -6    2    1    2    0  503  0.73478690575E+02 -0.14098324603E+03  0.37333203272E+03  0.44103027194E+03  0.17278744306E+03 0.  0.
        -24    2    3    3    0    0  0.11240390626E+03 -0.76995890496E+02  0.27744814421E+03  0.31927081990E+03  0.79958604395E+02 0.  0.
          6    2    1    2  501    0 -0.73478690575E+02  0.14098324603E+03  0.14465821311E+04  0.14653103281E+04  0.17105292201E+03 0.  0.
         24    2    5    5    0    0  0.14937371782E+00  0.11750451837E+03  0.11468087487E+04  0.11557000679E+04  0.81639491134E+02 0.  0.
          5    1    5    5  501    0 -0.73628064293E+02  0.23478727670E+02  0.29977338234E+03  0.30961026027E+03  0.47000000000E+01 0. -1.
        -13    1    6    6    0    0  0.31796966426E+02  0.55490385788E+02  0.34527302459E+03  0.35114625371E+03  0.00000000000E+00 0.  1.
         14    1    6    6    0    0 -0.31647592708E+02  0.62014132577E+02  0.80153572415E+03  0.80455381414E+03  0.00000000000E+00 0. -1.
         -5    1    3    3    0  503 -0.38925215687E+02 -0.63987355538E+02  0.95883888517E+02  0.12175945204E+03  0.47000000000E+01 0.  1.
         11    1    4    4    0    0  0.89804629159E+02 -0.93259322809E+02  0.21639442181E+03  0.25216803623E+03  0.00000000000E+00 0. -1.
        -12    1    4    4    0    0  0.22599277103E+02  0.16263432313E+02  0.61053722400E+02  0.67102783661E+02  0.00000000000E+00 0.  1.
</event>
<event>
12    1  0.8358445E-002  0.1901424E+03  0.7818608E-02  0.1158654E+00
         21   -1    0    0  503  502  0.00000000000E+00  0.00000000000E+00  0.40145800311E+03  0.40145800311E+03  0.00000000000E+00 0. -1.
         21   -1    0    0  501  503 -0.00000000000E+00 -0.00000000000E+00 -0.11610360413E+03  0.11610360413E+03  0.00000000000E+00 0. -1.
          6    2    1    2  501    0 -0.33615366355E+02  0.70934579127E+02  0.18124597591E+02  0.18958918462E+03  0.17162124144E+03 0.  0.
         24    2    3    3    0    0 -0.72663553781E+02  0.64024281570E+02  0.52436222552E+02  0.13694043571E+03  0.81388112270E+02 0.  0.
         -6    2    1    2    0  502  0.33615366355E+02 -0.70934579127E+02  0.26722980139E+03  0.32797242262E+03  0.17318324364E+03 0.  0.
        -24    2    5    5    0    0 -0.34516553651E+02  0.86321546304E-01  0.93386078202E+02  0.12814835763E+03  0.80682352686E+02 0.  0.
          5    1    3    3  501    0  0.39048187427E+02  0.69102975564E+01 -0.34311624961E+02  0.52648748904E+02  0.47000000000E+01 0. -1.
        -13    1    4    4    0    0 -0.28289277479E+02 -0.17007659838E+02  0.22006954663E+02  0.39671775446E+02  0.00000000000E+00 0.  1.
         14    1    4    4    0    0 -0.44374276302E+02  0.81031941409E+02  0.30429267889E+02  0.97268660267E+02  0.00000000000E+00 0. -1.
         -5    1    5    5    0  502  0.68131920006E+02 -0.71020900673E+02  0.17384372319E+03  0.19982406499E+03  0.47000000000E+01 0.  1.
         13    1    6    6    0    0  0.29649249386E+01  0.35144870573E+01  0.90264136962E+02  0.90381175146E+02  0.00000000000E+00 0. -1.
        -14    1    6    6    0    0 -0.37481478590E+02 -0.34281655110E+01  0.31219412402E+01  0.37767182489E+02  0.00000000000E+00 0.  1.
</event>
<event>
12    1  0.8358445E-002  0.1958230E+03  0.7818608E-02  0.1154086E+00
         21   -1    0    0  503  502  0.00000000000E+00  0.00000000000E+00  0.28931362439E+03  0.28931362439E+03  0.00000000000E+00 0. -1.
         21   -1    0    0  501  503 -0.00000000000E+00 -0.00000000000E+00 -0.13143285083E+03  0.13143285083E+03  0.00000000000E+00 0.  1.
          6    2    1    2  501    0 -0.76375672947E+02 -0.65317951531E+02  0.57530856639E+02  0.20070841170E+03  0.16393409912E+03 0.  0.
         24    2    3    3    0    0 -0.69482943577E+02 -0.39092269442E+02 -0.23778880125E+02  0.11486751579E+03  0.79202437242E+02 0.  0.
         -6    2    1    2    0  502  0.76375672947E+02  0.65317951531E+02  0.10034991692E+03  0.22003806352E+03  0.16806833540E+03 0.  0.
        -24    2    5    5    0    0  0.77013583703E+02 -0.10489842851E+02  0.10381885747E+03  0.14400286005E+03  0.62588654383E+02 0.  0.
          5    1    3    3  501    0 -0.68927293700E+01 -0.26225682089E+02  0.81309736764E+02  0.85840895917E+02  0.47000000000E+01 0. -1.
        -13    1    4    4    0    0 -0.70956081690E+02 -0.55495912654E+02 -0.54784616954E+01  0.90247301304E+02  0.00000000000E+00 0.  1.
         14    1    4    4    0    0  0.14731381134E+01  0.16403643212E+02 -0.18300418430E+02  0.24620214484E+02  0.00000000000E+00 0. -1.
         -5    1    5    5    0  502 -0.63791075661E+00  0.75807794382E+02 -0.34689405496E+01  0.76035203476E+02  0.47000000000E+01 0.  1.
         13    1    6    6    0    0  0.51015897221E+02 -0.26463329595E+02  0.96984750239E+02  0.11273407365E+03  0.00000000000E+00 0. -1.
        -14    1    6    6    0    0  0.25997686482E+02  0.15973486744E+02  0.68341072319E+01  0.31268786399E+02  0.00000000000E+00 0.  1.
</event>
<event>
12    1  0.8358445E-002  0.1751982E+03  0.7818608E-02  0.1172859E+00
         21   -1    0    0  501  502  0.00000000000E+00  0.00000000000E+00  0.15218664260E+03  0.15218664260E+03  0.00000000000E+00 0. -1.
         21   -1    0    0  502  503 -0.00000000000E+00 -0.00000000000E+00 -0.32978890598E+03  0.32978890598E+03  0.00000000000E+00 0. -1.
         -6    2    1    2    0  503 -0.35310606374E+02  0.83641626060E+01 -0.23966331787E+03  0.29611009206E+03  0.17007610810E+03 0.  0.
        -24    2    3    3    0    0 -0.47847462907E+02 -0.17233277659E+02 -0.24853146827E+03  0.26589195493E+03  0.79650959899E+02 0.  0.
          6    2    1    2  501    0  0.35310606374E+02 -0.83641626060E+01  0.62061054495E+02  0.18586545652E+03  0.17139893612E+03 0.  0.
         24    2    5    5    0    0 -0.14559304346E+02  0.41841423950E+02  0.69617121975E+02  0.11454369917E+03  0.79442037016E+02 0.  0.
          5    1    5    5  501    0  0.49869910719E+02 -0.50205586556E+02 -0.75560674805E+01  0.71321757356E+02  0.47000000000E+01 0. -1.
        -11    1    6    6    0    0  0.12809846270E+02  0.30169801150E+02 -0.59658023656E+01  0.33315159624E+02  0.00000000000E+00 0.  1.
         12    1    6    6    0    0 -0.27369150615E+02  0.11671622799E+02  0.75582924341E+02  0.81228539542E+02  0.00000000000E+00 0. -1.
         -5    1    3    3    0  503  0.12536856533E+02  0.25597440265E+02  0.88681503968E+01  0.30218137125E+02  0.47000000000E+01 0.  1.
         13    1    4    4    0    0 -0.24264766599E+02 -0.41684236161E+02 -0.20541150746E+03  0.21099820340E+03  0.00000000000E+00 0. -1.
        -14    1    4    4    0    0 -0.23582696308E+02  0.24450958502E+02 -0.43119960807E+02  0.54893751528E+02  0.00000000000E+00 0.  1.
</event>
<event>
12    1  0.8358445E-002  0.2238958E+03  0.7818608E-02  0.1131212E+00
         21   -1    0    0  503  502  0.00000000000E+00  0.00000000000E+00  0.43572432908E+02  0.43572432908E+02  0.00000000000E+00 0. -1.
         21   -1    0    0  501  503 -0.00000000000E+00 -0.00000000000E+00 -0.14798692151E+04  0.14798692151E+04  0.00000000000E+00 0. -1.
          6    2    1    2  501    0  0.90067316910E+02  0.11442033632E+03 -0.35709089757E+03  0.42147745156E+03  0.17007409595E+03 0.  0.
         24    2    3    3    0    0 -0.15638630425E+02  0.29692424810E+02 -0.11714553234E+03  0.14589001610E+03  0.80216047012E+02 0.  0.
         -6    2    1    2    0  502 -0.90067316910E+02 -0.11442033632E+03 -0.10792058846E+04  0.11019641965E+04  0.16862862718E+03 0.  0.
        -24    2    5    5    0    0 -0.10050518156E+03 -0.13966726449E+03 -0.88034342095E+03  0.90117892343E+03  0.86664161793E+02 0.  0.
          5    1    3    3  501    0  0.10570594733E+03  0.84727911506E+02 -0.23994536523E+03  0.27558743546E+03  0.47000000000E+01 0. -1.
        -13    1    4    4    0    0 -0.34246777398E+02  0.18044027956E+02 -0.11772832592E+03  0.12392896122E+03  0.00000000000E+00 0.  1.
         14    1    4    4    0    0  0.18608146973E+02  0.11648396855E+02  0.58279357400E+00  0.21961054879E+02  0.00000000000E+00 0. -1.
         -5    1    5    5    0  502  0.10437864649E+02  0.25246928170E+02 -0.19886246370E+03  0.20078527304E+03  0.47000000000E+01 0.  1.
         13    1    6    6    0    0 -0.66036574286E+02 -0.74932805938E+02 -0.69007296628E+03  0.69726354655E+03  0.00000000000E+00 0. -1.
        -14    1    6    6    0    0 -0.34468607273E+02 -0.64734458549E+02 -0.19027045467E+03  0.20391537688E+03  0.00000000000E+00 0.  1.
</event>
<event>
12    1  0.8358445E-002  0.1976617E+03  0.7818608E-02  0.1154388E+00
         21   -1    0    0  503  502  0.00000000000E+00  0.00000000000E+00  0.38846734563E+03  0.38846734563E+03  0.00000000000E+00 0.  1.
         21   -1    0    0  501  503 -0.00000000000E+00 -0.00000000000E+00 -0.96684677017E+02  0.96684677017E+02  0.00000000000E+00 0.  1.
          6    2    1    2  501    0 -0.63792736576E+02 -0.12707719961E+02  0.11438162611E+03  0.22837095049E+03  0.18665244507E+03 0.  0.
         24    2    3    3    0    0 -0.64023666284E+02  0.61193003643E+02  0.45356614172E+02  0.12713897653E+03  0.79142171854E+02 0.  0.
         -6    2    1    2    0  502  0.63792736576E+02  0.12707719961E+02  0.17740104250E+03  0.25678107216E+03  0.17388038921E+03 0.  0.
        -24    2    5    5    0    0  0.83318235068E+02  0.44673091677E+02  0.18145461523E+03  0.21881330251E+03  0.77562043234E+02 0.  0.
          5    1    3    3  501    0  0.23092970822E+00 -0.73900723604E+02  0.69025011940E+02  0.10123197396E+03  0.47000000000E+01 0. -1.
        -13    1    4    4    0    0 -0.64454049835E+02  0.49302638588E+02  0.65136096584E+02  0.10405664702E+03  0.00000000000E+00 0.  1.
         14    1    4    4    0    0  0.43038355018E+00  0.11890365055E+02 -0.19779482412E+02  0.23082329511E+02  0.00000000000E+00 0. -1.
         -5    1    5    5    0  502 -0.19525498492E+02 -0.31965371717E+02 -0.40535727299E+01  0.37967769650E+02  0.47000000000E+01 0.  1.
         13    1    6    6    0    0 -0.90960783366E+01 -0.10954243808E+01  0.54434514914E+02  0.55200135957E+02  0.00000000000E+00 0. -1.
        -14    1    6    6    0    0  0.92414313404E+02  0.45768516058E+02  0.12702010032E+03  0.16361316655E+03  0.00000000000E+00 0.  1.
</event>
<event>
12    1  0.8358445E-002  0.2202796E+03  0.7818608E-02  0.1133681E+00
         21   -1    0    0  503  502  0.00000000000E+00  0.00000000000E+00  0.33927804392E+03  0.33927804392E+03  0.00000000000E+00 0.  1.
         21   -1    0    0  501  503 -0.00000000000E+00 -0.00000000000E+00 -0.17786408991E+03  0.17786408991E+03  0.00000000000E+00 0. -1.
          6    2    1    2  501    0  0.40744045169E+02  0.13102364492E+03 -0.33778841678E+02  0.22282369937E+03  0.17228499096E+03 0.  0.
         24    2    3    3    0    0  0.63133558191E+02  0.32101642373E+02  0.21608712784E+02  0.10716591074E+03  0.77467634166E+02 0.  0.
         -6    2    1    2    0  502 -0.40744045169E+02 -0.13102364492E+03  0.19519279568E+03  0.29431843446E+03  0.17232481143E+03 0.  0.
        -24    2    5    5    0    0 -0.56812382917E+02 -0.15745937699E+03  0.18354451414E+03  0.26092963588E+03  0.79840991665E+02 0.  0.
          5    1    3    3  501    0 -0.22389513022E+02  0.98922002544E+02 -0.55387554462E+02  0.11565778863E+03  0.47000000000E+01 0. -1.
        -13    1    4    4    0    0 -0.56414845333E+01 -0.38577912766E+01 -0.18559900499E+02  0.19778240766E+02  0.00000000000E+00 0.  1.
         14    1    4    4    0    0  0.68775042725E+02  0.35959433649E+02  0.40168613283E+02  0.87387669972E+02  0.00000000000E+00 0. -1.
         -5    1    5    5    0  502  0.16068337748E+02  0.26435732076E+02  0.11648281537E+02  0.33388798588E+02  0.47000000000E+01 0.  1.
         11    1    6    6    0    0 -0.27369259004E+02 -0.15329739829E+03  0.15352786730E+03  0.21867778739E+03  0.00000000000E+00 0. -1.
        -12    1    6    6    0    0 -0.29443123913E+02 -0.41619787021E+01  0.30016646848E+02  0.42251848486E+02  0.00000000000E+00 0.  1.
</event>
<event>
12    1  0.8358445E-002  0.1941163E+03  0.7818608E-02  0.1155093E+00
         21   -1    0    0  501  502  0.00000000000E+00  0.00000000000E+00  0.28484954122E+02  0.28484954122E+02  0.00000000000E+00 0.  1.
         21   -1    0    0  502  503 -0.00000000000E+00 -0.00000000000E+00 -0.14881191913E+04  0.14881191913E+04  0.00000000000E+00 0.  1.
         -6    2    1    2    0  503 -0.83542395041E+02  0.26653607238E+02 -0.98714325652E+03  0.10057921695E+04  0.17168672849E+03 0.  0.
        -24    2    3    3    0    0  0.17137008234E+02 -0.61197966307E+01 -0.33457504399E+03  0.34467357175E+03  0.80797784907E+02 0.  0.
          6    2    1    2  501    0  0.83542395041E+02 -0.26653607238E+02 -0.47249098066E+03  0.51081197594E+03  0.17318025701E+03 0.  0.
         24    2    5    5    0    0  0.16142427906E+02  0.26478681210E+02 -0.19212299613E+03  0.21756448252E+03  0.97269521840E+02 0.  0.
          5    1    5    5  501    0  0.67399967135E+02 -0.53132288448E+02 -0.28036798453E+03  0.29324749342E+03  0.47000000000E+01 0. -1.
        -13    1    6    6    0    0  0.28258852463E+02 -0.13608240855E+02 -0.13584339402E+02  0.34180129296E+02  0.00000000000E+00 0.  1.
         14    1    6    6    0    0 -0.12116424558E+02  0.40086922065E+02 -0.17853865672E+03  0.18338435323E+03  0.00000000000E+00 0. -1.
         -5    1    3    3    0  503 -0.10067940327E+03  0.32773403869E+02 -0.65256821253E+03  0.66111859772E+03  0.47000000000E+01 0.  1.
         11    1    4    4    0    0 -0.22705159172E+02 -0.26386849065E+02 -0.19599913814E+03  0.19906645174E+03  0.00000000000E+00 0. -1.
        -12    1    4    4    0    0  0.39842167406E+02  0.20267052435E+02 -0.13857590585E+03  0.14560712001E+03  0.00000000000E+00 0.  1.
</event>
<event>
12    1  0.8358445E-002  0.1916007E+03  0.7818608E-02  0.1157142E+00
         21   -1    0    0  503  502  0.00000000000E+00  0.00000000000E+00  0.17778444270E+04  0.17778444270E+04  0.00000000000E+00 0.  1.
         21   -1    0    0  501  503 -0.00000000000E+00 -0.00000000000E+00 -0.21395818626E+02  0.21395818626E+02  0.00000000000E+00 0. -1.
          6    2    1    2  501    0 -0.55421204016E+02  0.61541133388E+02  0.10536379071E+04  0.10709172064E+04  0.17277732136E+03 0.  0.
         24    2    3    3    0    0  0.28787498805E+02  0.41560127848E+02  0.74978436013E+03  0.75494345083E+03  0.72159981617E+02 0.  0.
         -6    2    1    2    0  502  0.55421204016E+02 -0.61541133388E+02  0.70281070132E+03  0.72832303926E+03  0.17219972899E+03 0.  0.
        -24    2    5    5    0    0 -0.79998749556E+01  0.17852875769E+02  0.21547380629E+03  0.23048272228E+03  0.79439290650E+02 0.  0.
          5    1    3    3  501    0 -0.84208702821E+02  0.19981005540E+02  0.30385354697E+03  0.31597375559E+03  0.47000000000E+01 0. -1.
        -13    1    4    4    0    0 -0.16985909866E+02  0.38266964598E+02  0.39136088084E+03  0.39359397959E+03  0.00000000000E+00 0.  1.
         14    1    4    4    0    0  0.45773408670E+02  0.32931632497E+01  0.35842347928E+03  0.36134947124E+03  0.00000000000E+00 0. -1.
         -5    1    5    5    0  502  0.63421078972E+02 -0.79394009157E+02  0.48733689504E+03  0.49784031698E+03  0.47000000000E+01 0.  1.
         13    1    6    6    0    0 -0.26826711077E+02 -0.95751248711E+01  0.27518151559E+02  0.39605607037E+02  0.00000000000E+00 0. -1.
        -14    1    6    6    0    0  0.18826836122E+02  0.27428000640E+02  0.18795565473E+03  0.19087711524E+03  0.00000000000E+00 0.  1.
</event>
<event>
12    1  0.8358445E-002  0.1732177E+03  0.7818608E-02  0.1175039E+00
         21   -1    0    0  503  502  0.00000000000E+00  0.00000000000E+00  0.17927693283E+03  0.17927693283E+03  0.00000000000E+00 0. -1.
         21   -1    0    0  501  503 -0.00000000000E+00 -0.00000000000E+00 -0.46645155896E+03  0.46645155896E+03  0.00000000000E+00 0. -1.
          6    2    1    2  501    0  0.80563367208E+01 -0.16789723070E+02 -0.40323245805E+03  0.43886306186E+03  0.17221374068E+03 0.  0.
         24    2    3    3    0    0 -0.14320842315E+02  0.53422420696E+02 -0.26890051235E+03  0.28557364634E+03  0.78649732275E+02 0.  0.
         -6    2    1    2    0  502 -0.80563367208E+01  0.16789723070E+02  0.11605783193E+03  0.20686542993E+03  0.17022657368E+03 0.  0.
        -24    2    5    5    0    0 -0.99162343558E+01 -0.43023519348E+02  0.20737167217E+02  0.94219070432E+02  0.80609231530E+02 0.  0.
          5    1    3    3  501    0  0.22377179035E+02 -0.70212143766E+02 -0.13433194570E+03  0.15328941552E+03  0.47000000000E+01 0. -1.
        -13    1    4    4    0    0  0.16792472158E+01 -0.19680421129E+02 -0.79709362128E+02  0.82120163528E+02  0.00000000000E+00 0.  1.
         14    1    4    4    0    0 -0.16000089530E+02  0.73102841825E+02 -0.18919115022E+03  0.20345348282E+03  0.00000000000E+00 0. -1.
         -5    1    5    5    0  502  0.18598976350E+01  0.59813242418E+02  0.95320664710E+02  0.11264635950E+03  0.47000000000E+01 0.  1.
         13    1    6    6    0    0  0.34620526675E+02 -0.24473841407E+02  0.19421283138E+01  0.42441979724E+02  0.00000000000E+00 0. -1.
        -14    1    6    6    0    0 -0.44536761031E+02 -0.18549677941E+02  0.18795038903E+02  0.51777090708E+02  0.00000000000E+00 0.  1.
</event>
<event>
12    1  0.8358445E-002  0.2191050E+03  0.7818608E-02  0.1134661E+00
         21   -1    0    0  503  502  0.00000000000E+00  0.00000000000E+00  0.55648845351E+03  0.55648845351E+03  0.00000000000E+00 0.  1.
         21   -1    0    0  501  503 -0.00000000000E+00 -0.00000000000E+00 -0.27267512659E+03  0.27267512659E+03  0.00000000000E+00 0. -1.
          6    2    1    2  501    0 -0.13527928917E+03 -0.15313443002E+02 -0.20102666949E+03  0.29735282337E+03  0.17167408688E+03 0.  0.
         24    2    3    3    0    0 -0.59386880805E+02  0.13356381449E+02 -0.19078702113E+03  0.21544704287E+03  0.79451534354E+02 0.  0.
         -6    2    1    2    0  502  0.13527928917E+03  0.15313443002E+02  0.48483999641E+03  0.53181075673E+03  0.17093235865E+03 0.  0.
        -24    2    5    5    0    0  0.43507939959E+02  0.88241394276E+01  0.99185343356E+02  0.13530641498E+03  0.80618157526E+02 0.  0.
          5    1    3    3  501    0 -0.75892408362E+02 -0.28669824451E+02 -0.10239648360E+02  0.81905780502E+02  0.47000000000E+01 0. -1.
        -11    1    4    4    0    0 -0.72836843238E+01 -0.11689701067E+02  0.22353379227E+01  0.13953419079E+02  0.00000000000E+00 0.  1.
         12    1    4    4    0    0 -0.52103196481E+02  0.25046082515E+02 -0.19302235905E+03  0.20149362379E+03  0.00000000000E+00 0. -1.
         -5    1    5    5    0  502  0.91771349208E+02  0.64893035747E+01  0.38565465306E+03  0.39650434174E+03  0.47000000000E+01 0.  1.
         11    1    6    6    0    0  0.52722479008E+02  0.35603506000E+02  0.71425849116E+02  0.95649994011E+02  0.00000000000E+00 0. -1.
        -12    1    6    6    0    0 -0.92145390488E+01 -0.26779366573E+02  0.27759494240E+02  0.39656420973E+02  0.00000000000E+00 0.  1.
</event>
<event>
12    1  0.8358445E-002  0.2229770E+03  0.7818608E-02  0.1131707E+00
         21   -1    0    0  501  502  0.00000000000E+00  0.00000000000E+00  0.46059757010E+02  0.46059757010E+02  0.00000000000E+00 0. -1.
         21   -1    0    0  502  503 -0.00000000000E+00 -0.00000000000E+00 -0.20832576858E+04  0.20832576858E+04  0.00000000000E+00 0.  1.
         -6    2    1    2    0  503 -0.36023998850E+02 -0.13496029563E+03 -0.17580250448E+04  0.17721091419E+04  0.17380087078E+03 0.  0.
        -24    2    3    3    0    0 -0.30826134859E+02 -0.46289984326E+01 -0.75352485891E+03  0.75916492907E+03  0.86948250730E+02 0.  0.
          6    2    1    2  501    0  0.36023998850E+02  0.13496029563E+03 -0.27917288397E+03  0.35720830091E+03  0.17363254651E+03 0.  0.
         24    2    5    5    0    0  0.60356022161E+02  0.15590013159E+03 -0.25828697735E+03  0.31862287383E+03  0.82829177311E+02 0.  0.
          5    1    5    5  501    0 -0.24332023312E+02 -0.20939835957E+02 -0.20885906615E+02  0.38585427086E+02  0.47000000000E+01 0. -1.
        -11    1    6    6    0    0 -0.13213734187E+02  0.40760091197E+02 -0.10427826028E+03  0.11273838464E+03  0.00000000000E+00 0.  1.
         12    1    6    6    0    0  0.73569756348E+02  0.11514004039E+03 -0.15400871708E+03  0.20588448918E+03  0.00000000000E+00 0. -1.
         -5    1    3    3    0  503 -0.51978639911E+01 -0.13033129720E+03 -0.10045001859E+04  0.10129442128E+04  0.47000000000E+01 0.  1.
         13    1    4    4    0    0  0.61596087876E+01  0.18359161768E+01 -0.63062308131E+03  0.63065583487E+03  0.00000000000E+00 0. -1.
        -14    1    4    4    0    0 -0.36985743646E+02 -0.64649146095E+01 -0.12290177760E+03  0.12850909420E+03  0.00000000000E+00 0.  1.
</event>
<event>
12    1  0.8358445E-002  0.1941429E+03  0.7818608E-02  0.1155439E+00
         21   -1    0    0  503  502  0.00000000000E+00  0.00000000000E+00  0.86823776508E+02  0.86823776508E+02  0.00000000000E+00 0. -1.
         21   -1    0    0  501  503 -0.00000000000E+00 -0.00000000000E+00 -0.45414433919E+03  0.45414433919E+03  0.00000000000E+00 0. -1.
          6    2    1    2  501    0  0.81081354621E+02  0.14168293527E+01 -0.25058302213E+03  0.31699105637E+03  0.17639525324E+03 0.  0.
         24    2    3    3    0    0  0.35334083050E+02 -0.25977620880E+02 -0.29091567802E+02  0.89123061470E+02  0.71925423579E+02 0.  0.
         -6    2    1    2    0  502 -0.81081354621E+02 -0.14168293527E+01 -0.11673754055E+03  0.22397705933E+03  0.17309499201E+03 0.  0.
        -24    2    5    5    0    0 -0.83194808543E+02 -0.23428141402E+01 -0.15005444057E+03  0.19025125375E+03  0.82172619978E+02 0.  0.
          5    1    3    3  501    0  0.45747271571E+02  0.27394450232E+02 -0.22149145433E+03  0.22786799490E+03  0.47000000000E+01 0. -1.
        -11    1    4    4    0    0 -0.20642337625E+02 -0.17943526368E+02 -0.57710807685E+01  0.27953204009E+02  0.00000000000E+00 0.  1.
         12    1    4    4    0    0  0.55976420675E+02 -0.80340945121E+01 -0.23320487033E+02  0.61169857461E+02  0.00000000000E+00 0. -1.
         -5    1    5    5    0  502  0.21134539223E+01  0.92598478746E+00  0.33316900013E+02  0.33725805576E+02  0.47000000000E+01 0.  1.
         11    1    6    6    0    0 -0.64719355728E+02  0.35709856020E+02 -0.84894655694E+02  0.11256505403E+03  0.00000000000E+00 0. -1.
        -12    1    6    6    0    0 -0.18475452815E+02 -0.38052670161E+02 -0.65159784872E+02  0.77686199725E+02  0.00000000000E+00 0.  1.
</event>
<event>
12    1  0.8358445E-002  0.2602885E+03  0.7818608E-02  0.1107474E+00
         21   -1    0    0  503  502  0.00000000000E+00  0.00000000000E+00  0.22466989332E+03  0.22466989332E+03  0.00000000000E+00 0.  1.
         21   -1    0    0  501  503 -0.00000000000E+00 -0.00000000000E+00 -0.30056873893E+03  0.30056873893E+03  0.00000000000E+00 0. -1.
          6    2    1    2  501    0 -0.17314580673E+01 -0.18834613769E+03 -0.12046359382E+02  0.25723256998E+03  0.17477475434E+03 0.  0.
         24    2    3    3    0    0  0.45925655248E+02 -0.19089590334E+03 -0.31124974538E+02  0.20562069818E+03  0.52542323521E+02 0.  0.
         -6    2    1    2    0  502  0.17314580673E+01  0.18834613769E+03 -0.63852486232E+02  0.26800606226E+03  0.17964644132E+03 0.  0.
        -24    2    5    5    0    0  0.99976312513E+01  0.20484140945E+03 -0.20569354418E+02  0.22072030216E+03  0.78958202790E+02 0.  0.
          5    1    3    3  501    0 -0.47657113315E+02  0.25497656427E+01  0.19078615156E+02  0.51611871799E+02  0.47000000000E+01 0. -1.
        -13    1    4    4    0    0 -0.65162938758E+00 -0.80136348834E+02  0.45903625270E+01  0.80270358499E+02  0.00000000000E+00 0.  1.
         14    1    4    4    0    0  0.46577284636E+02 -0.11075955450E+03 -0.35715337065E+02  0.12535033968E+03  0.00000000000E+00 0. -1.
         -5    1    5    5    0  502 -0.82661731841E+01 -0.16495271753E+02 -0.43283131813E+02  0.47285760107E+02  0.47000000000E+01 0.  1.
         13    1    6    6    0    0  0.76103698682E+01  0.11119875930E+03 -0.50522438831E+02  0.12237482840E+03  0.00000000000E+00 0. -1.
        -14    1    6    6    0    0  0.23872613831E+01  0.93642650145E+02  0.29953084412E+02  0.98345473759E+02  0.00000000000E+00 0.  1.
</event>
<event>
12    1  0.8358445E-002  0.2031174E+03  0.7818608E-02  0.1147188E+00
         21   -1    0    0  503  502  0.00000000000E+00  0.00000000000E+00  0.19050628263E+03  0.19050628263E+03  0.00000000000E+00 0.  1.
         21   -1    0    0  501  503 -0.00000000000E+00 -0.00000000000E+00 -0.23437549745E+03  0.23437549745E+03  0.00000000000E+00 0.  1.
          6    2    1    2  501    0  0.98136645464E+02 -0.41816392663E+02 -0.80956068082E+02  0.21865630843E+03  0.17285046826E+03 0.  0.
         24    2    3    3    0    0  0.12351413100E+03 -0.72662101271E+02 -0.69565749078E+02  0.17685554434E+03  0.76830778993E+02 0.  0.
         -6    2    1    2    0  502 -0.98136645464E+02  0.41816392663E+02  0.37086853262E+02  0.20622547165E+03  0.17255172730E+03 0.  0.
        -24    2    5    5    0    0  0.69623137902E+01  0.14186434389E+02 -0.21117132071E+02  0.82860161539E+02  0.78550266513E+02 0.  0.
          5    1    3    3  501    0 -0.25377485534E+02  0.30845708608E+02 -0.11390319004E+02  0.41800764091E+02  0.47000000000E+01 0. -1.
        -13    1    4    4    0    0  0.12981094752E+03 -0.63876997088E+02 -0.76851139955E+02  0.16382078795E+03  0.00000000000E+00 0.  1.
         14    1    4    4    0    0 -0.62968165204E+01 -0.87851041832E+01  0.72853908772E+01  0.13034756386E+02  0.00000000000E+00 0. -1.
         -5    1    5    5    0  502 -0.10509895925E+03  0.27629958274E+02  0.58203985333E+02  0.12336531011E+03  0.47000000000E+01 0.  1.
         13    1    6    6    0    0  0.22240667573E+02  0.69634361601E+01  0.24739894252E+02  0.33988220090E+02  0.00000000000E+00 0. -1.
        -14    1    6    6    0    0 -0.15278353783E+02  0.72229982286E+01 -0.45857026324E+02  0.48871941449E+02  0.00000000000E+00 0.  1.
</event>
<event>
12    1  0.8358445E-002  0.2275379E+03  0.7818608E-02  0.1129536E+00
         21   -1    0    0  501  502  0.00000000000E+00  0.00000000000E+00  0.28037552956E+03  0.28037552956E+03  0.00000000000E+00 0.  1.
         21   -1    0    0  502  503 -0.00000000000E+00 -0.00000000000E+00 -0.18357236709E+03  0.18357236709E+03  0.00000000000E+00 0.  1.
         -6    2    1    2    0  503  0.11668930400E+03 -0.95632269060E+02  0.82128260795E+02  0.23593724096E+03  0.16173869635E+03 0.  0.
        -24    2    3    3    0    0  0.72228538857E+02 -0.12238980493E+03  0.77065005982E+02  0.18358791515E+03  0.87001616456E+02 0.  0.
          6    2    1    2  501    0 -0.11668930400E+03  0.95632269060E+02  0.14674901672E+02  0.22801065569E+03  0.17032786565E+03 0.  0.
         24    2    5    5    0    0 -0.77909045024E+02  0.84193294492E+02  0.72318823541E+02  0.15744387630E+03  0.80001448810E+02 0.  0.
          5    1    5    5  501    0 -0.38780258974E+02  0.11438974568E+02 -0.57643921869E+02  0.70566779392E+02  0.47000000000E+01 0. -1.
        -11    1    6    6    0    0 -0.85191039432E+02  0.38362354525E+02  0.47195514721E+02  0.10467377921E+03  0.00000000000E+00 0.  1.
         12    1    6    6    0    0  0.72819944074E+01  0.45830939967E+02  0.25123308820E+02  0.52770097090E+02  0.00000000000E+00 0. -1.
         -5    1    3    3    0  503  0.44460765142E+02  0.26757535874E+02  0.50632548126E+01  0.52349325806E+02  0.47000000000E+01 0.  1.
         11    1    4    4    0    0 -0.14974388098E+02 -0.10054787089E+02  0.27698714489E+02  0.33053741493E+02  0.00000000000E+00 0. -1.
        -12    1    4    4    0    0  0.87202926955E+02 -0.11233501785E+03  0.49366291492E+02  0.15053417366E+03  0.00000000000E+00 0.  1.
</event>
<event>
12    1  0.8358445E-002  0.2449128E+03  0.7818608E-02  0.1116708E+00
         21   -1    0    0  503  502  0.00000000000E+00  0.00000000000E+00  0.14737358401E+03  0.14737358401E+03  0.00000000000E+00 0.  1.
         21   -1    0    0  501  503 -0.00000000000E+00 -0.00000000000E+00 -0.41511512028E+03  0.41511512028E+03  0.00000000000E+00 0.  1.
          6    2    1    2  501    0  0.13418782614E+03 -0.10609810205E+03 -0.91351760301E+02  0.26139517102E+03  0.17526868339E+03 0.  0.
         24    2    3    3    0    0  0.51023519511E+02 -0.89244034428E+02 -0.11455261143E+03  0.17330015989E+03  0.79641367443E+02 0.  0.
         -6    2    1    2    0  502 -0.13418782614E+03  0.10609810205E+03 -0.17638977596E+03  0.30109353327E+03  0.17401374305E+03 0.  0.
        -24    2    5    5    0    0 -0.13694550567E+03  0.29170042574E+02 -0.11057972658E+03  0.19971018291E+03  0.89729138634E+02 0.  0.
          5    1    3    3  501    0  0.83164306628E+02 -0.16854067621E+02  0.23200851130E+02  0.88095011127E+02  0.47000000000E+01 0. -1.
        -13    1    4    4    0    0  0.66309913915E+02 -0.41631081091E+02 -0.83354376392E+02  0.11435953681E+03  0.00000000000E+00 0.  1.
         14    1    4    4    0    0 -0.15286394404E+02 -0.47612953337E+02 -0.31198235039E+02  0.58940623079E+02  0.00000000000E+00 0. -1.
         -5    1    5    5    0  502  0.27576795302E+01  0.76928059475E+02 -0.65810049379E+02  0.10138335036E+03  0.47000000000E+01 0.  1.
         13    1    6    6    0    0 -0.17755652479E+02 -0.25555178736E+02 -0.40294236324E+02  0.50911254513E+02  0.00000000000E+00 0. -1.
        -14    1    6    6    0    0 -0.11918985319E+03  0.54725221310E+02 -0.70285490258E+02  0.14879892840E+03  0.00000000000E+00 0.  1.
</event>
<event>
12    1  0.8358445E-002  0.2096565E+03  0.7818608E-02  0.1144915E+00
         21   -1    0    0  501  502  0.00000000000E+00  0.00000000000E+00  0.86180955201E+02  0.86180955201E+02  0.00000000000E+00 0. -1.
         21   -1    0    0  502  503 -0.00000000000E+00 -0.00000000000E+00 -0.48202437844E+03  0.48202437844E+03  0.00000000000E+00 0.  1.
         -6    2    1    2    0  503  0.50346820153E+02 -0.79201997083E+02 -0.22641874152E+03  0.29864911993E+03  0.17064024052E+03 0.  0.
        -24    2    3    3    0    0  0.62764503453E+02 -0.53817482585E+02 -0.61450390842E+02  0.13121191033E+03  0.81269370324E+02 0.  0.
          6    2    1    2  501    0 -0.50346820153E+02  0.79201997083E+02 -0.16942468173E+03  0.26955621371E+03  0.18747818788E+03 0.  0.
         24    2    5    5    0    0  0.44083520833E+02  0.50260788620E+02 -0.64172820844E+02  0.12514455537E+03  0.84104132608E+02 0.  0.
          5    1    5    5  501    0 -0.94430340986E+02  0.28941208463E+02 -0.10525186088E+03  0.14441165834E+03  0.47000000000E+01 0. -1.
        -13    1    6    6    0    0 -0.42779630873E+01 -0.12625605485E+02 -0.40074267916E+02  0.42233326071E+02  0.00000000000E+00 0.  1.
         14    1    6    6    0    0  0.48361483921E+02  0.62886394105E+02 -0.24098552929E+02  0.82911229299E+02  0.00000000000E+00 0. -1.
         -5    1    3    3    0  503 -0.12417683301E+02 -0.25384514498E+02 -0.16496835067E+03  0.16743720960E+03  0.47000000000E+01 0.  1.
         13    1    4    4    0    0 -0.92534324089E+01 -0.37543273485E+02 -0.36779659603E+02  0.53365407858E+02  0.00000000000E+00 0. -1.
        -14    1    4    4    0    0  0.72017935862E+02 -0.16274209100E+02 -0.24670731239E+02  0.77846502475E+02  0.00000000000E+00 0.  1.
</event>
<event>
12    1  0.8358445E-002  0.2880445E+03  0.7818608E-02  0.1091561E+00
         21   -1    0    0  501  502  0.00000000000E+00  0.00000000000E+00  0.15541859663E+03  0.15541859663E+03  0.00000000000E+00 0.  1.
         21   -1    0    0  502  503 -0.00000000000E+00 -0.00000000000E+00 -0.60931136073E+03  0.60931136073E+03  0.00000000000E+00 0. -1.
         -6    2    1    2    0  503 -0.14594724055E+03  0.17841624069E+03 -0.90560236584E+02  0.30194497381E+03  0.17273291172E+03 0.  0.
        -24    2    3    3    0    0 -0.76086855431E+02  0.16183290856E+03 -0.13024356082E+02  0.19616509349E+03  0.79573929098E+02 0.  0.
          6    2    1    2  501    0  0.14594724055E+03 -0.17841624069E+03 -0.36333252751E+03  0.46278498355E+03  0.17037154541E+03 0.  0.
         24    2    5    5    0    0  0.52338612484E+02 -0.38505798261E+02 -0.67661820373E+02  0.12251925767E+03  0.78808754003E+02 0.  0.
          5    1    5    5  501    0  0.93608628070E+02 -0.13991044243E+03 -0.29567070714E+03  0.34026572588E+03  0.47000000000E+01 0. -1.
        -13    1    6    6    0    0  0.70349072946E+02 -0.16586296840E+02 -0.57585804744E+02  0.92413322715E+02  0.00000000000E+00 0.  1.
         14    1    6    6    0    0 -0.18010460462E+02 -0.21919501421E+02 -0.10076015629E+02  0.30105934956E+02  0.00000000000E+00 0. -1.
         -5    1    3    3    0  503 -0.69860385123E+02  0.16583332134E+02 -0.77535880502E+02  0.10577988031E+03  0.47000000000E+01 0.  1.
         11    1    4    4    0    0  0.64937169902E+01 -0.51322809479E+01 -0.51071148370E+01  0.97258053669E+01  0.00000000000E+00 0. -1.
        -12    1    4    4    0    0 -0.82580572421E+02  0.16696518950E+03 -0.79172412454E+01  0.18643928813E+03  0.00000000000E+00 0.  1.
</event>
<event>
12    1  0.8358445E-002  0.2273573E+03  0.7818608E-02  0.1128704E+00
         21   -1    0    0  501  502  0.00000000000E+00  0.00000000000E+00  0.90835457053E+02  0.90835457053E+02  0.00000000000E+00 0.  1.
         21   -1    0    0  502  503 -0.00000000000E+00 -0.00000000000E+00 -0.56955050738E+03  0.56955050738E+03  0.00000000000E+00 0.  1.
         -6    2    1    2    0  503  0.98609904051E+02 -0.11030840208E+03 -0.21425257857E+03  0.31162855543E+03  0.17122012845E+03 0.  0.
        -24    2    3    3    0    0  0.71906033424E+02  0.51784123408E+01 -0.10427348737E+03  0.14986393781E+03  0.79930883207E+02 0.  0.
          6    2    1    2  501    0 -0.98609904051E+02  0.11030840208E+03 -0.26446247175E+03  0.34875740900E+03  0.17262524330E+03 0.  0.
         24    2    5    5    0    0 -0.64489191911E+02  0.24178079412E+02 -0.22977232961E+03  0.24972129720E+03  0.69440387540E+02 0.  0.
          5    1    5    5  501    0 -0.34120712139E+02  0.86130322668E+02 -0.34690142140E+02  0.99036111805E+02  0.47000000000E+01 0. -1.
        -11    1    6    6    0    0  0.57090768027E+01  0.20251372203E+02 -0.22298846097E+02  0.30658606806E+02  0.00000000000E+00 0.  1.
         12    1    6    6    0    0 -0.70198268714E+02  0.39267072089E+01 -0.20747348352E+03  0.21906269039E+03  0.00000000000E+00 0. -1.
         -5    1    3    3    0  503  0.26703870627E+02 -0.11548681442E+03 -0.10997909121E+03  0.16176461762E+03  0.47000000000E+01 0.  1.
         13    1    4    4    0    0 -0.12893282415E+01  0.27598927619E+02 -0.45983795919E+02  0.53645807480E+02  0.00000000000E+00 0. -1.
        -14    1    4    4    0    0  0.73195361666E+02 -0.22420515278E+02 -0.58289691447E+02  0.96218130327E+02  0.00000000000E+00 0.  1.
</event>
<event>
12    1  0.8358445E-002  0.3248203E+03  0.7818608E-02  0.1073569E+00
         21   -1    0    0  503  502  0.00000000000E+00  0.00000000000E+00  0.11493191388E+03  0.11493191388E+03  0.00000000000E+00 0.  1.
         21   -1    0    0  501  503 -0.00000000000E+00 -0.00000000000E+00 -0.91644059145E+03  0.91644059145E+03  0.00000000000E+00 0. -1.
          6    2    1    2  501    0 -0.18506067695E+03  0.20378448340E+03 -0.38035114719E+03  0.49950609606E+03  0.17048101068E+03 0.  0.
         24    2    3    3    0    0 -0.10608111604E+03  0.18895702173E+03 -0.33623248658E+03  0.40771191936E+03  0.78859146029E+02 0.  0.
         -6    2    1    2    0  502  0.18506067695E+03 -0.20378448340E+03 -0.42115753038E+03  0.53186640927E+03  0.17243155767E+03 0.  0.
        -24    2    5    5    0    0  0.21142967252E+03 -0.17807140742E+03 -0.37309393654E+03  0.47113186180E+03  0.79713318574E+02 0.  0.
          5    1    3    3  501    0 -0.78979560916E+02  0.14827461669E+02 -0.44118660607E+02  0.91794176699E+02  0.47000000000E+01 0. -1.
        -13    1    4    4    0    0 -0.15133087912E+02  0.10675942904E+03 -0.14920568277E+03  0.18408943970E+03  0.00000000000E+00 0.  1.
         14    1    4    4    0    0 -0.90948028125E+02  0.82197592696E+02 -0.18702680381E+03  0.22362247966E+03  0.00000000000E+00 0. -1.
         -5    1    5    5    0  502 -0.26368995562E+02 -0.25713075979E+02 -0.48063593836E+02  0.60734547464E+02  0.47000000000E+01 0.  1.
         13    1    6    6    0    0  0.27387229922E+02 -0.44180443784E+02 -0.11990012885E+03  0.13068287139E+03  0.00000000000E+00 0. -1.
        -14    1    6    6    0    0  0.18404244259E+03 -0.13389096364E+03 -0.25319380769E+03  0.34044899041E+03  0.00000000000E+00 0.  1.
</event>
