<event>
12    1  0.2609167E-002  0.3325416E+03  0.7818608E-02  0.1070018E+00
         -2   -1    0    0    0  501 -0.00000000000E+00  0.00000000000E+00  0.72087596444E+02  0.72087596444E+02  0.00000000000E+00 0. -1.
          2   -1    0    0  502    0  0.00000000000E+00 -0.00000000000E+00 -0.15711056393E+04  0.15711056393E+04  0.00000000000E+00 0.  1.
          6    2    1    2  502    0  0.23566239275E+02 -0.28365890113E+03 -0.62264519328E+03  0.70574623740E+03  0.17138545755E+03 0.  0.
         24    2    3    3    0    0  0.71721984336E+02 -0.17802086072E+03 -0.47006284220E+03  0.51396032753E+03  0.79753826001E+02 0.  0.
         -6    2    1    2    0  501 -0.23566239275E+02  0.28365890113E+03 -0.87637284958E+03  0.93744699836E+03  0.17251018353E+03 0.  0.
        -24    2    5    5    0    0 -0.51165163536E+02  0.17933645631E+03 -0.39783009675E+03  0.44686557861E+03  0.81490005186E+02 0.  0.
          5    1    3    3  502    0 -0.48155745061E+02 -0.10563804041E+03 -0.15258235108E+03  0.19178590987E+03  0.47000000000E+01 0. -1.
        -13    1    4    4    0    0 -0.14895267460E+01 -0.17256670806E+02 -0.12613938079E+03  0.12732303313E+03  0.00000000000E+00 0.  1.
         14    1    4    4    0    0  0.73211511083E+02 -0.16076418991E+03 -0.34392346141E+03  0.38663729440E+03  0.00000000000E+00 0. -1.
         -5    1    5    5    0  501  0.27598924260E+02  0.10432244482E+03 -0.47854275283E+03  0.49058141975E+03  0.47000000000E+01 0.  1.
         13    1    6    6    0    0  0.90524521873E+00  0.10113849592E+03 -0.14206097766E+03  0.17438789006E+03  0.00000000000E+00 0. -1.
        -14    1    6    6    0    0 -0.52070408754E+02  0.78197960383E+02 -0.25576911909E+03  0.27247768855E+03  0.00000000000E+00 0.  1.
</event>
<event>
12    1  0.2609167E-002  0.1805136E+03  0.7818608E-02  0.1167307E+00
          3   -1    0    0  502    0  0.00000000000E+00  0.00000000000E+00  0.22721612749E+03  0.22721612749E+03  0.00000000000E+00 0. -1.
         -3   -1    0    0    0  501 -0.00000000000E+00 -0.00000000000E+00 -0.17097568905E+03  0.17097568905E+03  0.00000000000E+00 0.  1.
          6    2    1    2  502    0  0.22550880906E+02 -0.51693360080E+02  0.10782834979E+03  0.20886764253E+03  0.16975863269E+03 0.  0.
         24    2    3    3    0    0  0.69950265815E+01  0.31997587921E+02  0.26532015937E+02  0.91065506389E+02  0.80722998920E+02 0.  0.
         -6    2    1    2    0  501 -0.22550880906E+02  0.51693360080E+02 -0.51587911353E+02  0.18932417401E+03  0.17320965493E+03 0.  0.
        -24    2    5    5    0    0 -0.12006002126E+01  0.63381579000E+02 -0.94954911630E+02  0.13937184013E+03  0.79933776225E+02 0.  0.
          5    1    3    3  502    0  0.15555854325E+02 -0.83690948001E+02  0.81296333851E+02  0.11780213614E+03  0.47000000000E+01 0. -1.
        -13    1    4    4    0    0 -0.80639604685E+01  0.57171293912E+02  0.16229665581E+02  0.59974880999E+02  0.00000000000E+00 0.  1.
         14    1    4    4    0    0  0.15058987050E+02 -0.25173705991E+02  0.10302350356E+02  0.31090625390E+02  0.00000000000E+00 0. -1.
         -5    1    5    5    0  501 -0.21350280694E+02 -0.11688218920E+02  0.43367000276E+02  0.49952333881E+02  0.47000000000E+01 0.  1.
         11    1    6    6    0    0 -0.91787177306E+01  0.46649450285E+02 -0.53203959766E+01  0.47840638419E+02  0.00000000000E+00 0. -1.
        -12    1    6    6    0    0  0.79781175180E+01  0.16732128715E+02 -0.89634515653E+02  0.91531201712E+02  0.00000000000E+00 0.  1.
</event>
<event>
12    1  0.2609167E-002  0.1900110E+03  0.7818608E-02  0.1158451E+00
         -2   -1    0    0    0  501 -0.00000000000E+00  0.00000000000E+00  0.29537296156E+04  0.29537296156E+04  0.00000000000E+00 0.  1.
          2   -1    0    0  502    0  0.00000000000E+00 -0.00000000000E+00 -0.17279758758E+02  0.17279758758E+02  0.00000000000E+00 0. -1.
          6    2    1    2  502    0 -0.86219463212E+02  0.20451188228E+02  0.22589433057E+04  0.22667285765E+04  0.16547366600E+03 0.  0.
         24    2    3    3    0    0 -0.64830249536E+02 -0.31693673983E+02  0.19221847037E+04  0.19252537881E+04  0.81244464576E+02 0.  0.
         -6    2    1    2    0  501  0.86219463212E+02 -0.20451188228E+02  0.67750655111E+03  0.70428079785E+03  0.17071692499E+03 0.  0.
        -24    2    5    5    0    0  0.11420062407E+03 -0.96916819850E+01  0.64461984353E+03  0.65953330771E+03  0.79458983625E+02 0.  0.
          5    1    3    3  502    0 -0.21389213676E+02  0.52144862212E+02  0.33675860202E+03  0.34147478846E+03  0.47000000000E+01 0. -1.
        -13    1    4    4    0    0 -0.68195145522E+02 -0.28304558913E+02  0.19160838628E+04  0.19175059570E+04  0.00000000000E+00 0.  1.
         14    1    4    4    0    0  0.33648959858E+01 -0.33891150705E+01  0.61008409121E+01  0.77478310378E+01  0.00000000000E+00 0. -1.
         -5    1    5    5    0  501 -0.27981160854E+02 -0.10759506243E+02  0.32886707588E+02  0.44747490134E+02  0.47000000000E+01 0.  1.
         11    1    6    6    0    0  0.91759829784E+02  0.17177332010E+02  0.32932248755E+03  0.34229844858E+03  0.00000000000E+00 0. -1.
        -12    1    6    6    0    0  0.22440794282E+02 -0.26869013995E+02  0.31529735598E+03  0.31723485913E+03  0.00000000000E+00 0.  1.
</event>
<event>
12    1  0.2609167E-002  0.1955697E+03  0.7818608E-02  0.1153532E+00
         -2   -1    0    0    0  501 -0.00000000000E+00  0.00000000000E+00  0.51641384583E+03  0.51641384583E+03  0.00000000000E+00 0.  1.
          2   -1    0    0  502    0  0.00000000000E+00 -0.00000000000E+00 -0.95217083107E+02  0.95217083107E+02  0.00000000000E+00 0. -1.
          6    2    1    2  502    0  0.47506917511E+02  0.81026505529E+02  0.35389377273E+03  0.40385454849E+03  0.17039804035E+03 0.  0.
         24    2    3    3    0    0 -0.18058788124E+02  0.97492159421E+02  0.23876596149E+03  0.27026382115E+03  0.78756000887E+02 0.  0.
         -6    2    1    2    0  501 -0.47506917511E+02 -0.81026505529E+02  0.67302989996E+02  0.20777638045E+03  0.17268216468E+03 0.  0.
        -24    2    5    5    0    0 -0.25093499959E+02 -0.11860656477E+03  0.74793886668E+02  0.16313530438E+03  0.79509754784E+02 0.  0.
          5    1    3    3  502    0  0.65565705635E+02 -0.16465653892E+02  0.11512781123E+03  0.13359072735E+03  0.47000000000E+01 0. -1.
        -11    1    4    4    0    0 -0.41317504045E+02  0.46008013315E+02  0.17214299508E+03  0.18291277754E+03  0.00000000000E+00 0.  1.
         12    1    4    4    0    0  0.23258715921E+02  0.51484146106E+02  0.66622966410E+02  0.87351043610E+02  0.00000000000E+00 0. -1.
         -5    1    5    5    0  501 -0.22413417551E+02  0.37580059244E+02 -0.74908966715E+01  0.44641076063E+02  0.47000000000E+01 0.  1.
         13    1    6    6    0    0  0.21857813298E+02 -0.13217290464E+02 -0.17323848362E+00  0.25543899094E+02  0.00000000000E+00 0. -1.
        -14    1    6    6    0    0 -0.46951313257E+02 -0.10538927431E+03  0.74967125151E+02  0.13759140529E+03  0.00000000000E+00 0.  1.
</event>
<event>
12    1  0.2609167E-002  0.2007106E+03  0.7818608E-02  0.1149141E+00
          2   -1    0    0  502    0  0.00000000000E+00  0.00000000000E+00  0.11817745243E+04  0.11817745243E+04  0.00000000000E+00 0. -1.
         -2   -1    0    0    0  501 -0.00000000000E+00 -0.00000000000E+00 -0.38202491632E+02  0.38202491632E+02  0.00000000000E+00 0.  1.
          6    2    1    2  502    0  0.20283447568E+02 -0.10142936274E+03  0.37300653845E+03  0.42383832045E+03  0.17264330361E+03 0.  0.
         24    2    3    3    0    0 -0.17120321672E+02 -0.42279924536E+01  0.85238675773E+02  0.11776711774E+03  0.79325158920E+02 0.  0.
         -6    2    1    2    0  501 -0.20283447568E+02  0.10142936274E+03  0.77056549427E+03  0.79613869554E+03  0.17136600509E+03 0.  0.
        -24    2    5    5    0    0  0.49207993862E+02  0.84404829647E+02  0.43609700080E+03  0.45407121932E+03  0.80339754692E+02 0.  0.
          5    1    3    3  502    0  0.37403769241E+02 -0.97201370288E+02  0.28776786268E+03  0.30607120271E+03  0.47000000000E+01 0. -1.
        -13    1    4    4    0    0  0.20386811959E+02 -0.18279054611E+02  0.46492715164E+01  0.27773398513E+02  0.00000000000E+00 0.  1.
         14    1    4    4    0    0 -0.37507133632E+02  0.14051062157E+02  0.80589404257E+02  0.89993719222E+02  0.00000000000E+00 0. -1.
         -5    1    5    5    0  501 -0.69491441430E+02  0.17024533094E+02  0.33446849347E+03  0.34206747621E+03  0.47000000000E+01 0.  1.
         11    1    6    6    0    0  0.42246346286E+02  0.86160525599E+01  0.23766663582E+03  0.24154589609E+03  0.00000000000E+00 0. -1.
        -12    1    6    6    0    0  0.69616475760E+01  0.75788777087E+02  0.19843036498E+03  0.21252532323E+03  0.00000000000E+00 0.  1.
</event>
<event>
12    1  0.2609167E-002  0.2474534E+03  0.7818608E-02  0.1114925E+00
          1   -1    0    0  502    0  0.00000000000E+00  0.00000000000E+00  0.21545204031E+04  0.21545204031E+04  0.00000000000E+00 0. -1.
         -1   -1    0    0    0  501 -0.00000000000E+00 -0.00000000000E+00 -0.28734681210E+02  0.28734681210E+02  0.00000000000E+00 0.  1.
          6    2    1    2  502    0  0.13155278086E+03  0.11882809030E+03  0.11774584780E+04  0.12032028768E+04  0.17280754029E+03 0.  0.
         24    2    3    3    0    0  0.98281662111E+02  0.43821920180E+02  0.98122606532E+03  0.99045386338E+03  0.81330304486E+02 0.  0.
         -6    2    1    2    0  501 -0.13155278086E+03 -0.11882809030E+03  0.94832724389E+03  0.98005220757E+03  0.17248628602E+03 0.  0.
        -24    2    5    5    0    0 -0.22553380633E+02 -0.10613667637E+03  0.45409462816E+03  0.47376186627E+03  0.80465679425E+02 0.  0.
          5    1    3    3  502    0  0.33271118746E+02  0.75006170125E+02  0.19623241273E+03  0.21274901340E+03  0.47000000000E+01 0. -1.
        -13    1    4    4    0    0  0.22010215927E+02  0.18751275799E+02  0.70547446450E+02  0.76243046567E+02  0.00000000000E+00 0.  1.
         14    1    4    4    0    0  0.76271446184E+02  0.25070644381E+02  0.91067861887E+03  0.91421081681E+03  0.00000000000E+00 0. -1.
         -5    1    5    5    0  501 -0.10899940022E+03 -0.12691413931E+02  0.49423261574E+03  0.50629034130E+03  0.47000000000E+01 0.  1.
         11    1    6    6    0    0 -0.61742525018E+01 -0.97665682059E+02  0.43944905719E+03  0.45021348349E+03  0.00000000000E+00 0. -1.
        -12    1    6    6    0    0 -0.16379128131E+02 -0.84709943150E+01  0.14645570963E+02  0.23548382786E+02  0.00000000000E+00 0.  1.
</event>
<event>
12    1  0.2609167E-002  0.2805675E+03  0.7818608E-02  0.1095379E+00
         -2   -1    0    0    0  501 -0.00000000000E+00  0.00000000000E+00  0.41520451977E+03  0.41520451977E+03  0.00000000000E+00 0. -1.
          2   -1    0    0  502    0  0.00000000000E+00 -0.00000000000E+00 -0.27243905724E+03  0.27243905724E+03  0.00000000000E+00 0.  1.
          6    2    1    2  502    0  0.72191968550E+02 -0.20992445939E+03 -0.11824093836E+03  0.30435859078E+03  0.17138632765E+03 0.  0.
         24    2    3    3    0    0  0.10032228648E+03 -0.18124604827E+03 -0.13839270847E+03  0.25917065113E+03  0.71429639985E+02 0.  0.
         -6    2    1    2    0  501 -0.72191968550E+02  0.20992445939E+03  0.26100640089E+03  0.38328498623E+03  0.17176460751E+03 0.  0.
        -24    2    5    5    0    0 -0.71311251354E+01  0.13818853684E+03  0.79743575914E+02  0.17771928469E+03  0.77962693598E+02 0.  0.
          5    1    3    3  502    0 -0.28130317933E+02 -0.28678411118E+02  0.20151770115E+02  0.45187939652E+02  0.47000000000E+01 0. -1.
        -11    1    4    4    0    0  0.29675352850E+02 -0.55380515106E+02 -0.56658386060E+01  0.63085099250E+02  0.00000000000E+00 0.  1.
         12    1    4    4    0    0  0.70646933633E+02 -0.12586553316E+03 -0.13272686987E+03  0.19608555188E+03  0.00000000000E+00 0. -1.
         -5    1    5    5    0  501 -0.65060843415E+02  0.71735922548E+02  0.18126282498E+03  0.20556570154E+03  0.47000000000E+01 0.  1.
         13    1    6    6    0    0 -0.26850925397E+02  0.82968517559E+02  0.81071700609E+02  0.11906875216E+03  0.00000000000E+00 0. -1.
        -14    1    6    6    0    0  0.19719800261E+02  0.55220019279E+02 -0.13281246951E+01  0.58650532536E+02  0.00000000000E+00 0.  1.
</event>
<event>
12    1  0.2609167E-002  0.1946456E+03  0.7818608E-02  0.1154337E+00
         -1   -1    0    0    0  501 -0.00000000000E+00  0.00000000000E+00  0.49165930301E+02  0.49165930301E+02  0.00000000000E+00 0. -1.
          1   -1    0    0  502    0  0.00000000000E+00 -0.00000000000E+00 -0.96752054659E+03  0.96752054659E+03  0.00000000000E+00 0.  1.
          6    2    1    2  502    0  0.80119675418E+02 -0.42539004008E+02 -0.23047382315E+03  0.30188891490E+03  0.17259781149E+03 0.  0.
         24    2    3    3    0    0  0.99203547573E+02  0.19266939867E+02 -0.13399080396E+03  0.18563388547E+03  0.79333757427E+02 0.  0.
         -6    2    1    2    0  501 -0.80119675418E+02  0.42539004008E+02 -0.68788079314E+03  0.71479756199E+03  0.17183375630E+03 0.  0.
        -24    2    5    5    0    0 -0.83983028557E+02 -0.94589456292E+01 -0.30347249396E+03  0.32684067941E+03  0.87101402906E+02 0.  0.
          5    1    3    3  502    0 -0.19083872155E+02 -0.61805943875E+02 -0.96483019191E+02  0.11625502943E+03  0.47000000000E+01 0. -1.
        -13    1    4    4    0    0  0.40970945585E+02 -0.11075995373E+02 -0.10613430221E+03  0.11430566986E+03  0.00000000000E+00 0.  1.
         14    1    4    4    0    0  0.58232601988E+02  0.30342935240E+02 -0.27856501745E+02  0.71328215614E+02  0.00000000000E+00 0. -1.
         -5    1    5    5    0  501  0.38633531398E+01  0.51997949637E+02 -0.38440829918E+03  0.38795688258E+03  0.47000000000E+01 0.  1.
         11    1    6    6    0    0 -0.84455193994E+02  0.22422749194E+02 -0.19301502884E+03  0.21187321877E+03  0.00000000000E+00 0. -1.
        -12    1    6    6    0    0  0.47216543621E+00 -0.31881694823E+02 -0.11045746512E+03  0.11496746064E+03  0.00000000000E+00 0.  1.
</event>
<event>
12    1  0.2609167E-002  0.2099789E+03  0.7818608E-02  0.1141583E+00
         -2   -1    0    0    0  501 -0.00000000000E+00  0.00000000000E+00  0.30328779243E+02  0.30328779243E+02  0.00000000000E+00 0.  1.
          2   -1    0    0  502    0  0.00000000000E+00 -0.00000000000E+00 -0.33857412017E+04  0.33857412017E+04  0.00000000000E+00 0. -1.
          6    2    1    2  502    0  0.92279622449E+02 -0.72233169601E+02 -0.39108501813E+03  0.44438866725E+03  0.17550110161E+03 0.  0.
         24    2    3    3    0    0  0.12338852002E+03 -0.55808284959E+02 -0.23299531973E+03  0.28236402998E+03  0.84281284203E+02 0.  0.
         -6    2    1    2    0  501 -0.92279622449E+02  0.72233169601E+02 -0.29643274044E+04  0.29716813137E+04  0.17297314991E+03 0.  0.
        -24    2    5    5    0    0 -0.50955607671E+02 -0.27056084585E+02 -0.11868569492E+04  0.11909541198E+04  0.80086153315E+02 0.  0.
          5    1    3    3  502    0 -0.31108897569E+02 -0.16424884642E+02 -0.15808969840E+03  0.16202463727E+03  0.47000000000E+01 0. -1.
        -13    1    4    4    0    0  0.82018936482E+02 -0.36885940298E+02 -0.72410059131E+02  0.11545949591E+03  0.00000000000E+00 0.  1.
         14    1    4    4    0    0  0.41369583537E+02 -0.18922344661E+02 -0.16058526060E+03  0.16690453407E+03  0.00000000000E+00 0. -1.
         -5    1    5    5    0  501 -0.41324014778E+02  0.99289254186E+02 -0.17774704552E+04  0.17807271939E+04  0.47000000000E+01 0.  1.
         13    1    6    6    0    0 -0.63450290742E+02 -0.15486855474E+02 -0.11219885219E+04  0.11238879061E+04  0.00000000000E+00 0. -1.
        -14    1    6    6    0    0  0.12494683071E+02 -0.11569229111E+02 -0.64868427280E+02  0.67066213737E+02  0.00000000000E+00 0.  1.
</event>
<event>
12    1  0.2609167E-002  0.2699682E+03  0.7818608E-02  0.1101298E+00
         -2   -1    0    0    0  501 -0.00000000000E+00  0.00000000000E+00  0.85153198556E+02  0.85153198556E+02  0.00000000000E+00 0.  1.
          2   -1    0    0  502    0  0.00000000000E+00 -0.00000000000E+00 -0.89364249388E+03  0.89364249388E+03  0.00000000000E+00 0. -1.
          6    2    1    2  502    0  0.77612105144E+02 -0.19355640576E+03 -0.50481411303E+03  0.57246728627E+03  0.17144615496E+03 0.  0.
         24    2    3    3    0    0  0.86070292777E+02 -0.83175662764E+02 -0.37412349977E+03  0.40112676054E+03  0.81289598114E+02 0.  0.
         -6    2    1    2    0  501 -0.77612105144E+02  0.19355640576E+03 -0.30367518229E+03  0.40632840617E+03  0.17145388956E+03 0.  0.
        -24    2    5    5    0    0 -0.56775028475E+02  0.55294799705E+02 -0.65702346272E+02  0.13027838144E+03  0.79841966605E+02 0.  0.
          5    1    3    3  502    0 -0.84581876331E+01 -0.11038074300E+03 -0.13069061326E+03  0.17134052573E+03  0.47000000000E+01 0. -1.
        -13    1    4    4    0    0  0.56233561227E+02 -0.49256337486E+02 -0.10893635768E+03  0.13211937865E+03  0.00000000000E+00 0.  1.
         14    1    4    4    0    0  0.29836731550E+02 -0.33919325279E+02 -0.26518714210E+03  0.26900738189E+03  0.00000000000E+00 0. -1.
         -5    1    5    5    0  501 -0.20837076669E+02  0.13826160606E+03 -0.23797283601E+03  0.27605002473E+03  0.47000000000E+01 0.  1.
         11    1    6    6    0    0 -0.31198649288E+02  0.97765921213E+01 -0.70634525372E+02  0.77834270379E+02  0.00000000000E+00 0. -1.
        -12    1    6    6    0    0 -0.25576379188E+02  0.45518207584E+02  0.49321790998E+01  0.52444111058E+02  0.00000000000E+00 0.  1.
</event>
<event>
12    1  0.2609167E-002  0.2415964E+03  0.7818608E-02  0.1118734E+00
          2   -1    0    0  502    0  0.00000000000E+00  0.00000000000E+00  0.51606587202E+03  0.51606587202E+03  0.00000000000E+00 0. -1.
         -2   -1    0    0    0  501 -0.00000000000E+00 -0.00000000000E+00 -0.15775962092E+03  0.15775962092E+03  0.00000000000E+00 0.  1.
          6    2    1    2  502    0  0.20948050430E+02 -0.16821630957E+03  0.35846477573E+03  0.43234421853E+03  0.17230490483E+03 0.  0.
         24    2    3    3    0    0 -0.14172200426E+02 -0.16356480470E+03  0.20292839768E+03  0.27275498513E+03  0.79126801566E+02 0.  0.
         -6    2    1    2    0  501 -0.20948050430E+02  0.16821630957E+03 -0.15852463845E+00  0.24148127441E+03  0.17198149068E+03 0.  0.
        -24    2    5    5    0    0  0.55944416025E+02  0.10522462357E+03 -0.95585440894E+01  0.14152701353E+03  0.75739888454E+02 0.  0.
          5    1    3    3  502    0  0.35120250856E+02 -0.46515048666E+01  0.15553637806E+03  0.15958923340E+03  0.47000000000E+01 0. -1.
        -11    1    4    4    0    0 -0.39335195909E+02 -0.50415523795E+02  0.51802516793E+02  0.82295099628E+02  0.00000000000E+00 0.  1.
         12    1    4    4    0    0  0.25162995483E+02 -0.11314928091E+03  0.15112588089E+03  0.19045988550E+03  0.00000000000E+00 0. -1.
         -5    1    5    5    0  501 -0.76892466456E+02  0.62991685999E+02  0.94000194509E+01  0.99954260881E+02  0.47000000000E+01 0.  1.
         11    1    6    6    0    0 -0.24579395214E+01  0.11675968213E+02  0.23534588436E+02  0.26386484291E+02  0.00000000000E+00 0. -1.
        -12    1    6    6    0    0  0.58402355547E+02  0.93548655359E+02 -0.33093132525E+02  0.11514052924E+03  0.00000000000E+00 0.  1.
</event>
<event>
12    1  0.2609167E-002  0.3001377E+03  0.7818608E-02  0.1085172E+00
         -1   -1    0    0    0  501 -0.00000000000E+00  0.00000000000E+00  0.30656697253E+02  0.30656697253E+02  0.00000000000E+00 0. -1.
          1   -1    0    0  502    0  0.00000000000E+00 -0.00000000000E+00 -0.32737811718E+04  0.32737811718E+04  0.00000000000E+00 0.  1.
          6    2    1    2  502    0 -0.18152963073E+03 -0.16509853597E+03 -0.21468362816E+04  0.21676150862E+04  0.17157682984E+03 0.  0.
         24    2    3    3    0    0 -0.13859426927E+02 -0.64649203572E+02 -0.74272011527E+03  0.74995233922E+03  0.80148226720E+02 0.  0.
         -6    2    1    2    0  501  0.18152963073E+03  0.16509853597E+03 -0.10962881930E+04  0.11368227829E+04  0.17409108017E+03 0.  0.
        -24    2    5    5    0    0  0.13402864717E+03  0.48395128595E+02 -0.74624928883E+03  0.76476720484E+03  0.87607703919E+02 0.  0.
          5    1    3    3  502    0 -0.16767020380E+03 -0.10044933239E+03 -0.14041161664E+04  0.14176627470E+04  0.47000000000E+01 0. -1.
        -13    1    4    4    0    0 -0.35807260725E+02 -0.66076737862E+02 -0.66326155283E+03  0.66750594204E+03  0.00000000000E+00 0.  1.
         14    1    4    4    0    0  0.21947833798E+02  0.14275342898E+01 -0.79458562443E+02  0.82446397181E+02  0.00000000000E+00 0. -1.
         -5    1    5    5    0  501  0.47500983562E+02  0.11670340737E+03 -0.35003890413E+03  0.37205557802E+03  0.47000000000E+01 0.  1.
         13    1    6    6    0    0  0.13040999958E+03  0.67055000756E+02 -0.68944966243E+03  0.70487160402E+03  0.00000000000E+00 0. -1.
        -14    1    6    6    0    0  0.36186475877E+01 -0.18659872161E+02 -0.56799626399E+02  0.59895600828E+02  0.00000000000E+00 0.  1.
</event>
<event>
12    1  0.2609167E-002  0.1726873E+03  0.7818608E-02  0.1175074E+00
         -2   -1    0    0    0  501 -0.00000000000E+00  0.00000000000E+00  0.15883945101E+03  0.15883945101E+03  0.00000000000E+00 0. -1.
          2   -1    0    0  502    0  0.00000000000E+00 -0.00000000000E+00 -0.23934552089E+03  0.23934552089E+03  0.00000000000E+00 0.  1.
          6    2    1    2  502    0 -0.18560411905E+00 -0.21946103769E+01 -0.13221170772E+03  0.21557376562E+03  0.17025645950E+03 0.  0.
         24    2    3    3    0    0 -0.56994275307E+02  0.32981781634E+02 -0.79755687669E+02  0.13049540340E+03  0.79573458241E+02 0.  0.
         -6    2    1    2    0  501  0.18560411905E+00  0.21946103769E+01  0.51705637845E+02  0.18261120628E+03  0.17512432416E+03 0.  0.
        -24    2    5    5    0    0 -0.25243332003E+02  0.65374481942E+02  0.40298150017E+02  0.11339742339E+03  0.79523493617E+02 0.  0.
          5    1    3    3  502    0  0.56808671188E+02 -0.35176392011E+02 -0.52456020050E+02  0.85078362211E+02  0.47000000000E+01 0. -1.
        -11    1    4    4    0    0  0.12899262808E+02 -0.32586852524E+01 -0.40284554245E+02  0.42424701782E+02  0.00000000000E+00 0.  1.
         12    1    4    4    0    0 -0.69893538115E+02  0.36240466887E+02 -0.39471133425E+02  0.88070701622E+02  0.00000000000E+00 0. -1.
         -5    1    5    5    0  501  0.25428936123E+02 -0.63179871566E+02  0.11407487828E+02  0.69213782890E+02  0.47000000000E+01 0.  1.
         11    1    6    6    0    0 -0.14340806997E+02  0.37338847367E+02  0.63747232769E+02  0.75256614020E+02  0.00000000000E+00 0. -1.
        -12    1    6    6    0    0 -0.10902525006E+02  0.28035634575E+02 -0.23449082752E+02  0.38140809371E+02  0.00000000000E+00 0.  1.
</event>
<event>
12    1  0.2609167E-002  0.1772102E+03  0.7818608E-02  0.1170531E+00
          2   -1    0    0  502    0  0.00000000000E+00  0.00000000000E+00  0.19640675792E+04  0.19640675792E+04  0.00000000000E+00 0. -1.
         -2   -1    0    0    0  501 -0.00000000000E+00 -0.00000000000E+00 -0.34913328388E+02  0.34913328388E+02  0.00000000000E+00 0.  1.
          6    2    1    2  502    0  0.26236027654E+02 -0.33099727838E+02  0.22730165219E+03  0.28786759221E+03  0.17151614626E+03 0.  0.
         24    2    3    3    0    0  0.57331099265E+02 -0.69991767883E+01  0.22655583551E+03  0.24699231257E+03  0.79635497390E+02 0.  0.
         -6    2    1    2    0  501 -0.26236027654E+02  0.33099727838E+02  0.17018525987E+04  0.17111133154E+04  0.17269218135E+03 0.  0.
        -24    2    5    5    0    0 -0.61504339190E+02  0.56251309170E+02  0.15195786238E+04  0.15239616619E+04  0.79955984104E+02 0.  0.
          5    1    3    3  502    0 -0.31095071611E+02 -0.26100551050E+02  0.74581668196E+00  0.40875279646E+02  0.47000000000E+01 0. -1.
        -11    1    4    4    0    0  0.68162343326E+02  0.14182653677E+02  0.12912234750E+03  0.14669639851E+03  0.00000000000E+00 0.  1.
         12    1    4    4    0    0 -0.10831244061E+02 -0.21181830466E+02  0.97433488013E+02  0.10029591406E+03  0.00000000000E+00 0. -1.
         -5    1    5    5    0  501  0.35268311536E+02 -0.23151581332E+02  0.18227397487E+03  0.18715165356E+03  0.47000000000E+01 0.  1.
         13    1    6    6    0    0 -0.65931150789E+02  0.22661156751E+02  0.65098338288E+03  0.65470589539E+03  0.00000000000E+00 0. -1.
        -14    1    6    6    0    0  0.44268115995E+01  0.33590152419E+02  0.86859524091E+03  0.86925576647E+03  0.00000000000E+00 0.  1.
</event>
<event>
12    1  0.2609167E-002  0.1773899E+03  0.7818608E-02  0.1170353E+00
          2   -1    0    0  502    0  0.00000000000E+00  0.00000000000E+00  0.22254488677E+04  0.22254488677E+04  0.00000000000E+00 0. -1.
         -2   -1    0    0    0  501 -0.00000000000E+00 -0.00000000000E+00 -0.15582396134E+02  0.15582396134E+02  0.00000000000E+00 0.  1.
          6    2    1    2  502    0  0.13005888399E+02  0.48097626671E+02  0.14357802530E+04  0.14464838242E+04  0.16842797889E+03 0.  0.
         24    2    3    3    0    0 -0.47080816170E+02  0.61105518723E+01  0.10216434020E+04  0.10258833632E+04  0.80171639903E+02 0.  0.
         -6    2    1    2    0  501 -0.13005888399E+02 -0.48097626671E+02  0.77408621856E+03  0.79454743958E+03  0.17208609810E+03 0.  0.
        -24    2    5    5    0    0 -0.15520987409E+02  0.40537349521E+02  0.39183813930E+03  0.40212143531E+03  0.79248618747E+02 0.  0.
          5    1    3    3  502    0  0.60086704569E+02  0.41987074799E+02  0.41413685095E+03  0.42060046105E+03  0.47000000000E+01 0. -1.
        -13    1    4    4    0    0  0.47253443043E+01 -0.24492738565E+01  0.34628165845E+01  0.63497180974E+01  0.00000000000E+00 0.  1.
         14    1    4    4    0    0 -0.51806160474E+02  0.85598257287E+01  0.10181805854E+04  0.10195336451E+04  0.00000000000E+00 0. -1.
         -5    1    5    5    0  501  0.25150990104E+01 -0.88634976192E+02  0.38224807926E+03  0.39242600427E+03  0.47000000000E+01 0.  1.
         13    1    6    6    0    0  0.11644957075E+02 -0.18303256713E+02  0.15748371537E+03  0.15897086160E+03  0.00000000000E+00 0. -1.
        -14    1    6    6    0    0 -0.27165944484E+02  0.58840606234E+02  0.23435442393E+03  0.24315057371E+03  0.00000000000E+00 0.  1.
</event>
<event>
12    1  0.2609167E-002  0.1728453E+03  0.7818608E-02  0.1174913E+00
         -1   -1    0    0    0  501 -0.00000000000E+00  0.00000000000E+00  0.14227834074E+03  0.14227834074E+03  0.00000000000E+00 0. -1.
          1   -1    0    0  502    0  0.00000000000E+00 -0.00000000000E+00 -0.23572303696E+03  0.23572303696E+03  0.00000000000E+00 0.  1.
          6    2    1    2  502    0 -0.17488135495E+02 -0.20189399766E+02  0.15683890703E+02  0.17377385846E+03  0.17099100184E+03 0.  0.
         24    2    3    3    0    0  0.25797743254E+02  0.37865247171E+02 -0.18930076214E+02  0.93373447795E+02  0.79126180669E+02 0.  0.
         -6    2    1    2    0  501  0.17488135495E+02  0.20189399766E+02 -0.10912858692E+03  0.20422751923E+03  0.17054730834E+03 0.  0.
        -24    2    5    5    0    0  0.37255784943E+02 -0.48501849153E+02 -0.57457481012E+02  0.11590288603E+03  0.79948070545E+02 0.  0.
          5    1    3    3  502    0 -0.43285878749E+02 -0.58054646937E+02  0.34613966916E+02  0.80400410669E+02  0.47000000000E+01 0. -1.
        -13    1    4    4    0    0  0.16337583496E+02  0.30410326597E+02 -0.49595777128E+02  0.60427193441E+02  0.00000000000E+00 0.  1.
         14    1    4    4    0    0  0.94601597585E+01  0.74549205743E+01  0.30665700914E+02  0.32946254354E+02  0.00000000000E+00 0. -1.
         -5    1    5    5    0  501 -0.19767649449E+02  0.68691248919E+02 -0.51671105913E+02  0.88324633195E+02  0.47000000000E+01 0.  1.
         13    1    6    6    0    0  0.46427292906E+02  0.19858049266E+01 -0.41120598613E+02  0.62051112625E+02  0.00000000000E+00 0. -1.
        -14    1    6    6    0    0 -0.91715079626E+01 -0.50487654080E+02 -0.16336882399E+02  0.53851773409E+02  0.00000000000E+00 0.  1.
</event>
<event>
12    1  0.2609167E-002  0.1781000E+03  0.7818608E-02  0.1169655E+00
          2   -1    0    0  502    0  0.00000000000E+00  0.00000000000E+00  0.12485990555E+03  0.12485990555E+03  0.00000000000E+00 0. -1.
         -2   -1    0    0    0  501 -0.00000000000E+00 -0.00000000000E+00 -0.25898279860E+03  0.25898279860E+03  0.00000000000E+00 0.  1.
          6    2    1    2  502    0 -0.44411992713E+02  0.17502198074E+02 -0.40859784243E+02  0.18350454630E+03  0.17241126561E+03 0.  0.
         24    2    3    3    0    0  0.41995702917E+02  0.33939121687E+01 -0.13467306560E+02  0.91647203485E+02  0.80266330783E+02 0.  0.
         -6    2    1    2    0  501  0.44411992713E+02 -0.17502198074E+02 -0.93263108804E+02  0.20033815784E+03  0.17075894703E+03 0.  0.
        -24    2    5    5    0    0  0.56207477694E+02 -0.59504630474E+02 -0.21410274261E+02  0.11614636712E+03  0.79570705380E+02 0.  0.
          5    1    3    3  502    0 -0.86407695631E+02  0.14108285906E+02 -0.27392477682E+02  0.91857342815E+02  0.47000000000E+01 0. -1.
        -13    1    4    4    0    0 -0.22955065339E+02 -0.84400356881E+01 -0.61799462992E+01  0.25226195976E+02  0.00000000000E+00 0.  1.
         14    1    4    4    0    0  0.64950768257E+02  0.11833947857E+02 -0.72873602613E+01  0.66421007510E+02  0.00000000000E+00 0. -1.
         -5    1    5    5    0  501 -0.11795484981E+02  0.42002432400E+02 -0.71852834544E+02  0.84191790724E+02  0.47000000000E+01 0.  1.
         11    1    6    6    0    0  0.75016849462E+02 -0.44047257048E+02 -0.27154338227E+02  0.91132028624E+02  0.00000000000E+00 0. -1.
        -12    1    6    6    0    0 -0.18809371768E+02 -0.15457373427E+02  0.57440639665E+01  0.25014338496E+02  0.00000000000E+00 0.  1.
</event>
<event>
12    1  0.2609167E-002  0.2867974E+03  0.7818608E-02  0.1092033E+00
         -3   -1    0    0    0  501 -0.00000000000E+00  0.00000000000E+00  0.50895099907E+03  0.50895099907E+03  0.00000000000E+00 0.  1.
          3   -1    0    0  502    0  0.00000000000E+00 -0.00000000000E+00 -0.28144796725E+03  0.28144796725E+03  0.00000000000E+00 0. -1.
          6    2    1    2  502    0  0.13579093031E+03  0.18565555794E+03  0.37153094003E+03  0.46909205024E+03  0.17060172699E+03 0.  0.
         24    2    3    3    0    0  0.10449545454E+03  0.14535961868E+03  0.36914443400E+03  0.41779921511E+03  0.78992735324E+02 0.  0.
         -6    2    1    2    0  501 -0.13579093031E+03 -0.18565555794E+03 -0.14402790821E+03  0.32130691608E+03  0.17200852605E+03 0.  0.
        -24    2    5    5    0    0 -0.45822789151E+02 -0.11285498272E+03 -0.15054827474E+02  0.14795658949E+03  0.82634916441E+02 0.  0.
          5    1    3    3  502    0  0.31295475767E+02  0.40295939259E+02  0.23865060289E+01  0.51292835127E+02  0.47000000000E+01 0. -1.
        -13    1    4    4    0    0 -0.24364277741E+01  0.41964498103E+02  0.12535543004E+03  0.13221550257E+03  0.00000000000E+00 0.  1.
         14    1    4    4    0    0  0.10693188231E+03  0.10339512057E+03  0.24378900396E+03  0.28558371254E+03  0.00000000000E+00 0. -1.
         -5    1    5    5    0  501 -0.89968141155E+02 -0.72800575220E+02 -0.12897308073E+03  0.17335032659E+03  0.47000000000E+01 0.  1.
         11    1    6    6    0    0 -0.56818957006E+02 -0.11955838102E+03 -0.20543187179E+02  0.13395754136E+03  0.00000000000E+00 0. -1.
        -12    1    6    6    0    0  0.10996167855E+02  0.67033983072E+01  0.54883597056E+01  0.13999048133E+02  0.00000000000E+00 0.  1.
</event>
<event>
12    1  0.2609167E-002  0.1896945E+03  0.7818608E-02  0.1158737E+00
         -1   -1    0    0    0  501 -0.00000000000E+00  0.00000000000E+00  0.41907278264E+02  0.41907278264E+02  0.00000000000E+00 0. -1.
          1   -1    0    0  502    0  0.00000000000E+00 -0.00000000000E+00 -0.89640011954E+03  0.89640011954E+03  0.00000000000E+00 0.  1.
          6    2    1    2  502    0 -0.17636307472E+02  0.81957189068E+02 -0.53752200265E+03  0.57252064463E+03  0.17838712121E+03 0.  0.
         24    2    3    3    0    0  0.54005446252E+00  0.16216901404E+02 -0.46757716505E+03  0.47471197496E+03  0.80372721406E+02 0.  0.
         -6    2    1    2    0  501  0.17636307472E+02 -0.81957189068E+02 -0.31697083863E+03  0.36578675317E+03  0.16217711330E+03 0.  0.
        -24    2    5    5    0    0 -0.37494675907E+01 -0.10485811582E+03 -0.16945844552E+03  0.21490998246E+03  0.80379430461E+02 0.  0.
          5    1    3    3  502    0 -0.18176361935E+02  0.65740287664E+02 -0.69944837601E+02  0.97808669669E+02  0.47000000000E+01 0. -1.
        -13    1    4    4    0    0 -0.34682095548E+02  0.27495346466E+02 -0.22240373422E+03  0.22676477421E+03  0.00000000000E+00 0.  1.
         14    1    4    4    0    0  0.35222150010E+02 -0.11278445062E+02 -0.24517343083E+03  0.24794720075E+03  0.00000000000E+00 0. -1.
         -5    1    5    5    0  501  0.21385775063E+02  0.22900926755E+02 -0.14751239311E+03  0.15087677072E+03  0.47000000000E+01 0.  1.
         11    1    6    6    0    0  0.22623573513E+02 -0.10094975372E+03 -0.11780915386E+03  0.15678544444E+03  0.00000000000E+00 0. -1.
        -12    1    6    6    0    0 -0.26373041104E+02 -0.39083621069E+01 -0.51649291656E+02  0.58124538019E+02  0.00000000000E+00 0.  1.
</event>
<event>
12    1  0.2609167E-002  0.2529266E+03  0.7818608E-02  0.1111469E+00
          2   -1    0    0  502    0  0.00000000000E+00  0.00000000000E+00  0.79310583576E+03  0.79310583576E+03  0.00000000000E+00 0. -1.
         -2   -1    0    0    0  501 -0.00000000000E+00 -0.00000000000E+00 -0.86579016411E+02  0.86579016411E+02  0.00000000000E+00 0.  1.
          6    2    1    2  502    0 -0.58381105957E+02  0.17578560003E+03  0.46827259468E+03  0.53221477861E+03  0.17223361152E+03 0.  0.
         24    2    3    3    0    0 -0.60440452622E+02  0.20175760013E+03  0.41150288555E+03  0.46957552916E+03  0.82506819388E+02 0.  0.
         -6    2    1    2    0  501  0.58381105957E+02 -0.17578560003E+03  0.23825422467E+03  0.34747007356E+03  0.17222498580E+03 0.  0.
        -24    2    5    5    0    0 -0.12716918747E+02 -0.14666934279E+03  0.20486535134E+03  0.26356779460E+03  0.76318765931E+02 0.  0.
          5    1    3    3  502    0  0.20593466647E+01 -0.25972000099E+02  0.56769709130E+02  0.62639249457E+02  0.47000000000E+01 0. -1.
        -11    1    4    4    0    0 -0.21457219166E+02  0.10913913706E+02  0.16584639089E+02  0.29233132237E+02  0.00000000000E+00 0.  1.
         12    1    4    4    0    0 -0.38983233456E+02  0.19084368642E+03  0.39491824646E+03  0.44034239692E+03  0.00000000000E+00 0. -1.
         -5    1    5    5    0  501  0.71098024704E+02 -0.29116257241E+02  0.33388873328E+02  0.83902278960E+02  0.47000000000E+01 0.  1.
         11    1    6    6    0    0  0.36992982566E+01  0.10082201882E+01  0.45567373410E+02  0.45728402935E+02  0.00000000000E+00 0. -1.
        -12    1    6    6    0    0 -0.16416217003E+02 -0.14767756297E+03  0.15929797793E+03  0.21783939166E+03  0.00000000000E+00 0.  1.
</event>
<event>
12    1  0.2609167E-002  0.2692141E+03  0.7818608E-02  0.1101730E+00
         -1   -1    0    0    0  501 -0.00000000000E+00  0.00000000000E+00  0.21560025524E+03  0.21560025524E+03  0.00000000000E+00 0.  1.
          1   -1    0    0  502    0  0.00000000000E+00 -0.00000000000E+00 -0.57437299247E+03  0.57437299247E+03  0.00000000000E+00 0. -1.
          6    2    1    2  502    0 -0.20656683717E+03  0.18252701759E+02 -0.43388717120E+03  0.51079746114E+03  0.17220031832E+03 0.  0.
         24    2    3    3    0    0 -0.36889297264E+02 -0.22288988296E+02 -0.18882896888E+03  0.20994914602E+03  0.81022497958E+02 0.  0.
         -6    2    1    2    0  501  0.20656683717E+03 -0.18252701759E+02  0.75114433973E+02  0.27917578657E+03  0.17115467354E+03 0.  0.
        -24    2    5    5    0    0  0.22835989880E+02 -0.13726303515E+02  0.30846473725E+02  0.90074610392E+02  0.80324570674E+02 0.  0.
          5    1    3    3  502    0 -0.16967753991E+03  0.40541690055E+02 -0.24505820232E+03  0.30084831512E+03  0.47000000000E+01 0. -1.
        -13    1    4    4    0    0  0.13448121900E+02  0.20381294683E+02 -0.68365385139E+02  0.72595282497E+02  0.00000000000E+00 0.  1.
         14    1    4    4    0    0 -0.50337419164E+02 -0.42670282980E+02 -0.12046358374E+03  0.13735386353E+03  0.00000000000E+00 0. -1.
         -5    1    5    5    0  501  0.18373084729E+03 -0.45263982435E+01  0.44267960248E+02  0.18910117618E+03  0.47000000000E+01 0.  1.
         11    1    6    6    0    0  0.87724186458E+01  0.18432600549E+02  0.47145544732E+02  0.51375271094E+02  0.00000000000E+00 0. -1.
        -12    1    6    6    0    0  0.14063571234E+02 -0.32158904064E+02 -0.16299071006E+02  0.38699339298E+02  0.00000000000E+00 0.  1.
</event>
<event>
12    1  0.2609167E-002  0.2137741E+03  0.7818608E-02  0.1138612E+00
          1   -1    0    0  502    0  0.00000000000E+00  0.00000000000E+00  0.12362272587E+04  0.12362272587E+04  0.00000000000E+00 0. -1.
         -1   -1    0    0    0  501 -0.00000000000E+00 -0.00000000000E+00 -0.38787151708E+02  0.38787151708E+02  0.00000000000E+00 0.  1.
          6    2    1    2  502    0  0.87404079801E+02 -0.95273549219E+02  0.45721572369E+03  0.50417877670E+03  0.16862235479E+03 0.  0.
         24    2    3    3    0    0  0.41205335331E+02 -0.46643857677E+02  0.10027552478E+03  0.14096043122E+03  0.77078746629E+02 0.  0.
         -6    2    1    2    0  501 -0.87404079801E+02  0.95273549219E+02  0.74022438331E+03  0.77083563372E+03  0.17186888671E+03 0.  0.
        -24    2    5    5    0    0  0.65882284491E+01  0.73735817204E+02  0.27333994948E+03  0.29407406599E+03  0.79274540765E+02 0.  0.
          5    1    3    3  502    0  0.46198744470E+02 -0.48629691542E+02  0.35694019891E+03  0.36321834548E+03  0.47000000000E+01 0. -1.
        -13    1    4    4    0    0 -0.49702741506E+01 -0.16196144313E+02 -0.84819816160E+01  0.18946311722E+02  0.00000000000E+00 0.  1.
         14    1    4    4    0    0  0.46175609482E+02 -0.30447713364E+02  0.10875750640E+03  0.12201411950E+03  0.00000000000E+00 0. -1.
         -5    1    5    5    0  501 -0.93992308250E+02  0.21537732015E+02  0.46688443383E+03  0.47676156772E+03  0.47000000000E+01 0.  1.
         11    1    6    6    0    0 -0.12674026882E+02  0.83367101730E+02  0.24000405564E+03  0.25438681438E+03  0.00000000000E+00 0. -1.
        -12    1    6    6    0    0  0.19262255331E+02 -0.96312845261E+01  0.33335893846E+02  0.39687251613E+02  0.00000000000E+00 0.  1.
</event>
<event>
12    1  0.2609167E-002  0.1931631E+03  0.7818608E-02  0.1155639E+00
         -2   -1    0    0    0  501 -0.00000000000E+00  0.00000000000E+00  0.11915667534E+03  0.11915667534E+03  0.00000000000E+00 0. -1.
          2   -1    0    0  502    0  0.00000000000E+00 -0.00000000000E+00 -0.54112669208E+03  0.54112669208E+03  0.00000000000E+00 0.  1.
          6    2    1    2  502    0 -0.87484262935E+02 -0.48946466408E+01  0.28175086393E+01  0.19395853186E+03  0.17301595273E+03 0.  0.
         24    2    3    3    0    0 -0.81873520162E+02  0.37661831980E+02  0.48521739684E+02  0.13108165978E+03  0.81892340399E+02 0.  0.
         -6    2    1    2    0  501  0.87484262935E+02  0.48946466408E+01 -0.42478752538E+03  0.46632483557E+03  0.17128034541E+03 0.  0.
        -24    2    5    5    0    0  0.80270961942E+02  0.64910382229E+02 -0.28766019705E+03  0.31639180250E+03  0.81844967302E+02 0.  0.
          5    1    3    3  502    0 -0.56107427728E+01 -0.42556478621E+02 -0.45704231045E+02  0.62876872079E+02  0.47000000000E+01 0. -1.
        -13    1    4    4    0    0 -0.27594610766E+01  0.89278512327E+01 -0.20305989752E+02  0.22352949981E+02  0.00000000000E+00 0.  1.
         14    1    4    4    0    0 -0.79114059085E+02  0.28733980747E+02  0.68827729435E+02  0.10872870980E+03  0.00000000000E+00 0. -1.
         -5    1    5    5    0  501  0.72133009924E+01 -0.60015735589E+02 -0.13712732834E+03  0.14993303307E+03  0.47000000000E+01 0.  1.
         11    1    6    6    0    0 -0.23646768681E+01 -0.13850154598E+02 -0.61119663833E+02  0.62713888303E+02  0.00000000000E+00 0. -1.
        -12    1    6    6    0    0  0.82635638810E+02  0.78760536828E+02 -0.22654053321E+03  0.25367791420E+03  0.00000000000E+00 0.  1.
</event>
<event>
12    1  0.2609167E-002  0.1751724E+03  0.7818608E-02  0.1172559E+00
         -1   -1    0    0    0  501 -0.00000000000E+00  0.00000000000E+00  0.11490115599E+04  0.11490115599E+04  0.00000000000E+00 0. -1.
          1   -1    0    0  502    0  0.00000000000E+00 -0.00000000000E+00 -0.31696843951E+02  0.31696843951E+02  0.00000000000E+00 0.  1.
          6    2    1    2  502    0  0.25430422504E+02 -0.35257137821E+02  0.31965163518E+03  0.36364844959E+03  0.16784890485E+03 0.  0.
         24    2    3    3    0    0 -0.65329194953E+01 -0.50907750623E+02  0.89722918786E+02  0.13093424389E+03  0.80369745280E+02 0.  0.
         -6    2    1    2    0  501 -0.25430422504E+02  0.35257137821E+02  0.79766308081E+03  0.81705995430E+03  0.17155409142E+03 0.  0.
        -24    2    5    5    0    0 -0.65680719766E+02  0.63806819782E+02  0.45939073125E+03  0.47517482265E+03  0.79787222792E+02 0.  0.
          5    1    3    3  502    0  0.31963341999E+02  0.15650612802E+02  0.22992871639E+03  0.23271420570E+03  0.47000000000E+01 0. -1.
        -13    1    4    4    0    0  0.97323936632E+01 -0.18493860820E+02  0.92243090945E+02  0.94580813073E+02  0.00000000000E+00 0.  1.
         14    1    4    4    0    0 -0.16265313159E+02 -0.32413889803E+02 -0.25201721589E+01  0.36353430815E+02  0.00000000000E+00 0. -1.
         -5    1    5    5    0  501  0.40250297262E+02 -0.28549681961E+02  0.33827234956E+03  0.34188513165E+03  0.47000000000E+01 0.  1.
         13    1    6    6    0    0 -0.38448871171E+02  0.93527362832E+01  0.64887602476E+02  0.76001252131E+02  0.00000000000E+00 0. -1.
        -14    1    6    6    0    0 -0.27231848595E+02  0.54454083498E+02  0.39450312878E+03  0.39917357052E+03  0.00000000000E+00 0.  1.
</event>
<event>
12    1  0.2609167E-002  0.1921183E+03  0.7818608E-02  0.1156565E+00
         -2   -1    0    0    0  501 -0.00000000000E+00  0.00000000000E+00  0.46342901146E+02  0.46342901146E+02  0.00000000000E+00 0.  1.
          2   -1    0    0  502    0  0.00000000000E+00 -0.00000000000E+00 -0.79657298632E+03  0.79657298632E+03  0.00000000000E+00 0. -1.
          6    2    1    2  502    0 -0.81087058520E+02  0.19795899029E+02 -0.37434197521E+03  0.42152300908E+03  0.17487922721E+03 0.  0.
         24    2    3    3    0    0 -0.74488298764E+02  0.74524580305E+02 -0.30900256360E+03  0.33590700069E+03  0.79047511526E+02 0.  0.
         -6    2    1    2    0  501  0.81087058520E+02 -0.19795899029E+02 -0.37588810997E+03  0.42139287838E+03  0.17121068324E+03 0.  0.
        -24    2    5    5    0    0  0.23564740672E+02 -0.42079235890E+02 -0.33401165711E+03  0.34668617549E+03  0.79382353801E+02 0.  0.
          5    1    3    3  502    0 -0.65987597565E+01 -0.54728681276E+02 -0.65339411602E+02  0.85616008392E+02  0.47000000000E+01 0. -1.
        -11    1    4    4    0    0 -0.50622504074E+02  0.83819131586E+02 -0.28277241242E+03  0.29924659056E+03  0.00000000000E+00 0.  1.
         12    1    4    4    0    0 -0.23865794690E+02 -0.92945512803E+01 -0.26230151183E+02  0.36660410128E+02  0.00000000000E+00 0. -1.
         -5    1    5    5    0  501  0.57522317848E+02  0.22283336860E+02 -0.41876452853E+02  0.74706702884E+02  0.47000000000E+01 0.  1.
         13    1    6    6    0    0 -0.24303590653E+02 -0.37219818287E+02 -0.17476573173E+03  0.18033036455E+03  0.00000000000E+00 0. -1.
        -14    1    6    6    0    0  0.47868331325E+02 -0.48594176030E+01 -0.15924592539E+03  0.16635581095E+03  0.00000000000E+00 0.  1.
</event>
<event>
12    1  0.2609167E-002  0.2117399E+03  0.7818608E-02  0.1140196E+00
         -2   -1    0    0    0  501 -0.00000000000E+00  0.00000000000E+00  0.28095705361E+02  0.28095705361E+02  0.00000000000E+00 0.  1.
          2   -1    0    0  502    0  0.00000000000E+00 -0.00000000000E+00 -0.16156598630E+04  0.16156598630E+04  0.00000000000E+00 0. -1.
          6    2    1    2  502    0  0.11603365526E+03  0.44837864345E+02 -0.88562190580E+03  0.91062058903E+03  0.17155014983E+03 0.  0.
         24    2    3    3    0    0  0.31428364352E+02  0.77133418441E+02 -0.38566769506E+03  0.40250902560E+03  0.79603004628E+02 0.  0.
         -6    2    1    2    0  501 -0.11603365526E+03 -0.44837864345E+02 -0.70194225186E+03  0.73313497935E+03  0.17114242538E+03 0.  0.
        -24    2    5    5    0    0 -0.14025812539E+03 -0.49296726396E+01 -0.58959974197E+03  0.61138762518E+03  0.80438355817E+02 0.  0.
          5    1    3    3  502    0  0.84605290912E+02 -0.32295554096E+02 -0.49995421074E+03  0.50811156344E+03  0.47000000000E+01 0. -1.
        -13    1    4    4    0    0  0.31724789651E+02  0.66327211780E+02 -0.38469170764E+03  0.39165478579E+03  0.00000000000E+00 0.  1.
         14    1    4    4    0    0 -0.29642529864E+00  0.10806206661E+02 -0.97598741775E+00  0.10854239808E+02  0.00000000000E+00 0. -1.
         -5    1    5    5    0  501  0.24224470121E+02 -0.39908191706E+02 -0.11234250989E+03  0.12174735417E+03  0.47000000000E+01 0.  1.
         11    1    6    6    0    0 -0.12220719468E+03  0.15728584666E+02 -0.54709570591E+03  0.56079916033E+03  0.00000000000E+00 0. -1.
        -12    1    6    6    0    0 -0.18050930710E+02 -0.20658257306E+02 -0.42504036062E+02  0.50588464851E+02  0.00000000000E+00 0.  1.
</event>
<event>
12    1  0.2609167E-002  0.1744089E+03  0.7818608E-02  0.1173327E+00
         -1   -1    0    0    0  501 -0.00000000000E+00  0.00000000000E+00  0.16282508622E+03  0.16282508622E+03  0.00000000000E+00 0.  1.
          1   -1    0    0  502    0  0.00000000000E+00 -0.00000000000E+00 -0.22865221433E+03  0.22865221433E+03  0.00000000000E+00 0. -1.
          6    2    1    2  502    0  0.44918856451E+02 -0.18233634608E+02  0.51357950878E+02  0.17757087104E+03  0.16292208576E+03 0.  0.
         24    2    3    3    0    0  0.63751644629E+02 -0.24931835829E+02  0.86833801793E+02  0.13658104537E+03  0.80177329653E+02 0.  0.
         -6    2    1    2    0  501 -0.44918856451E+02  0.18233634608E+02 -0.11718507899E+03  0.21390642951E+03  0.17225982919E+03 0.  0.
        -24    2    5    5    0    0  0.94990184997E+01 -0.38580100541E+02 -0.99515328341E+02  0.13313876455E+03  0.79018823958E+02 0.  0.
          5    1    3    3  502    0 -0.18832788178E+02  0.66982012215E+01 -0.35475850914E+02  0.40989825668E+02  0.47000000000E+01 0. -1.
        -13    1    4    4    0    0 -0.18018307456E+02  0.66350691169E+00  0.25407322099E+02  0.31154962064E+02  0.00000000000E+00 0.  1.
         14    1    4    4    0    0  0.81769952085E+02 -0.25595342741E+02  0.61426479694E+02  0.10542608331E+03  0.00000000000E+00 0. -1.
         -5    1    5    5    0  501 -0.54417874951E+02  0.56813735149E+02 -0.17669750652E+02  0.80767664964E+02  0.47000000000E+01 0.  1.
         13    1    6    6    0    0  0.50948663589E+01 -0.62156938676E+02 -0.83816352336E+02  0.10447307599E+03  0.00000000000E+00 0. -1.
        -14    1    6    6    0    0  0.44041521408E+01  0.23576838135E+02 -0.15698976006E+02  0.28665688552E+02  0.00000000000E+00 0.  1.
</event>
<event>
12    1  0.2609167E-002  0.2505686E+03  0.7818608E-02  0.1112946E+00
         -1   -1    0    0    0  501 -0.00000000000E+00  0.00000000000E+00  0.39163928340E+02  0.39163928340E+02  0.00000000000E+00 0.  1.
          1   -1    0    0  502    0  0.00000000000E+00 -0.00000000000E+00 -0.16864557816E+04  0.16864557816E+04  0.00000000000E+00 0. -1.
          6    2    1    2  502    0  0.33072308131E+01  0.18251100945E+03 -0.63288466118E+03  0.68080307139E+03  0.17212966426E+03 0.  0.
         24    2    3    3    0    0  0.38282981689E+02  0.18003251376E+03 -0.60169240556E+03  0.63363854128E+03  0.74744614443E+02 0.  0.
         -6    2    1    2    0  501 -0.33072308131E+01 -0.18251100945E+03 -0.10144071921E+04  0.10448166386E+04  0.17116848568E+03 0.  0.
        -24    2    5    5    0    0 -0.56058848350E+02 -0.15996864249E+03 -0.85264803501E+03  0.87312212391E+03  0.81246603564E+02 0.  0.
          5    1    3    3  502    0 -0.34975750875E+02  0.24784956893E+01 -0.31192255614E+02  0.47164530110E+02  0.47000000000E+01 0. -1.
        -11    1    4    4    0    0 -0.16325389198E+02  0.90527279405E+02 -0.23885784055E+03  0.25595854086E+03  0.00000000000E+00 0.  1.
         12    1    4    4    0    0  0.54608370887E+02  0.89505234357E+02 -0.36283456501E+03  0.37768000042E+03  0.00000000000E+00 0. -1.
         -5    1    5    5    0  501  0.52751617537E+02 -0.22542366958E+02 -0.16175915708E+03  0.17169451465E+03  0.47000000000E+01 0.  1.
         11    1    6    6    0    0 -0.21884764200E+02 -0.13683012806E+03 -0.74613199375E+03  0.75889022852E+03  0.00000000000E+00 0. -1.
        -12    1    6    6    0    0 -0.34174084150E+02 -0.23138514430E+02 -0.10651604126E+03  0.11423189539E+03  0.00000000000E+00 0.  1.
</event>
<event>
12    1  0.2609167E-002  0.1908708E+03  0.7818608E-02  0.1157678E+00
          2   -1    0    0  502    0  0.00000000000E+00  0.00000000000E+00  0.20533540828E+03  0.20533540828E+03  0.00000000000E+00 0.  1.
         -2   -1    0    0    0  501 -0.00000000000E+00 -0.00000000000E+00 -0.23031016505E+03  0.23031016505E+03  0.00000000000E+00 0. -1.
          6    2    1    2  502    0 -0.74790108110E+02  0.12342769057E+02  0.91706321639E+02  0.21428020129E+03  0.17821349841E+03 0.  0.
         24    2    3    3    0    0 -0.54269275882E+02 -0.40201970760E+02  0.46736166964E+01  0.11045902827E+03  0.87281163348E+02 0.  0.
         -6    2    1    2    0  501  0.74790108110E+02 -0.12342769057E+02 -0.11668107841E+03  0.22136537204E+03  0.17216924714E+03 0.  0.
        -24    2    5    5    0    0  0.46680393770E+02  0.45526061026E+02 -0.11911196529E+03  0.15681340270E+03  0.78428958897E+02 0.  0.
          5    1    3    3  502    0 -0.20520832228E+02  0.52544739817E+02  0.87032704943E+02  0.10382117302E+03  0.47000000000E+01 0. -1.
        -11    1    4    4    0    0 -0.57443934591E+02 -0.53321669775E+02  0.28232483334E+02  0.83307137774E+02  0.00000000000E+00 0.  1.
         12    1    4    4    0    0  0.31746587092E+01  0.13119699015E+02 -0.23558866638E+02  0.27151890495E+02  0.00000000000E+00 0. -1.
         -5    1    5    5    0  501  0.28109714340E+02 -0.57868830083E+02  0.24308868881E+01  0.64551969347E+02  0.47000000000E+01 0.  1.
         11    1    6    6    0    0  0.19436201918E+02 -0.21457420745E+02 -0.25939618569E+02  0.38872235098E+02  0.00000000000E+00 0. -1.
        -12    1    6    6    0    0  0.27244191852E+02  0.66983481771E+02 -0.93172346726E+02  0.11794116760E+03  0.00000000000E+00 0.  1.
</event>
<event>
12    1  0.2609167E-002  0.2082465E+03  0.7818608E-02  0.1142962E+00
         -2   -1    0    0    0  501 -0.00000000000E+00  0.00000000000E+00  0.60053230852E+02  0.60053230852E+02  0.00000000000E+00 0. -1.
          2   -1    0    0  502    0  0.00000000000E+00 -0.00000000000E+00 -0.72935282529E+03  0.72935282529E+03  0.00000000000E+00 0.  1.
          6    2    1    2  502    0  0.78100679080E+02 -0.88935379407E+02 -0.37289616937E+03  0.42679920518E+03  0.17057781401E+03 0.  0.
         24    2    3    3    0    0  0.49313954644E+02 -0.93498314647E+02 -0.37452099325E+03  0.39723189326E+03  0.79708228389E+02 0.  0.
         -6    2    1    2    0  501 -0.78100679080E+02  0.88935379407E+02 -0.29640342506E+03  0.36260685095E+03  0.17210322538E+03 0.  0.
        -24    2    5    5    0    0 -0.85976464430E+02  0.12426441811E+03 -0.27370424538E+03  0.31962415991E+03  0.66422824534E+02 0.  0.
          5    1    3    3  502    0  0.28786724436E+02  0.45629352396E+01  0.16248238805E+01  0.29567311924E+02  0.47000000000E+01 0. -1.
        -13    1    4    4    0    0  0.66123386297E+02 -0.42305957750E+02 -0.21969950693E+03  0.23330231379E+03  0.00000000000E+00 0.  1.
         14    1    4    4    0    0 -0.16809431653E+02 -0.51192356897E+02 -0.15482148632E+03  0.16392957947E+03  0.00000000000E+00 0. -1.
         -5    1    5    5    0  501  0.78757853491E+01 -0.35329038703E+02 -0.22699179686E+02  0.42982691039E+02  0.47000000000E+01 0.  1.
         11    1    6    6    0    0 -0.59730204943E+02  0.29604291615E+02 -0.11775703912E+03  0.13531752187E+03  0.00000000000E+00 0. -1.
        -12    1    6    6    0    0 -0.26246259487E+02  0.94660126496E+02 -0.15594720626E+03  0.18430663804E+03  0.00000000000E+00 0.  1.
</event>
<event>
12    1  0.2609167E-002  0.2492724E+03  0.7818608E-02  0.1113766E+00
         -1   -1    0    0    0  501 -0.00000000000E+00  0.00000000000E+00  0.10324579691E+03  0.10324579691E+03  0.00000000000E+00 0.  1.
          1   -1    0    0  502    0  0.00000000000E+00 -0.00000000000E+00 -0.70738038484E+03  0.70738038484E+03  0.00000000000E+00 0. -1.
          6    2    1    2  502    0 -0.16555532695E+03  0.71514471729E+02 -0.45826336503E+03  0.52150312960E+03  0.17157306465E+03 0.  0.
         24    2    3    3    0    0 -0.12098276349E+03  0.38350392913E+02 -0.43669615510E+03  0.46172182751E+03  0.79849435911E+02 0.  0.
         -6    2    1    2    0  501  0.16555532695E+03 -0.71514471729E+02 -0.14587122290E+03  0.28912305214E+03  0.17260023078E+03 0.  0.
        -24    2    5    5    0    0  0.10003489451E+03 -0.11251045764E+03 -0.10273379615E+03  0.20048600846E+03  0.83515408850E+02 0.  0.
          5    1    3    3  502    0 -0.44572563454E+02  0.33164078815E+02 -0.21567209927E+02  0.59781302098E+02  0.47000000000E+01 0. -1.
        -11    1    4    4    0    0 -0.42372395120E+02  0.75200019447E+01 -0.50255232810E+02  0.66163122072E+02  0.00000000000E+00 0.  1.
         12    1    4    4    0    0 -0.78610368373E+02  0.30830390969E+02 -0.38644092229E+03  0.39555870543E+03  0.00000000000E+00 0. -1.
         -5    1    5    5    0  501  0.65520432436E+02  0.40995985914E+02 -0.43137426744E+02  0.88637043688E+02  0.47000000000E+01 0.  1.
         13    1    6    6    0    0  0.61856663545E+02 -0.80689196836E+02 -0.11052773231E+03  0.15017780435E+03  0.00000000000E+00 0. -1.
        -14    1    6    6    0    0  0.38178230966E+02 -0.31821260808E+02  0.77939361568E+01  0.50308204101E+02  0.00000000000E+00 0.  1.
</event>
<event>
12    1  0.2609167E-002  0.2165097E+03  0.7818608E-02  0.1136512E+00
         -1   -1    0    0    0  501 -0.00000000000E+00  0.00000000000E+00  0.51626142463E+03  0.51626142463E+03  0.00000000000E+00 0.  1.
          1   -1    0    0  502    0  0.00000000000E+00 -0.00000000000E+00 -0.95291292446E+02  0.95291292446E+02  0.00000000000E+00 0. -1.
          6    2    1    2  502    0  0.78691571153E+02  0.10578809074E+03  0.27656998192E+03  0.35103840174E+03  0.17132869311E+03 0.  0.
         24    2    3    3    0    0  0.41289145419E+02  0.13456275501E+03  0.24728338560E+03  0.29530046602E+03  0.79002302942E+02 0.  0.
         -6    2    1    2    0  501 -0.78691571153E+02 -0.10578809074E+03  0.14440015027E+03  0.26051431534E+03  0.17214186471E+03 0.  0.
        -24    2    5    5    0    0 -0.10193218909E+03 -0.87390582386E+02  0.16287187682E+03  0.22527386532E+03  0.78700578633E+02 0.  0.
          5    1    3    3  502    0  0.37402425734E+02 -0.28774664267E+02  0.29286596316E+02  0.55737935719E+02  0.47000000000E+01 0. -1.
        -13    1    4    4    0    0  0.32009848550E+02  0.12279013161E+02  0.86791969585E+02  0.93318007656E+02  0.00000000000E+00 0.  1.
         14    1    4    4    0    0  0.92792968688E+01  0.12228374185E+03  0.16049141602E+03  0.20198245836E+03  0.00000000000E+00 0. -1.
         -5    1    5    5    0  501  0.23240617935E+02 -0.18397508354E+02 -0.18471726552E+02  0.35240450017E+02  0.47000000000E+01 0.  1.
         13    1    6    6    0    0  0.20288594811E+01 -0.39540825407E+02  0.28572206633E+02  0.48825855206E+02  0.00000000000E+00 0. -1.
        -14    1    6    6    0    0 -0.10396104857E+03 -0.47849756979E+02  0.13429967018E+03  0.17644801012E+03  0.00000000000E+00 0.  1.
</event>
<event>
12    1  0.2609167E-002  0.1883965E+03  0.7818608E-02  0.1159916E+00
         -2   -1    0    0    0  501 -0.00000000000E+00  0.00000000000E+00  0.30799604011E+03  0.30799604011E+03  0.00000000000E+00 0. -1.
          2   -1    0    0  502    0  0.00000000000E+00 -0.00000000000E+00 -0.13222358059E+03  0.13222358059E+03  0.00000000000E+00 0.  1.
          6    2    1    2  502    0 -0.78044119112E+02  0.81083302631E+01  0.93377348464E+01  0.18944856993E+03  0.17218286154E+03 0.  0.
         24    2    3    3    0    0  0.83405888482E+01 -0.15869477590E+02 -0.35512587824E+02  0.89094723554E+02  0.79720261728E+02 0.  0.
         -6    2    1    2    0  501  0.78044119112E+02 -0.81083302631E+01  0.16643472467E+03  0.25077105077E+03  0.17037890944E+03 0.  0.
        -24    2    5    5    0    0  0.17691777840E+02 -0.63763429944E+00  0.17440348099E+03  0.18925838970E+03  0.71335533301E+02 0.  0.
          5    1    3    3  502    0 -0.86384707960E+02  0.23977807853E+02  0.44850322670E+02  0.10035384638E+03  0.47000000000E+01 0. -1.
        -13    1    4    4    0    0  0.77298698634E+01  0.20906118888E+02 -0.45771457990E+02  0.50910146942E+02  0.00000000000E+00 0.  1.
         14    1    4    4    0    0  0.61071898473E+00 -0.36775596478E+02  0.10258870167E+02  0.38184576613E+02  0.00000000000E+00 0. -1.
         -5    1    5    5    0  501  0.60352341272E+02 -0.74706959637E+01 -0.79687563163E+01  0.61512661074E+02  0.47000000000E+01 0.  1.
         13    1    6    6    0    0  0.10705422731E+02 -0.35936409692E+02  0.91137903543E+02  0.98550236325E+02  0.00000000000E+00 0. -1.
        -14    1    6    6    0    0  0.69863551089E+01  0.35298775393E+02  0.83265577442E+02  0.90708153375E+02  0.00000000000E+00 0.  1.
</event>
<event>
12    1  0.2609167E-002  0.1694884E+03  0.7818608E-02  0.1178382E+00
         -2   -1    0    0    0  501 -0.00000000000E+00  0.00000000000E+00  0.38247875063E+02  0.38247875063E+02  0.00000000000E+00 0.  1.
          2   -1    0    0  502    0  0.00000000000E+00 -0.00000000000E+00 -0.75324510664E+03  0.75324510664E+03  0.00000000000E+00 0. -1.
          6    2    1    2  502    0  0.21012483975E+02 -0.40420591424E+02 -0.35983314195E+03  0.40096924154E+03  0.17094178518E+03 0.  0.
         24    2    3    3    0    0  0.41068928808E+02  0.73778989972E+01 -0.94957342171E+02  0.13102807022E+03  0.80064774063E+02 0.  0.
         -6    2    1    2    0  501 -0.21012483975E+02  0.40420591424E+02 -0.35516408963E+03  0.39052374016E+03  0.15585862946E+03 0.  0.
        -24    2    5    5    0    0  0.29259399530E+02  0.10164968540E+02 -0.11745926566E+03  0.14563940354E+03  0.80341257940E+02 0.  0.
          5    1    3    3  502    0 -0.20056444833E+02 -0.47798490421E+02 -0.26487579978E+03  0.26994117132E+03  0.47000000000E+01 0. -1.
        -13    1    4    4    0    0  0.56097589718E+02 -0.13919752788E+02 -0.85695053832E+02  0.10336508763E+03  0.00000000000E+00 0.  1.
         14    1    4    4    0    0 -0.15028660909E+02  0.21297651785E+02 -0.92622883391E+01  0.27662982586E+02  0.00000000000E+00 0. -1.
         -5    1    5    5    0  501 -0.50271883505E+02  0.30255622885E+02 -0.23770482396E+03  0.24488433662E+03  0.47000000000E+01 0.  1.
         11    1    6    6    0    0  0.26677378285E+02 -0.31569282964E+02 -0.77340165113E+02  0.87691523414E+02  0.00000000000E+00 0. -1.
        -12    1    6    6    0    0  0.25820212452E+01  0.41734251503E+02 -0.40119100551E+02  0.57947880128E+02  0.00000000000E+00 0.  1.
</event>
<event>
12    1  0.2609167E-002  0.1911597E+03  0.7818608E-02  0.1157419E+00
          2   -1    0    0  502    0  0.00000000000E+00  0.00000000000E+00  0.16741914981E+03  0.16741914981E+03  0.00000000000E+00 0.  1.
         -2   -1    0    0    0  501 -0.00000000000E+00 -0.00000000000E+00 -0.22271465160E+03  0.22271465160E+03  0.00000000000E+00 0. -1.
          6    2    1    2  502    0 -0.68475039965E+02  0.35374158007E+02 -0.55469570902E+02  0.20336039664E+03  0.17982885050E+03 0.  0.
         24    2    3    3    0    0 -0.55474800923E+02  0.89334900487E+02 -0.13729817988E+02  0.13375389610E+03  0.81507170463E+02 0.  0.
         -6    2    1    2    0  501  0.68475039965E+02 -0.35374158007E+02  0.17406910934E+00  0.18677340477E+03  0.17012969252E+03 0.  0.
        -24    2    5    5    0    0  0.43235108104E+02 -0.59464532650E+02  0.55528444488E+02  0.12117159698E+03  0.78700969196E+02 0.  0.
          5    1    3    3  502    0 -0.13000239042E+02 -0.53960742480E+02 -0.41739752914E+02  0.69606500540E+02  0.47000000000E+01 0. -1.
        -13    1    4    4    0    0 -0.39207010632E+02  0.12961492722E+02  0.23210823541E+02  0.47370162611E+02  0.00000000000E+00 0.  1.
         14    1    4    4    0    0 -0.16267790291E+02  0.76373407765E+02 -0.36940641529E+02  0.86383733487E+02  0.00000000000E+00 0. -1.
         -5    1    5    5    0  501  0.25239931861E+02  0.24090374643E+02 -0.55354375379E+02  0.65601807783E+02  0.47000000000E+01 0.  1.
         13    1    6    6    0    0 -0.13713711930E+02  0.91172749625E+01  0.63120578358E+00  0.16479958082E+02  0.00000000000E+00 0. -1.
        -14    1    6    6    0    0  0.56948820034E+02 -0.68581807613E+02  0.54897238705E+02  0.10469163890E+03  0.00000000000E+00 0.  1.
</event>
<event>
12    1  0.2609167E-002  0.1781581E+03  0.7818608E-02  0.1169598E+00
         -2   -1    0    0    0  501 -0.00000000000E+00  0.00000000000E+00  0.16041901530E+03  0.16041901530E+03  0.00000000000E+00 0. -1.
          2   -1    0    0  502    0  0.00000000000E+00 -0.00000000000E+00 -0.23245827647E+03  0.23245827647E+03  0.00000000000E+00 0.  1.
          6    2    1    2  502    0 -0.22771979793E+02  0.38802469717E+02  0.39734916777E+02  0.18271314949E+03  0.17257183045E+03 0.  0.
         24    2    3    3    0    0  0.11510166243E+02  0.73717212316E+02 -0.12784008298E+02  0.11077823252E+03  0.80880619520E+02 0.  0.
         -6    2    1    2    0  501  0.22771979793E+02 -0.38802469717E+02 -0.11177417795E+03  0.21016414229E+03  0.17219554328E+03 0.  0.
        -24    2    5    5    0    0 -0.18017307347E+02 -0.77903116745E+02 -0.10241092506E+03  0.15269774299E+03  0.80218976427E+02 0.  0.
          5    1    3    3  502    0 -0.34282146037E+02 -0.34914742598E+02  0.52518925075E+02  0.71934916964E+02  0.47000000000E+01 0. -1.
        -13    1    4    4    0    0  0.41123937979E+02  0.52650641970E+02 -0.26585821885E+02  0.71903228717E+02  0.00000000000E+00 0.  1.
         14    1    4    4    0    0 -0.29613771735E+02  0.21066570346E+02  0.13801813587E+02  0.38875003805E+02  0.00000000000E+00 0. -1.
         -5    1    5    5    0  501  0.40789287141E+02  0.39100647028E+02 -0.93632528897E+01  0.57466399296E+02  0.47000000000E+01 0.  1.
         13    1    6    6    0    0  0.19192620163E+02 -0.56500469242E+02 -0.26073769122E+02  0.65119130288E+02  0.00000000000E+00 0. -1.
        -14    1    6    6    0    0 -0.37209927510E+02 -0.21402647503E+02 -0.76337155941E+02  0.87578612701E+02  0.00000000000E+00 0.  1.
</event>
<event>
12    1  0.2609167E-002  0.2087549E+03  0.7818608E-02  0.1142556E+00
         -2   -1    0    0    0  501 -0.00000000000E+00  0.00000000000E+00  0.59683456474E+02  0.59683456474E+02  0.00000000000E+00 0.  1.
          2   -1    0    0  502    0  0.00000000000E+00 -0.00000000000E+00 -0.75903251823E+03  0.75903251823E+03  0.00000000000E+00 0. -1.
          6    2    1    2  502    0 -0.11272982400E+03  0.36559465726E+02 -0.42908342697E+03  0.47705462169E+03  0.17153401127E+03 0.  0.
         24    2    3    3    0    0 -0.10816170673E+03 -0.17017404468E+02 -0.20051030538E+03  0.24219485368E+03  0.80407821310E+02 0.  0.
         -6    2    1    2    0  501  0.11272982400E+03 -0.36559465726E+02 -0.27026563479E+03  0.34166135301E+03  0.17217537293E+03 0.  0.
        -24    2    5    5    0    0  0.17284052880E+02 -0.61466403732E+02 -0.18273182080E+03  0.20969730725E+03  0.80654727456E+02 0.  0.
          5    1    3    3  502    0 -0.45681172619E+01  0.53576870194E+02 -0.22857312159E+03  0.23485976801E+03  0.47000000000E+01 0. -1.
        -13    1    4    4    0    0 -0.28975974297E+02 -0.99014990044E+01 -0.48557144458E+01  0.31003624494E+02  0.00000000000E+00 0.  1.
         14    1    4    4    0    0 -0.79185732438E+02 -0.71159054635E+01 -0.19565459093E+03  0.21119122919E+03  0.00000000000E+00 0. -1.
         -5    1    5    5    0  501  0.95445771117E+02  0.24906938006E+02 -0.87533813984E+02  0.13196404577E+03  0.47000000000E+01 0.  1.
         13    1    6    6    0    0 -0.85811880427E+01  0.16846838339E+02 -0.49696389495E+02  0.53171269301E+02  0.00000000000E+00 0. -1.
        -14    1    6    6    0    0  0.25865240922E+02 -0.78313242071E+02 -0.13303543131E+03  0.15652603794E+03  0.00000000000E+00 0.  1.
</event>
<event>
12    1  0.2609167E-002  0.1763089E+03  0.7818608E-02  0.1171424E+00
         -2   -1    0    0    0  501 -0.00000000000E+00  0.00000000000E+00  0.22998358553E+03  0.22998358553E+03  0.00000000000E+00 0. -1.
          2   -1    0    0  502    0  0.00000000000E+00 -0.00000000000E+00 -0.18497022212E+03  0.18497022212E+03  0.00000000000E+00 0.  1.
          6    2    1    2  502    0  0.34244820492E+02  0.19467580251E+02 -0.85083766953E+02  0.19645101774E+03  0.17263273317E+03 0.  0.
         24    2    3    3    0    0  0.64612499945E+02  0.33610820529E+02 -0.65671667944E+01  0.11095731211E+03  0.83450194884E+02 0.  0.
         -6    2    1    2    0  501 -0.34244820492E+02 -0.19467580251E+02  0.13009713037E+03  0.21850278991E+03  0.17107457864E+03 0.  0.
        -24    2    5    5    0    0 -0.32194015658E+02 -0.77961322790E+02  0.98503256590E+02  0.15182455825E+03  0.78951772834E+02 0.  0.
          5    1    3    3  502    0 -0.30367679453E+02 -0.14143240278E+02 -0.78516600159E+02  0.85493705624E+02  0.47000000000E+01 0. -1.
        -13    1    4    4    0    0  0.31389541006E+02 -0.26820916137E+02  0.26981895299E+01  0.41375657743E+02  0.00000000000E+00 0.  1.
         14    1    4    4    0    0  0.33222958939E+02  0.60431736666E+02 -0.92653563243E+01  0.69581654371E+02  0.00000000000E+00 0. -1.
         -5    1    5    5    0  501 -0.20508048343E+01  0.58493742539E+02  0.31593873776E+02  0.66678231657E+02  0.47000000000E+01 0.  1.
         13    1    6    6    0    0  0.53392311524E+01 -0.52868991225E+01  0.61658650371E+02  0.62114795799E+02  0.00000000000E+00 0. -1.
        -14    1    6    6    0    0 -0.37533246810E+02 -0.72674423667E+02  0.36844606220E+02  0.89709762451E+02  0.00000000000E+00 0.  1.
</event>
<event>
12    1  0.2609167E-002  0.2018511E+03  0.7818608E-02  0.1148187E+00
          1   -1    0    0  502    0  0.00000000000E+00  0.00000000000E+00  0.32642745913E+03  0.32642745913E+03  0.00000000000E+00 0. -1.
         -1   -1    0    0    0  501 -0.00000000000E+00 -0.00000000000E+00 -0.13531149644E+03  0.13531149644E+03  0.00000000000E+00 0.  1.
          6    2    1    2  502    0  0.20399153733E+02 -0.10440444030E+03  0.31318786772E+02  0.20438924626E+03  0.17169066648E+03 0.  0.
         24    2    3    3    0    0 -0.12481552756E+02 -0.83243465542E+02  0.86556516082E+02  0.13654954954E+03  0.63784679110E+02 0.  0.
         -6    2    1    2    0  501 -0.20399153733E+02  0.10440444030E+03  0.15979717592E+03  0.25734970930E+03  0.17139814123E+03 0.  0.
        -24    2    5    5    0    0 -0.27820520952E+01  0.13674647508E+03  0.15188298984E+03  0.21938796770E+03  0.79720132381E+02 0.  0.
          5    1    3    3  502    0  0.32880706489E+02 -0.21160974758E+02 -0.55237729310E+02  0.67839696722E+02  0.47000000000E+01 0. -1.
        -11    1    4    4    0    0 -0.10902512081E+02 -0.43200472511E+02  0.39425550454E+01  0.44729065887E+02  0.00000000000E+00 0.  1.
         12    1    4    4    0    0 -0.15790406746E+01 -0.40042993031E+02  0.82613961037E+02  0.91820483654E+02  0.00000000000E+00 0. -1.
         -5    1    5    5    0  501 -0.17617101638E+02 -0.32342034782E+02  0.79141860773E+01  0.37961741599E+02  0.47000000000E+01 0.  1.
         13    1    6    6    0    0 -0.38668970095E+02  0.45229809370E+02  0.65869455694E+02  0.88768294437E+02  0.00000000000E+00 0. -1.
        -14    1    6    6    0    0  0.35886918000E+02  0.91516665712E+02  0.86013534146E+02  0.13061967326E+03  0.00000000000E+00 0.  1.
</event>
<event>
12    1  0.2609167E-002  0.1868891E+03  0.7818608E-02  0.1161297E+00
          2   -1    0    0  502    0  0.00000000000E+00  0.00000000000E+00  0.10021575481E+04  0.10021575481E+04  0.00000000000E+00 0.  1.
         -2   -1    0    0    0  501 -0.00000000000E+00 -0.00000000000E+00 -0.39556512639E+02  0.39556512639E+02  0.00000000000E+00 0. -1.
          6    2    1    2  502    0  0.55123199921E+02  0.47604445805E+02  0.30211513480E+03  0.35534823825E+03  0.17231966029E+03 0.  0.
         24    2    3    3    0    0  0.38550963431E+02  0.85209164497E+02  0.28536986838E+03  0.31072483814E+03  0.79794641170E+02 0.  0.
         -6    2    1    2    0  501 -0.55123199921E+02 -0.47604445805E+02  0.66048590063E+03  0.68636582246E+03  0.17190598268E+03 0.  0.
        -24    2    5    5    0    0 -0.94099632220E+02 -0.34549211288E+02  0.44791887282E+03  0.46980998038E+03  0.10020834426E+03 0.  0.
          5    1    3    3  502    0  0.16572236489E+02 -0.37604718692E+02  0.16745266420E+02  0.44623400113E+02  0.47000000000E+01 0. -1.
        -13    1    4    4    0    0 -0.17652874944E+02  0.29296510452E+02  0.38802378666E+02  0.51725565329E+02  0.00000000000E+00 0.  1.
         14    1    4    4    0    0  0.56203838375E+02  0.55912654045E+02  0.24656748972E+03  0.25899927281E+03  0.00000000000E+00 0. -1.
         -5    1    5    5    0  501  0.38976432299E+02 -0.13055234517E+02  0.21256702781E+03  0.21655584207E+03  0.47000000000E+01 0.  1.
         11    1    6    6    0    0 -0.11002728021E+03 -0.45406159588E+02  0.41427448826E+03  0.43103488646E+03  0.00000000000E+00 0. -1.
        -12    1    6    6    0    0  0.15927647993E+02  0.10856948300E+02  0.33644384552E+02  0.38775093924E+02  0.00000000000E+00 0.  1.
</event>
<event>
12    1  0.2609167E-002  0.1767603E+03  0.7818608E-02  0.1170976E+00
         -2   -1    0    0    0  501 -0.00000000000E+00  0.00000000000E+00  0.88492065446E+02  0.88492065446E+02  0.00000000000E+00 0. -1.
          2   -1    0    0  502    0  0.00000000000E+00 -0.00000000000E+00 -0.86005703823E+03  0.86005703823E+03  0.00000000000E+00 0.  1.
          6    2    1    2  502    0  0.39185864177E+02 -0.14826281047E+02 -0.74927283627E+03  0.76967640376E+03  0.17098722987E+03 0.  0.
         24    2    3    3    0    0  0.47877229774E+02 -0.30251393242E+02 -0.74464696365E+03  0.75078294935E+03  0.77256460202E+02 0.  0.
         -6    2    1    2    0  501 -0.39185864177E+02  0.14826281047E+02 -0.22292136515E+02  0.17887269991E+03  0.17246203310E+03 0.  0.
        -24    2    5    5    0    0 -0.59399037954E+02  0.55999659769E+02 -0.50754186502E+02  0.12468785149E+03  0.79415774608E+02 0.  0.
          5    1    3    3  502    0 -0.86913655972E+01  0.15425112195E+02 -0.46258726247E+01  0.18893454415E+02  0.47000000000E+01 0. -1.
        -13    1    4    4    0    0  0.57217346315E+02 -0.35172307765E+02 -0.37381215607E+03  0.37979789886E+03  0.00000000000E+00 0.  1.
         14    1    4    4    0    0 -0.93401165412E+01  0.49209145223E+01 -0.37083480758E+03  0.37098505049E+03  0.00000000000E+00 0. -1.
         -5    1    5    5    0  501  0.20213173777E+02 -0.41173378722E+02  0.28462049987E+02  0.54184848427E+02  0.47000000000E+01 0.  1.
         13    1    6    6    0    0 -0.48409968199E+02  0.42957190562E+02  0.64060527675E+01  0.65037548801E+02  0.00000000000E+00 0. -1.
        -14    1    6    6    0    0 -0.10989069756E+02  0.13042469207E+02 -0.57160239269E+02  0.59650302685E+02  0.00000000000E+00 0.  1.
</event>
<event>
12    1  0.2609167E-002  0.2034289E+03  0.7818608E-02  0.1146878E+00
         -2   -1    0    0    0  501 -0.00000000000E+00  0.00000000000E+00  0.16621427162E+02  0.16621427162E+02  0.00000000000E+00 0. -1.
          2   -1    0    0  502    0  0.00000000000E+00 -0.00000000000E+00 -0.36131768820E+04  0.36131768820E+04  0.00000000000E+00 0.  1.
          6    2    1    2  502    0 -0.65634023811E+02 -0.86661538529E+02 -0.78489081511E+03  0.81076754475E+03  0.17167519515E+03 0.  0.
         24    2    3    3    0    0 -0.45771567287E+02 -0.17535713566E+02 -0.35383002141E+03  0.37372247302E+03  0.10986475853E+03 0.  0.
         -6    2    1    2    0  501  0.65634023811E+02  0.86661538529E+02 -0.28116646397E+04  0.28190307644E+04  0.17221601866E+03 0.  0.
        -24    2    5    5    0    0 -0.95891135391E+01  0.30679843364E+01 -0.68936389893E+03  0.69374750633E+03  0.77211746312E+02 0.  0.
          5    1    3    3  502    0 -0.19862456525E+02 -0.69125824963E+02 -0.43106079370E+03  0.43704507173E+03  0.47000000000E+01 0. -1.
        -11    1    4    4    0    0 -0.14912371604E+01 -0.24083802054E+02 -0.31045909782E+03  0.31139541540E+03  0.00000000000E+00 0.  1.
         12    1    4    4    0    0 -0.44280330126E+02  0.65480884880E+01 -0.43370923586E+02  0.62327057620E+02  0.00000000000E+00 0. -1.
         -5    1    5    5    0  501  0.75223137350E+02  0.83593554192E+02 -0.21223007408E+04  0.21252832581E+04  0.47000000000E+01 0.  1.
         11    1    6    6    0    0 -0.38406264158E+02  0.93590914336E+01 -0.22487390303E+03  0.22832193496E+03  0.00000000000E+00 0. -1.
        -12    1    6    6    0    0  0.28817150619E+02 -0.62911070972E+01 -0.46448999590E+03  0.46542557137E+03  0.00000000000E+00 0.  1.
</event>
<event>
12    1  0.2609167E-002  0.4785890E+03  0.7818608E-02  0.1019524E+00
         -1   -1    0    0    0  501 -0.00000000000E+00  0.00000000000E+00  0.23324034519E+03  0.23324034519E+03  0.00000000000E+00 0.  1.
          1   -1    0    0  502    0  0.00000000000E+00 -0.00000000000E+00 -0.11158568044E+04  0.11158568044E+04  0.00000000000E+00 0. -1.
          6    2    1    2  502    0  0.23778680074E+03 -0.37833358859E+03 -0.20778106779E+03  0.52184122342E+03  0.17165786749E+03 0.  0.
         24    2    3    3    0    0  0.16253606127E+03 -0.33177005497E+03 -0.21055487339E+03  0.43318108328E+03  0.82602394707E+02 0.  0.
         -6    2    1    2    0  501 -0.23778680074E+03  0.37833358859E+03 -0.67483539144E+03  0.82725592618E+03  0.17108680546E+03 0.  0.
        -24    2    5    5    0    0 -0.18618586969E+03  0.34633427727E+03 -0.49301484863E+03  0.63550762294E+03  0.78699988294E+02 0.  0.
          5    1    3    3  502    0  0.75250739463E+02 -0.46563533621E+02  0.27738056049E+01  0.88660140145E+02  0.47000000000E+01 0. -1.
        -13    1    4    4    0    0  0.56787258074E+02 -0.14415777875E+03 -0.44409365698E+02  0.16117831621E+03  0.00000000000E+00 0.  1.
         14    1    4    4    0    0  0.10574880320E+03 -0.18761227622E+03 -0.16614550770E+03  0.27200276707E+03  0.00000000000E+00 0. -1.
         -5    1    5    5    0  501 -0.51600931047E+02  0.31999311319E+02 -0.18182054280E+03  0.19174830324E+03  0.47000000000E+01 0.  1.
         11    1    6    6    0    0 -0.18211357302E+03  0.33606605278E+03 -0.49377487115E+03  0.62443523979E+03  0.00000000000E+00 0. -1.
        -12    1    6    6    0    0 -0.40722966699E+01  0.10268224488E+02  0.76002252279E+00  0.11072383147E+02  0.00000000000E+00 0.  1.
</event>
<event>
12    1  0.2609167E-002  0.1915334E+03  0.7818608E-02  0.1157086E+00
         -2   -1    0    0    0  501 -0.00000000000E+00  0.00000000000E+00  0.11866579588E+02  0.11866579588E+02  0.00000000000E+00 0.  1.
          2   -1    0    0  502    0  0.00000000000E+00 -0.00000000000E+00 -0.31038277910E+04  0.31038277910E+04  0.00000000000E+00 0. -1.
          6    2    1    2  502    0 -0.83106320812E+02  0.38609784844E+01 -0.16430078577E+04  0.16541152799E+04  0.17233969732E+03 0.  0.
         24    2    3    3    0    0 -0.63404224116E+02  0.16405837111E+02 -0.49545385050E+03  0.50631397508E+03  0.81179284635E+02 0.  0.
         -6    2    1    2    0  501  0.83106320812E+02 -0.38609784844E+01 -0.14489533537E+04  0.14615790906E+04  0.17270219793E+03 0.  0.
        -24    2    5    5    0    0  0.48468081702E+02  0.62359040874E+02 -0.10414492939E+04  0.10472524715E+04  0.76702687686E+02 0.  0.
          5    1    3    3  502    0 -0.19702096697E+02 -0.12544858626E+02 -0.11475540072E+04  0.11478013049E+04  0.47000000000E+01 0. -1.
        -11    1    4    4    0    0 -0.16262522341E+02  0.19852507204E+02 -0.38890988067E+03  0.38975567598E+03  0.00000000000E+00 0.  1.
         12    1    4    4    0    0 -0.47141701775E+02 -0.34466700931E+01 -0.10654396983E+03  0.11655829910E+03  0.00000000000E+00 0. -1.
         -5    1    5    5    0  501  0.34638239110E+02 -0.66220019359E+02 -0.40750405978E+03  0.41432661912E+03  0.47000000000E+01 0.  1.
         11    1    6    6    0    0 -0.16991735633E+02  0.20856249445E+02 -0.44125142364E+03  0.44207071955E+03  0.00000000000E+00 0. -1.
        -12    1    6    6    0    0  0.65459817335E+02  0.41502791430E+02 -0.60019787029E+03  0.60518175194E+03  0.00000000000E+00 0.  1.
</event>
<event>
12    1  0.2609167E-002  0.2262670E+03  0.7818608E-02  0.1129295E+00
          1   -1    0    0  502    0  0.00000000000E+00  0.00000000000E+00  0.76041980927E+03  0.76041980927E+03  0.00000000000E+00 0. -1.
         -1   -1    0    0    0  501 -0.00000000000E+00 -0.00000000000E+00 -0.69147517631E+02  0.69147517631E+02  0.00000000000E+00 0.  1.
          6    2    1    2  502    0 -0.27258595388E+02  0.14310194065E+03  0.41163407039E+03  0.46930720136E+03  0.17200420026E+03 0.  0.
         24    2    3    3    0    0 -0.70409579178E+02  0.78692693620E+02  0.17200158891E+03  0.21740171377E+03  0.80801668859E+02 0.  0.
         -6    2    1    2    0  501  0.27258595388E+02 -0.14310194065E+03  0.27963822126E+03  0.36026012554E+03  0.17426596577E+03 0.  0.
        -24    2    5    5    0    0 -0.37618863282E+02 -0.29099149539E+02  0.14443447838E+03  0.17182482335E+03  0.80003199901E+02 0.  0.
          5    1    3    3  502    0  0.43150983790E+02  0.64409247035E+02  0.23963248147E+03  0.25190548760E+03  0.47000000000E+01 0. -1.
        -11    1    4    4    0    0 -0.44506753204E+02 -0.53348062620E+01  0.63907215360E+02  0.78060511231E+02  0.00000000000E+00 0.  1.
         12    1    4    4    0    0 -0.25902825974E+02  0.84027499882E+02  0.10809437356E+03  0.13934120254E+03  0.00000000000E+00 0. -1.
         -5    1    5    5    0  501  0.64877458669E+02 -0.11400279112E+03  0.13520374287E+03  0.18843530219E+03  0.47000000000E+01 0.  1.
         11    1    6    6    0    0 -0.54716352245E+02 -0.77789506488E+01  0.12922838462E+03  0.14055022827E+03  0.00000000000E+00 0. -1.
        -12    1    6    6    0    0  0.17097488963E+02 -0.21320198891E+02  0.15206093763E+02  0.31274595075E+02  0.00000000000E+00 0.  1.
</event>
<event>
12    1  0.2609167E-002  0.1887258E+03  0.7818608E-02  0.1159616E+00
          1   -1    0    0  502    0  0.00000000000E+00  0.00000000000E+00  0.48007573414E+02  0.48007573414E+02  0.00000000000E+00 0. -1.
         -1   -1    0    0    0  501 -0.00000000000E+00 -0.00000000000E+00 -0.78696434252E+03  0.78696434252E+03  0.00000000000E+00 0.  1.
          6    2    1    2  502    0 -0.74833164908E+02 -0.12860207481E+02 -0.27022358263E+03  0.32979944650E+03  0.17315167571E+03 0.  0.
         24    2    3    3    0    0 -0.10537689549E+03 -0.13303229153E+02 -0.12926048490E+03  0.18548797549E+03  0.80101498654E+02 0.  0.
         -6    2    1    2    0  501  0.74833164908E+02  0.12860207481E+02 -0.46873318648E+03  0.50517246943E+03  0.17240370140E+03 0.  0.
        -24    2    5    5    0    0 -0.24227754300E+02  0.74966992907E+01 -0.15759973791E+03  0.17857187887E+03  0.80044075085E+02 0.  0.
          5    1    3    3  502    0  0.30543730578E+02  0.44302167266E+00 -0.14096309772E+03  0.14431147101E+03  0.47000000000E+01 0. -1.
        -11    1    4    4    0    0 -0.61866999813E+02 -0.41635099802E+02 -0.10339315396E+03  0.12748000426E+03  0.00000000000E+00 0.  1.
         12    1    4    4    0    0 -0.43509895673E+02  0.28331870649E+02 -0.25867330945E+02  0.58007971229E+02  0.00000000000E+00 0. -1.
         -5    1    5    5    0  501  0.99060919207E+02  0.53635081901E+01 -0.31113344857E+03  0.32660059056E+03  0.47000000000E+01 0.  1.
         13    1    6    6    0    0  0.12394077948E+01 -0.34676702387E+02 -0.64820736014E+02  0.73523721597E+02  0.00000000000E+00 0. -1.
        -14    1    6    6    0    0 -0.25467162094E+02  0.42173401678E+02 -0.92779001894E+02  0.10504815727E+03  0.00000000000E+00 0.  1.
</event>
<event>
12    1  0.2609167E-002  0.2289340E+03  0.7818608E-02  0.1127392E+00
          2   -1    0    0  502    0  0.00000000000E+00  0.00000000000E+00  0.72510507730E+03  0.72510507730E+03  0.00000000000E+00 0. -1.
         -2   -1    0    0    0  501 -0.00000000000E+00 -0.00000000000E+00 -0.72860702880E+02  0.72860702880E+02  0.00000000000E+00 0.  1.
          6    2    1    2  502    0 -0.14843250872E+03  0.35285076530E+02  0.28946005190E+03  0.36857888105E+03  0.16966444424E+03 0.  0.
         24    2    3    3    0    0 -0.81049243600E+02  0.84961831016E+02  0.14719781996E+03  0.20344585289E+03  0.77042353527E+02 0.  0.
         -6    2    1    2    0  501  0.14843250872E+03 -0.35285076530E+02  0.36278432252E+03  0.42938689913E+03  0.17170730389E+03 0.  0.
        -24    2    5    5    0    0  0.87390166153E+02 -0.80871695105E+02  0.29057687479E+03  0.32431400593E+03  0.81039385910E+02 0.  0.
          5    1    3    3  502    0 -0.67383265116E+02 -0.49676754486E+02  0.14226223194E+03  0.16513302816E+03  0.47000000000E+01 0. -1.
        -11    1    4    4    0    0 -0.93380284657E+02  0.87240387928E+02  0.13622092565E+03  0.18678036148E+03  0.00000000000E+00 0.  1.
         12    1    4    4    0    0  0.12331041057E+02 -0.22785569117E+01  0.10976894313E+02  0.16665491409E+02  0.00000000000E+00 0. -1.
         -5    1    5    5    0  501  0.61042342564E+02  0.45586618575E+02  0.72207447727E+02  0.10507289320E+03  0.47000000000E+01 0.  1.
         11    1    6    6    0    0  0.69139781949E+02 -0.11280599511E+02  0.11627059944E+03  0.13574392681E+03  0.00000000000E+00 0. -1.
        -12    1    6    6    0    0  0.18250384203E+02 -0.69591095594E+02  0.17430627535E+03  0.18857007911E+03  0.00000000000E+00 0.  1.
</event>
<event>
12    1  0.2609167E-002  0.4661002E+03  0.7818608E-02  0.1023027E+00
          1   -1    0    0  502    0  0.00000000000E+00  0.00000000000E+00  0.12434965936E+04  0.12434965936E+04  0.00000000000E+00 0.  1.
         -1   -1    0    0    0  501 -0.00000000000E+00 -0.00000000000E+00 -0.17526665284E+03  0.17526665284E+03  0.00000000000E+00 0. -1.
          6    2    1    2  502    0  0.62385248430E+02  0.42887131602E+03  0.49381570465E+03  0.67888440314E+03  0.17090218765E+03 0.  0.
         24    2    3    3    0    0 -0.15335825487E+02  0.32131788903E+03  0.37112073431E+03  0.49809598887E+03  0.82997839369E+02 0.  0.
         -6    2    1    2    0  501 -0.62385248430E+02 -0.42887131602E+03  0.57441423613E+03  0.73987884333E+03  0.17218148336E+03 0.  0.
        -24    2    5    5    0    0 -0.10460258038E+03 -0.29961106523E+03  0.36375678564E+03  0.48910171718E+03  0.78695618839E+02 0.  0.
          5    1    3    3  502    0  0.77721073917E+02  0.10755342699E+03  0.12269497034E+03  0.18078841427E+03  0.47000000000E+01 0. -1.
        -13    1    4    4    0    0 -0.17519809598E+02  0.15045148640E+02  0.11736614348E+02  0.25904600794E+02  0.00000000000E+00 0.  1.
         14    1    4    4    0    0  0.21839841111E+01  0.30627274039E+03  0.35938411996E+03  0.47219138807E+03  0.00000000000E+00 0. -1.
         -5    1    5    5    0  501  0.42217331946E+02 -0.12926025079E+03  0.21065745049E+03  0.25077712614E+03  0.47000000000E+01 0.  1.
         11    1    6    6    0    0 -0.35905947143E+02 -0.60136677516E+02  0.12900652653E+03  0.14679353157E+03  0.00000000000E+00 0. -1.
        -12    1    6    6    0    0 -0.68696633233E+02 -0.23947438771E+03  0.23475025911E+03  0.34230818562E+03  0.00000000000E+00 0.  1.
</event>
<event>
12    1  0.2609167E-002  0.3921554E+03  0.7818608E-02  0.1046530E+00
         -2   -1    0    0    0  501 -0.00000000000E+00  0.00000000000E+00  0.74413862251E+02  0.74413862251E+02  0.00000000000E+00 0. -1.
          2   -1    0    0  502    0  0.00000000000E+00 -0.00000000000E+00 -0.26574399188E+04  0.26574399188E+04  0.00000000000E+00 0.  1.
          6    2    1    2  502    0  0.31685768870E+03 -0.15432945563E+03 -0.19362667442E+04  0.19756341709E+04  0.17258359267E+03 0.  0.
         24    2    3    3    0    0  0.30114042610E+03 -0.18117231029E+03 -0.17579539268E+04  0.17945675476E+04  0.81004394660E+02 0.  0.
         -6    2    1    2    0  501 -0.31685768870E+03  0.15432945563E+03 -0.64675931234E+03  0.75621961022E+03  0.17133042643E+03 0.  0.
        -24    2    5    5    0    0 -0.14244291000E+03  0.69745591641E+01 -0.24838684939E+03  0.29702826691E+03  0.78683780439E+02 0.  0.
          5    1    3    3  502    0  0.15717262605E+02  0.26842854665E+02 -0.17831281743E+03  0.18106662323E+03  0.47000000000E+01 0. -1.
        -11    1    4    4    0    0  0.81460835385E+02 -0.12215996532E+02 -0.34570910260E+03  0.35538694671E+03  0.00000000000E+00 0.  1.
         12    1    4    4    0    0  0.21967959071E+03 -0.16895631376E+03 -0.14122448242E+04  0.14391806009E+04  0.00000000000E+00 0. -1.
         -5    1    5    5    0  501 -0.17441477870E+03  0.14735489646E+03 -0.39837246294E+03  0.45919134331E+03  0.47000000000E+01 0.  1.
         11    1    6    6    0    0 -0.13698252450E+03  0.28358227322E+02 -0.22441833483E+03  0.26444657321E+03  0.00000000000E+00 0. -1.
        -12    1    6    6    0    0 -0.54603855065E+01 -0.21383668158E+02 -0.23968514560E+02  0.32581693694E+02  0.00000000000E+00 0.  1.
</event>
<event>
12    1  0.2609167E-002  0.2071686E+03  0.7818608E-02  0.1143828E+00
          2   -1    0    0  502    0  0.00000000000E+00  0.00000000000E+00  0.49707842538E+03  0.49707842538E+03  0.00000000000E+00 0.  1.
         -2   -1    0    0    0  501 -0.00000000000E+00 -0.00000000000E+00 -0.99432929097E+02  0.99432929097E+02  0.00000000000E+00 0. -1.
          6    2    1    2  502    0 -0.38981757323E+02 -0.10976411396E+03  0.90585194898E+02  0.22608751902E+03  0.17129550668E+03 0.  0.
         24    2    3    3    0    0  0.13362734304E+02 -0.34225658585E+02  0.99661747455E+02  0.13361872510E+03  0.81065044366E+02 0.  0.
         -6    2    1    2    0  501  0.38981757323E+02  0.10976411396E+03  0.30706030139E+03  0.37042383546E+03  0.17134774894E+03 0.  0.
        -24    2    5    5    0    0  0.89814074519E+02  0.64710625038E+02  0.22646780237E+03  0.26492036521E+03  0.81492953194E+02 0.  0.
          5    1    3    3  502    0 -0.52344491627E+02 -0.75538455371E+02 -0.90765525568E+01  0.92468793924E+02  0.47000000000E+01 0. -1.
        -11    1    4    4    0    0 -0.16986927475E+02  0.10465170117E+02  0.68297303390E+02  0.71151929988E+02  0.00000000000E+00 0.  1.
         12    1    4    4    0    0  0.30349661778E+02 -0.44690828702E+02  0.31364444065E+02  0.62466795112E+02  0.00000000000E+00 0. -1.
         -5    1    5    5    0  501 -0.50832317196E+02  0.45053488918E+02  0.80592499023E+02  0.10550347025E+03  0.47000000000E+01 0.  1.
         11    1    6    6    0    0  0.56680760945E+01  0.43696059878E+02  0.41051242885E+02  0.60221900317E+02  0.00000000000E+00 0. -1.
        -12    1    6    6    0    0  0.84145998424E+02  0.21014565160E+02  0.18541655948E+03  0.20469846489E+03  0.00000000000E+00 0.  1.
</event>
<event>
12    1  0.2609167E-002  0.3667482E+03  0.7818608E-02  0.1055943E+00
         -1   -1    0    0    0  501 -0.00000000000E+00  0.00000000000E+00  0.54020509013E+03  0.54020509013E+03  0.00000000000E+00 0. -1.
          1   -1    0    0  502    0  0.00000000000E+00 -0.00000000000E+00 -0.36091497028E+03  0.36091497028E+03  0.00000000000E+00 0.  1.
          6    2    1    2  502    0 -0.34693010233E+02  0.32223222792E+03 -0.16120873899E+03  0.40092144307E+03  0.17237323551E+03 0.  0.
         24    2    3    3    0    0  0.37077568129E+02  0.19895154801E+03 -0.61391996691E+02  0.22675309348E+03  0.81801733656E+02 0.  0.
         -6    2    1    2    0  501  0.34693010233E+02 -0.32223222792E+03  0.34049885885E+03  0.50019861733E+03  0.17094434836E+03 0.  0.
        -24    2    5    5    0    0  0.36949659349E+02 -0.33735823979E+03  0.33013021923E+03  0.48113327213E+03  0.85600260618E+02 0.  0.
          5    1    3    3  502    0 -0.71770578362E+02  0.12328067991E+03 -0.99816742303E+02  0.17416834959E+03  0.47000000000E+01 0. -1.
        -11    1    4    4    0    0  0.10713051539E+02  0.12657292355E+03 -0.76460555783E+02  0.14826223740E+03  0.00000000000E+00 0.  1.
         12    1    4    4    0    0  0.26364516590E+02  0.72378624465E+02  0.15068559093E+02  0.78490856076E+02  0.00000000000E+00 0. -1.
         -5    1    5    5    0  501 -0.22566491163E+01  0.15126011871E+02  0.10368639616E+02  0.19065345207E+02  0.47000000000E+01 0.  1.
         11    1    6    6    0    0  0.11410366657E+01 -0.13613984283E+03  0.79212327344E+02  0.15751175059E+03  0.00000000000E+00 0. -1.
        -12    1    6    6    0    0  0.35808622683E+02 -0.20121839696E+03  0.25091789189E+03  0.32362152154E+03  0.00000000000E+00 0.  1.
</event>
<event>
12    1  0.2609167E-002  0.1767147E+03  0.7818608E-02  0.1171021E+00
          2   -1    0    0  502    0  0.00000000000E+00  0.00000000000E+00  0.28143031230E+03  0.28143031230E+03  0.00000000000E+00 0. -1.
         -2   -1    0    0    0  501 -0.00000000000E+00 -0.00000000000E+00 -0.12353062715E+03  0.12353062715E+03  0.00000000000E+00 0.  1.
          6    2    1    2  502    0  0.18002887318E+02 -0.22041823405E+02  0.14282424834E+03  0.22590143314E+03  0.17269263345E+03 0.  0.
         24    2    3    3    0    0 -0.46426927031E+02 -0.43790838828E+02  0.51359935788E+02  0.11183114288E+03  0.76126633937E+02 0.  0.
         -6    2    1    2    0  501 -0.18002887318E+02  0.22041823405E+02  0.15075436806E+02  0.17905950631E+03  0.17613941090E+03 0.  0.
        -24    2    5    5    0    0  0.42868794492E+02  0.32069573284E+02 -0.32431703688E+02  0.10105350774E+03  0.79333504593E+02 0.  0.
          5    1    3    3  502    0  0.64429814349E+02  0.21749015423E+02  0.91464312555E+02  0.11407029026E+03  0.47000000000E+01 0. -1.
        -11    1    4    4    0    0 -0.23854390695E+02  0.20069664142E+02  0.21120223568E+02  0.37654843218E+02  0.00000000000E+00 0.  1.
         12    1    4    4    0    0 -0.22572536336E+02 -0.63860502970E+02  0.30239712220E+02  0.74176299661E+02  0.00000000000E+00 0. -1.
         -5    1    5    5    0  501 -0.60871681810E+02 -0.10027749879E+02  0.47507140494E+02  0.78005998564E+02  0.47000000000E+01 0.  1.
         13    1    6    6    0    0  0.25547452033E+02  0.48273888493E+02  0.69731485703E+01  0.55060561354E+02  0.00000000000E+00 0. -1.
        -14    1    6    6    0    0  0.17321342459E+02 -0.16204315209E+02 -0.39404852258E+02  0.45992946388E+02  0.00000000000E+00 0.  1.
</event>
<event>
12    1  0.2609167E-002  0.2505584E+03  0.7818608E-02  0.1112952E+00
          1   -1    0    0  502    0  0.00000000000E+00  0.00000000000E+00  0.20239606846E+04  0.20239606846E+04  0.00000000000E+00 0.  1.
         -1   -1    0    0    0  501 -0.00000000000E+00 -0.00000000000E+00 -0.64900092129E+02  0.64900092129E+02  0.00000000000E+00 0. -1.
          6    2    1    2  502    0  0.14682900636E+03  0.10903583472E+03  0.22448262347E+03  0.33624864935E+03  0.17094775689E+03 0.  0.
         24    2    3    3    0    0  0.64766690774E+02  0.97669529153E+02  0.62796838717E+02  0.15451312851E+03  0.78719773694E+02 0.  0.
         -6    2    1    2    0  501 -0.14682900636E+03 -0.10903583472E+03  0.17345779690E+04  0.17526121274E+04  0.17158370596E+03 0.  0.
        -24    2    5    5    0    0 -0.71350463018E+02 -0.12827508794E+02  0.49308583534E+03  0.50510346592E+03  0.82100162724E+02 0.  0.
          5    1    3    3  502    0  0.82062315589E+02  0.11366305565E+02  0.16168578476E+03  0.18173552084E+03  0.47000000000E+01 0. -1.
        -13    1    4    4    0    0  0.64549987780E+02  0.10876056213E+03  0.66406568587E+02  0.14284744712E+03  0.00000000000E+00 0.  1.
         14    1    4    4    0    0  0.21670299406E+00 -0.11091032974E+02 -0.36097298700E+01  0.11665681393E+02  0.00000000000E+00 0. -1.
         -5    1    5    5    0  501 -0.75478543344E+02 -0.96208325924E+02  0.12414921336E+04  0.12475086614E+04  0.47000000000E+01 0.  1.
         11    1    6    6    0    0 -0.52650454702E+02  0.27630189112E+02  0.35663701911E+03  0.36155976149E+03  0.00000000000E+00 0. -1.
        -12    1    6    6    0    0 -0.18700008315E+02 -0.40457697907E+02  0.13644881623E+03  0.14354370443E+03  0.00000000000E+00 0.  1.
</event>
<event>
12    1  0.2609167E-002  0.1934758E+03  0.7818608E-02  0.1155363E+00
          2   -1    0    0  502    0  0.00000000000E+00  0.00000000000E+00  0.57378518917E+03  0.57378518917E+03  0.00000000000E+00 0. -1.
         -2   -1    0    0    0  501 -0.00000000000E+00 -0.00000000000E+00 -0.83578077390E+02  0.83578077390E+02  0.00000000000E+00 0.  1.
          6    2    1    2  502    0  0.18291453614E+02 -0.85507615089E+02  0.39805268821E+03  0.44213876032E+03  0.17144856741E+03 0.  0.
         24    2    3    3    0    0 -0.21044980146E+02 -0.48056214555E+02  0.95168303731E+02  0.13438723264E+03  0.79060934194E+02 0.  0.
         -6    2    1    2    0  501 -0.18291453614E+02  0.85507615089E+02  0.92154423571E+02  0.21522450625E+03  0.17373261292E+03 0.  0.
        -24    2    5    5    0    0  0.12624020272E+02 -0.11279162454E+02  0.11120094022E+02  0.85177978427E+02  0.82734793916E+02 0.  0.
          5    1    3    3  502    0  0.39336433760E+02 -0.37451400534E+02  0.30288438448E+03  0.30775152767E+03  0.47000000000E+01 0. -1.
        -11    1    4    4    0    0 -0.47227487749E+02 -0.26979335407E+02  0.81761691295E+02  0.98200276484E+02  0.00000000000E+00 0.  1.
         12    1    4    4    0    0  0.26182507603E+02 -0.21076879148E+02  0.13406612435E+02  0.36186956158E+02  0.00000000000E+00 0. -1.
         -5    1    5    5    0  501 -0.30915473886E+02  0.96786777543E+02  0.81034329549E+02  0.13004652782E+03  0.47000000000E+01 0.  1.
         13    1    6    6    0    0  0.77151864193E+01  0.36049457438E+02  0.50237045126E+01  0.37206519457E+02  0.00000000000E+00 0. -1.
        -14    1    6    6    0    0  0.49088338526E+01 -0.47328619892E+02  0.60963895091E+01  0.47971458970E+02  0.00000000000E+00 0.  1.
</event>
<event>
12    1  0.2609167E-002  0.1755084E+03  0.7818608E-02  0.1172222E+00
          2   -1    0    0  502    0  0.00000000000E+00  0.00000000000E+00  0.11870299794E+04  0.11870299794E+04  0.00000000000E+00 0. -1.
         -2   -1    0    0    0  501 -0.00000000000E+00 -0.00000000000E+00 -0.26507094840E+02  0.26507094840E+02  0.00000000000E+00 0.  1.
          6    2    1    2  502    0 -0.38710889018E+02  0.56820483740E+01  0.66735724330E+03  0.68998098311E+03  0.17081348970E+03 0.  0.
         24    2    3    3    0    0  0.12065378600E+02 -0.47998114469E+02  0.26348116807E+03  0.27937440330E+03  0.78602410519E+02 0.  0.
         -6    2    1    2    0  501  0.38710889018E+02 -0.56820483740E+01  0.49316564122E+03  0.52355609109E+03  0.17137039487E+03 0.  0.
        -24    2    5    5    0    0  0.35257222192E+02 -0.20516051715E+01  0.11225575823E+03  0.14258425894E+03  0.80508601044E+02 0.  0.
          5    1    3    3  502    0 -0.50776267619E+02  0.53680162843E+02  0.40387607523E+03  0.41060657981E+03  0.47000000000E+01 0. -1.
        -11    1    4    4    0    0 -0.10086017127E+00  0.84000147396E+01 -0.11928957881E+01  0.84848936800E+01  0.00000000000E+00 0.  1.
         12    1    4    4    0    0  0.12166238771E+02 -0.56398129208E+02  0.26467406386E+03  0.27088950962E+03  0.00000000000E+00 0. -1.
         -5    1    5    5    0  501  0.34536668263E+01 -0.36304432025E+01  0.38090988299E+03  0.38097183215E+03  0.47000000000E+01 0.  1.
         11    1    6    6    0    0  0.52260760892E+01 -0.37585081846E+02  0.70529166520E+02  0.80089409903E+02  0.00000000000E+00 0. -1.
        -12    1    6    6    0    0  0.30031146103E+02  0.35533476674E+02  0.41726591711E+02  0.62494849041E+02  0.00000000000E+00 0.  1.
</event>
<event>
12    1  0.2609167E-002  0.1828032E+03  0.7818608E-02  0.1165117E+00
         -2   -1    0    0    0  501 -0.00000000000E+00  0.00000000000E+00  0.31225651437E+03  0.31225651437E+03  0.00000000000E+00 0.  1.
          2   -1    0    0  502    0  0.00000000000E+00 -0.00000000000E+00 -0.11314481592E+03  0.11314481592E+03  0.00000000000E+00 0. -1.
          6    2    1    2  502    0  0.32326068466E+02 -0.27719562421E+02  0.49708359486E+02  0.18877261869E+03  0.17706166079E+03 0.  0.
         24    2    3    3    0    0  0.28230116905E+01 -0.63275151781E+02 -0.19741180519E+02  0.10522647036E+03  0.81677301795E+02 0.  0.
         -6    2    1    2    0  501 -0.32326068466E+02  0.27719562421E+02  0.14940333896E+03  0.23662871160E+03  0.17848932913E+03 0.  0.
        -24    2    5    5    0    0 -0.46535273834E+02 -0.47682556066E+02  0.66075762971E+02  0.12325783390E+03  0.79920768894E+02 0.  0.
          5    1    3    3  502    0  0.29503056776E+02  0.35555589360E+02  0.69449540005E+02  0.83546148330E+02  0.47000000000E+01 0. -1.
        -11    1    4    4    0    0 -0.81911463497E+00  0.71965732254E+01  0.22053386552E+02  0.23212356050E+02  0.00000000000E+00 0.  1.
         12    1    4    4    0    0  0.36421263255E+01 -0.70471725007E+02 -0.41794567071E+02  0.82014114311E+02  0.00000000000E+00 0. -1.
         -5    1    5    5    0  501  0.14209205368E+02  0.75402118487E+02  0.83327575994E+02  0.11337087770E+03  0.47000000000E+01 0.  1.
         13    1    6    6    0    0 -0.22470041444E+02 -0.53733944597E+02  0.76664038609E+02  0.96278836618E+02  0.00000000000E+00 0. -1.
        -14    1    6    6    0    0 -0.24065232390E+02  0.60513885311E+01 -0.10588275638E+02  0.26978997278E+02  0.00000000000E+00 0.  1.
</event>
<event>
12    1  0.2609167E-002  0.2108040E+03  0.7818608E-02  0.1140931E+00
          2   -1    0    0  502    0  0.00000000000E+00  0.00000000000E+00  0.22442231632E+04  0.22442231632E+04  0.00000000000E+00 0.  1.
         -2   -1    0    0    0  501 -0.00000000000E+00 -0.00000000000E+00 -0.20113791915E+02  0.20113791915E+02  0.00000000000E+00 0. -1.
          6    2    1    2  502    0  0.11879471699E+03  0.28617789220E+01  0.12518713361E+04  0.12694539764E+04  0.17381364054E+03 0.  0.
         24    2    3    3    0    0  0.51939800470E+02 -0.61322474539E+02  0.49322309477E+03  0.50515139087E+03  0.73828976254E+02 0.  0.
         -6    2    1    2    0  501 -0.11879471699E+03 -0.28617789220E+01  0.97223803518E+03  0.99488297865E+03  0.17442754827E+03 0.  0.
        -24    2    5    5    0    0 -0.13679250925E+03 -0.45541484053E+02  0.78662444104E+03  0.80351951796E+03  0.77970424829E+02 0.  0.
          5    1    3    3  502    0  0.66854916517E+02  0.64184253461E+02  0.75864824132E+03  0.76430258558E+03  0.47000000000E+01 0. -1.
        -13    1    4    4    0    0  0.68092910082E+02 -0.43794223844E+02  0.31054950383E+03  0.32092923328E+03  0.00000000000E+00 0.  1.
         14    1    4    4    0    0 -0.16153109611E+02 -0.17528250694E+02  0.18267359094E+03  0.18422215760E+03  0.00000000000E+00 0. -1.
         -5    1    5    5    0  501  0.17997792267E+02  0.42679705131E+02  0.18561359415E+03  0.19136346069E+03  0.47000000000E+01 0.  1.
         13    1    6    6    0    0 -0.11930521061E+03 -0.51889163228E+02  0.51218607313E+03  0.52845131474E+03  0.00000000000E+00 0. -1.
        -14    1    6    6    0    0 -0.17487298645E+02  0.63476791745E+01  0.27443836791E+03  0.27506820322E+03  0.00000000000E+00 0.  1.
</event>
<event>
12    1  0.2609167E-002  0.1897652E+03  0.7818608E-02  0.1158673E+00
         -1   -1    0    0    0  501 -0.00000000000E+00  0.00000000000E+00  0.27502728019E+03  0.27502728019E+03  0.00000000000E+00 0.  1.
          1   -1    0    0  502    0  0.00000000000E+00 -0.00000000000E+00 -0.13727987006E+03  0.13727987006E+03  0.00000000000E+00 0. -1.
          6    2    1    2  502    0  0.19287695975E+02 -0.79715500630E+02  0.11309146540E+03  0.22066237660E+03  0.17080874872E+03 0.  0.
         24    2    3    3    0    0 -0.30622448658E+02 -0.78727051549E+02  0.10968659577E+03  0.17040620577E+03  0.99355134065E+02 0.  0.
         -6    2    1    2    0  501 -0.19287695975E+02  0.79715500630E+02  0.24655944721E+02  0.19164477365E+03  0.17144453156E+03 0.  0.
        -24    2    5    5    0    0  0.17702265138E+02 -0.16298611200E+01 -0.29625960635E+02  0.86983699939E+02  0.79827563368E+02 0.  0.
          5    1    3    3  502    0  0.49910144633E+02 -0.98844908166E+00  0.34048696306E+01  0.50256170826E+02  0.47000000000E+01 0. -1.
        -13    1    4    4    0    0 -0.20825583433E+02  0.14737827240E+02  0.57513045112E+02  0.62917873733E+02  0.00000000000E+00 0.  1.
         14    1    4    4    0    0 -0.97968652253E+01 -0.93464878789E+02  0.52173550661E+02  0.10748833204E+03  0.00000000000E+00 0. -1.
         -5    1    5    5    0  501 -0.36989961113E+02  0.81345361750E+02  0.54281905357E+02  0.10466107371E+03  0.47000000000E+01 0.  1.
         13    1    6    6    0    0  0.42605401825E+02  0.19707537453E+02 -0.77889799854E+01  0.47584404024E+02  0.00000000000E+00 0. -1.
        -14    1    6    6    0    0 -0.24903136687E+02 -0.21337398573E+02 -0.21836980650E+02  0.39399295915E+02  0.00000000000E+00 0.  1.
</event>
<event>
12    1  0.2609167E-002  0.1925959E+03  0.7818608E-02  0.1156141E+00
          2   -1    0    0  502    0  0.00000000000E+00  0.00000000000E+00  0.62537796650E+03  0.62537796650E+03  0.00000000000E+00 0.  1.
         -2   -1    0    0    0  501 -0.00000000000E+00 -0.00000000000E+00 -0.12452945974E+03  0.12452945974E+03  0.00000000000E+00 0. -1.
          6    2    1    2  502    0 -0.57902756078E+00 -0.94569639050E+02  0.51932344047E+03  0.55258042024E+03  0.16341521689E+03 0.  0.
         24    2    3    3    0    0  0.44943694503E+02 -0.10832084559E+03  0.39652176561E+03  0.42080881763E+03  0.78084628016E+02 0.  0.
         -6    2    1    2    0  501  0.57902756078E+00  0.94569639050E+02 -0.18474933709E+02  0.19732700599E+03  0.17220009354E+03 0.  0.
        -24    2    5    5    0    0  0.61821362876E+02  0.36986199592E+02  0.95817519228E+01  0.10858161883E+03  0.80674023757E+02 0.  0.
          5    1    3    3  502    0 -0.45522722064E+02  0.13751206543E+02  0.12280167486E+03  0.13177160261E+03  0.47000000000E+01 0. -1.
        -13    1    4    4    0    0  0.12644902592E+02 -0.10063417335E+03  0.34428404140E+03  0.35891312538E+03  0.00000000000E+00 0.  1.
         14    1    4    4    0    0  0.32298791911E+02 -0.76866722400E+01  0.52237724206E+02  0.61895692251E+02  0.00000000000E+00 0. -1.
         -5    1    5    5    0  501 -0.61242335316E+02  0.57583439459E+02 -0.28056685632E+02  0.88745387167E+02  0.47000000000E+01 0.  1.
         11    1    6    6    0    0  0.22995379710E+01  0.47241882146E+02 -0.75902001988E+00  0.47303904860E+02  0.00000000000E+00 0. -1.
        -12    1    6    6    0    0  0.59521824905E+02 -0.10255682555E+02  0.10340771943E+02  0.61277713968E+02  0.00000000000E+00 0.  1.
</event>
<event>
12    1  0.2609167E-002  0.2396141E+03  0.7818608E-02  0.1120050E+00
         -2   -1    0    0    0  501 -0.00000000000E+00  0.00000000000E+00  0.45307878198E+02  0.45307878198E+02  0.00000000000E+00 0. -1.
          2   -1    0    0  502    0  0.00000000000E+00 -0.00000000000E+00 -0.12775420987E+04  0.12775420987E+04  0.00000000000E+00 0.  1.
          6    2    1    2  502    0  0.38646052148E+02  0.16230183772E+03 -0.67537495319E+03  0.71659492493E+03  0.17187656956E+03 0.  0.
         24    2    3    3    0    0  0.21883834474E+02  0.11642501682E+02 -0.31430981483E+03  0.32497095782E+03  0.78746515287E+02 0.  0.
         -6    2    1    2    0  501 -0.38646052148E+02 -0.16230183772E+03 -0.55685926731E+03  0.60625505196E+03  0.17209747404E+03 0.  0.
        -24    2    5    5    0    0 -0.32917848509E+02 -0.11406801221E+02 -0.17948482081E+03  0.19976312434E+03  0.80478600127E+02 0.  0.
          5    1    3    3  502    0  0.16762217674E+02  0.15065933604E+03 -0.36106513836E+03  0.39162396711E+03  0.47000000000E+01 0. -1.
        -13    1    4    4    0    0  0.32579571862E+02  0.22464743015E+02 -0.30406091503E+03  0.30662539561E+03  0.00000000000E+00 0.  1.
         14    1    4    4    0    0 -0.10695737388E+02 -0.10822241333E+02 -0.10248899799E+02  0.18345562211E+02  0.00000000000E+00 0. -1.
         -5    1    5    5    0  501 -0.57282036387E+01 -0.15089503650E+03 -0.37737444650E+03  0.40649192763E+03  0.47000000000E+01 0.  1.
         13    1    6    6    0    0 -0.20689585705E+02 -0.13901549538E+02 -0.57501523884E+01  0.25580779673E+02  0.00000000000E+00 0. -1.
        -14    1    6    6    0    0 -0.12228262805E+02  0.24947483175E+01 -0.17373466842E+03  0.17418234467E+03  0.00000000000E+00 0.  1.
</event>
<event>
12    1  0.2609167E-002  0.1895570E+03  0.7818608E-02  0.1158862E+00
         -2   -1    0    0    0  501 -0.00000000000E+00  0.00000000000E+00  0.40509428003E+03  0.40509428003E+03  0.00000000000E+00 0.  1.
          2   -1    0    0  502    0  0.00000000000E+00 -0.00000000000E+00 -0.20378194050E+03  0.20378194050E+03  0.00000000000E+00 0. -1.
          6    2    1    2  502    0 -0.64654296018E+02  0.48617590925E+02 -0.12788817997E+03  0.22950151611E+03  0.17254480919E+03 0.  0.
         24    2    3    3    0    0  0.20227138135E+02  0.63238506446E+02 -0.56262976683E+02  0.11738154117E+03  0.78769650550E+02 0.  0.
         -6    2    1    2    0  501  0.64654296018E+02 -0.48617590925E+02  0.32920051949E+03  0.37937470442E+03  0.17031833777E+03 0.  0.
        -24    2    5    5    0    0  0.10569673120E+03 -0.56017450482E+02  0.22944107778E+03  0.27114681699E+03  0.81040943015E+02 0.  0.
          5    1    3    3  502    0 -0.84881434153E+02 -0.14620915521E+02 -0.71625203282E+02  0.11211997494E+03  0.47000000000E+01 0. -1.
        -13    1    4    4    0    0  0.36914302846E+02  0.72927649661E+00 -0.29932590078E+02  0.47530595911E+02  0.00000000000E+00 0.  1.
         14    1    4    4    0    0 -0.16687164712E+02  0.62509229949E+02 -0.26330386605E+02  0.69850945260E+02  0.00000000000E+00 0. -1.
         -5    1    5    5    0  501 -0.41042435185E+02  0.73998595572E+01  0.99759441714E+02  0.10822788743E+03  0.47000000000E+01 0.  1.
         13    1    6    6    0    0  0.81184198922E+02 -0.29604481723E+01  0.97973278775E+02  0.12727294199E+03  0.00000000000E+00 0. -1.
        -14    1    6    6    0    0  0.24512532281E+02 -0.53057002310E+02  0.13146779900E+03  0.14387387500E+03  0.00000000000E+00 0.  1.
</event>
<event>
12    1  0.2609167E-002  0.1797554E+03  0.7818608E-02  0.1168040E+00
          1   -1    0    0  502    0  0.00000000000E+00  0.00000000000E+00  0.21430361438E+04  0.21430361438E+04  0.00000000000E+00 0. -1.
         -1   -1    0    0    0  501 -0.00000000000E+00 -0.00000000000E+00 -0.16441782211E+02  0.16441782211E+02  0.00000000000E+00 0.  1.
          6    2    1    2  502    0  0.57486116608E+02  0.90606368322E+01  0.74452701367E+03  0.76558088418E+03  0.16854336948E+03 0.  0.
         24    2    3    3    0    0  0.58084654141E+02  0.40695775518E+02  0.27861375243E+03  0.29857082300E+03  0.80553957755E+02 0.  0.
         -6    2    1    2    0  501 -0.57486116608E+02 -0.90606368322E+01  0.13820673479E+04  0.13938970418E+04  0.17161602577E+03 0.  0.
        -24    2    5    5    0    0  0.29520661239E+02 -0.32693485269E+02  0.71601387980E+03  0.72175270963E+03  0.79440319578E+02 0.  0.
          5    1    3    3  502    0 -0.59853753301E+00 -0.31635138685E+02  0.46591326124E+03  0.46701006118E+03  0.47000000000E+01 0. -1.
        -13    1    4    4    0    0  0.29674675903E+02  0.63561905112E+02  0.19900358034E+03  0.21100504061E+03  0.00000000000E+00 0.  1.
         14    1    4    4    0    0  0.28409978237E+02 -0.22866129595E+02  0.79610172089E+02  0.87565782393E+02  0.00000000000E+00 0. -1.
         -5    1    5    5    0  501 -0.87006777847E+02  0.23632848436E+02  0.66605346808E+03  0.67214433216E+03  0.47000000000E+01 0.  1.
         13    1    6    6    0    0  0.79350677704E+01 -0.21535912008E+02  0.66342134365E+03  0.66381822814E+03  0.00000000000E+00 0. -1.
        -14    1    6    6    0    0  0.21585593468E+02 -0.11157573260E+02  0.52592536151E+02  0.57934481487E+02  0.00000000000E+00 0.  1.
</event>
<event>
12    1  0.2609167E-002  0.2855056E+03  0.7818608E-02  0.1092719E+00
         -2   -1    0    0    0  501 -0.00000000000E+00  0.00000000000E+00  0.84967970225E+02  0.84967970225E+02  0.00000000000E+00 0.  1.
          2   -1    0    0  502    0  0.00000000000E+00 -0.00000000000E+00 -0.96037830264E+03  0.96037830264E+03  0.00000000000E+00 0. -1.
          6    2    1    2  502    0 -0.22524729550E+03 -0.36257770209E+02 -0.45512059184E+03  0.53734976689E+03  0.17192745223E+03 0.  0.
         24    2    3    3    0    0 -0.45611045311E+02  0.56934441660E+01 -0.21778701720E+03  0.23671975771E+03  0.80574661453E+02 0.  0.
         -6    2    1    2    0  501  0.22524729550E+03  0.36257770209E+02 -0.42028974058E+03  0.50799650598E+03  0.17136514819E+03 0.  0.
        -24    2    5    5    0    0  0.13657283925E+03  0.77749144706E+02 -0.19508039382E+03  0.26238292081E+03  0.78047211077E+02 0.  0.
          5    1    3    3  502    0 -0.17963625019E+03 -0.41951214375E+02 -0.23733357464E+03  0.30063000918E+03  0.47000000000E+01 0. -1.
        -11    1    4    4    0    0  0.20653063810E+02  0.10001824465E+02 -0.31657223999E+02  0.39099429263E+02  0.00000000000E+00 0.  1.
         12    1    4    4    0    0 -0.66264109121E+02 -0.43083802987E+01 -0.18612979320E+03  0.19762032844E+03  0.00000000000E+00 0. -1.
         -5    1    5    5    0  501  0.88674456257E+02 -0.41491374498E+02 -0.22520934676E+03  0.24561358517E+03  0.47000000000E+01 0.  1.
         11    1    6    6    0    0  0.15325432282E+02  0.24160051234E+02 -0.26793143074E+01  0.28735964842E+02  0.00000000000E+00 0. -1.
        -12    1    6    6    0    0  0.12124740697E+03  0.53589093472E+02 -0.19240107951E+03  0.23364695597E+03  0.00000000000E+00 0.  1.
</event>
<event>
12    1  0.2609167E-002  0.2849982E+03  0.7818608E-02  0.1092990E+00
          2   -1    0    0  502    0  0.00000000000E+00  0.00000000000E+00  0.81824211247E+03  0.81824211247E+03  0.00000000000E+00 0.  1.
         -2   -1    0    0    0  501 -0.00000000000E+00 -0.00000000000E+00 -0.10890020905E+03  0.10890020905E+03  0.00000000000E+00 0. -1.
          6    2    1    2  502    0  0.65220626392E+02  0.20903155162E+03  0.20939903411E+03  0.34817240115E+03  0.17154633705E+03 0.  0.
         24    2    3    3    0    0  0.56327794862E+02  0.19766928764E+03  0.10761486201E+03  0.24526326071E+03  0.79543326425E+02 0.  0.
         -6    2    1    2    0  501 -0.65220626392E+02 -0.20903155162E+03  0.49994286931E+03  0.57896992037E+03  0.19317188316E+03 0.  0.
        -24    2    5    5    0    0 -0.68386047185E+02 -0.17552276948E+03  0.50434959024E+03  0.54470087371E+03  0.82738374355E+02 0.  0.
          5    1    3    3  502    0  0.88928315304E+01  0.11362263982E+02  0.10178417210E+03  0.10290914044E+03  0.47000000000E+01 0. -1.
        -13    1    4    4    0    0  0.15464444815E+02  0.43417826624E+02 -0.98351755529E+01  0.47127352996E+02  0.00000000000E+00 0.  1.
         14    1    4    4    0    0  0.40863350047E+02  0.15425146102E+03  0.11745003756E+03  0.19813590772E+03  0.00000000000E+00 0. -1.
         -5    1    5    5    0  501  0.31654207924E+01 -0.33508782145E+02 -0.44067209346E+01  0.34269046661E+02  0.47000000000E+01 0.  1.
         13    1    6    6    0    0 -0.28098021265E+02 -0.86125679549E+01  0.40098782765E+02  0.49715063160E+02  0.00000000000E+00 0. -1.
        -14    1    6    6    0    0 -0.40288025920E+02 -0.16691020152E+03  0.46425080748E+03  0.49498581055E+03  0.00000000000E+00 0.  1.
</event>
<event>
12    1  0.2609167E-002  0.1760237E+03  0.7818608E-02  0.1171708E+00
          2   -1    0    0  502    0  0.00000000000E+00  0.00000000000E+00  0.94132428242E+02  0.94132428242E+02  0.00000000000E+00 0.  1.
         -2   -1    0    0    0  501 -0.00000000000E+00 -0.00000000000E+00 -0.37187477099E+03  0.37187477099E+03  0.00000000000E+00 0. -1.
          6    2    1    2  502    0 -0.91802975568E+01  0.15610195321E+02 -0.57930822988E+02  0.18252896856E+03  0.17214205776E+03 0.  0.
         24    2    3    3    0    0  0.15337787447E+02  0.71971041368E+02 -0.52091246573E+02  0.12061069894E+03  0.80114694100E+02 0.  0.
         -6    2    1    2    0  501  0.91802975568E+01 -0.15610195321E+02 -0.21981151976E+03  0.28347823067E+03  0.17808662776E+03 0.  0.
        -24    2    5    5    0    0 -0.29805701597E+02 -0.44507790578E+01 -0.27551442279E+02  0.86931879666E+02  0.76745556541E+02 0.  0.
          5    1    3    3  502    0 -0.24518085004E+02 -0.56360846047E+02 -0.58395764151E+01  0.61918269615E+02  0.47000000000E+01 0. -1.
        -11    1    4    4    0    0  0.18427731520E+02  0.16476361950E+02  0.18419760749E+02  0.30827574963E+02  0.00000000000E+00 0.  1.
         12    1    4    4    0    0 -0.30899440728E+01  0.55494679418E+02 -0.70511007321E+02  0.89783123980E+02  0.00000000000E+00 0. -1.
         -5    1    5    5    0  501  0.38985999154E+02 -0.11159416263E+02 -0.19226007748E+03  0.19654635101E+03  0.47000000000E+01 0.  1.
         13    1    6    6    0    0 -0.23140785248E+01 -0.38483392572E+02 -0.10309968134E+02  0.39907667260E+02  0.00000000000E+00 0. -1.
        -14    1    6    6    0    0 -0.27491623072E+02  0.34032613514E+02 -0.17241474145E+02  0.47024212406E+02  0.00000000000E+00 0.  1.
</event>
<event>
12    1  0.2609167E-002  0.2571818E+03  0.7818608E-02  0.1108848E+00
          1   -1    0    0  502    0  0.00000000000E+00  0.00000000000E+00  0.49825867814E+03  0.49825867814E+03  0.00000000000E+00 0.  1.
         -1   -1    0    0    0  501 -0.00000000000E+00 -0.00000000000E+00 -0.14079054470E+03  0.14079054470E+03  0.00000000000E+00 0. -1.
          6    2    1    2  502    0  0.15870529011E+03 -0.10614004187E+03  0.25522177626E+03  0.36245222619E+03  0.17256993826E+03 0.  0.
         24    2    3    3    0    0  0.11087653359E+03  0.47231493253E+01  0.12758980842E+03  0.18669601341E+03  0.79122236895E+02 0.  0.
         -6    2    1    2    0  501 -0.15870529011E+03  0.10614004187E+03  0.10224635717E+03  0.27659699666E+03  0.17204215590E+03 0.  0.
        -24    2    5    5    0    0 -0.15060640633E+03  0.21712431972E+02  0.61296417426E+02  0.18229640919E+03  0.79504784023E+02 0.  0.
          5    1    3    3  502    0  0.47828756519E+02 -0.11086319120E+03  0.12763196785E+03  0.17575621278E+03  0.47000000000E+01 0. -1.
        -13    1    4    4    0    0  0.26052525042E+02  0.36601003467E+02  0.33300182971E+02  0.55921996582E+02  0.00000000000E+00 0.  1.
         14    1    4    4    0    0  0.84824008549E+02 -0.31877854142E+02  0.94289625446E+02  0.13077401683E+03  0.00000000000E+00 0. -1.
         -5    1    5    5    0  501 -0.80988837790E+01  0.84427609900E+02  0.40949939748E+02  0.94300587470E+02  0.47000000000E+01 0.  1.
         11    1    6    6    0    0  0.62849539618E+01 -0.25782781259E+01 -0.67418073085E+01  0.95707956922E+01  0.00000000000E+00 0. -1.
        -12    1    6    6    0    0 -0.15689136029E+03  0.24290710098E+02  0.68038224735E+02  0.17272561349E+03  0.00000000000E+00 0.  1.
</event>
<event>
12    1  0.2609167E-002  0.2007316E+03  0.7818608E-02  0.1149123E+00
          2   -1    0    0  502    0  0.00000000000E+00  0.00000000000E+00  0.96922953511E+02  0.96922953511E+02  0.00000000000E+00 0.  1.
         -2   -1    0    0    0  501 -0.00000000000E+00 -0.00000000000E+00 -0.55551378365E+03  0.55551378365E+03  0.00000000000E+00 0. -1.
          6    2    1    2  502    0  0.29684734161E+02 -0.10640332642E+03 -0.68541658917E+02  0.21524775997E+03  0.17155403770E+03 0.  0.
         24    2    3    3    0    0 -0.18614346911E+02 -0.12582700902E+03 -0.32326501304E+02  0.15165760099E+03  0.76000625929E+02 0.  0.
         -6    2    1    2    0  501 -0.29684734161E+02  0.10640332642E+03 -0.39004917122E+03  0.43718897719E+03  0.16368565756E+03 0.  0.
        -24    2    5    5    0    0  0.38350683688E+02  0.91169568815E+02 -0.23351746242E+03  0.26576800031E+03  0.79495657234E+02 0.  0.
          5    1    3    3  502    0  0.48299081072E+02  0.19423682600E+02 -0.36215157613E+02  0.63590158980E+02  0.47000000000E+01 0. -1.
        -13    1    4    4    0    0 -0.30444820981E+02 -0.13018981744E+02  0.19385421280E+01  0.33168342675E+02  0.00000000000E+00 0.  1.
         14    1    4    4    0    0  0.11830474070E+02 -0.11280802728E+03 -0.34265043432E+02  0.11848925832E+03  0.00000000000E+00 0. -1.
         -5    1    5    5    0  501 -0.68035417849E+02  0.15233757605E+02 -0.15653170881E+03  0.17142097688E+03  0.47000000000E+01 0.  1.
         11    1    6    6    0    0 -0.13507747682E+02  0.41716429912E+02 -0.14714805623E+03  0.15354240530E+03  0.00000000000E+00 0. -1.
        -12    1    6    6    0    0  0.51858431370E+02  0.49453138903E+02 -0.86369406188E+02  0.11222559502E+03  0.00000000000E+00 0.  1.
</event>
<event>
12    1  0.2609167E-002  0.1891753E+03  0.7818608E-02  0.1159207E+00
         -2   -1    0    0    0  501 -0.00000000000E+00  0.00000000000E+00  0.10382178465E+03  0.10382178465E+03  0.00000000000E+00 0. -1.
          2   -1    0    0  502    0  0.00000000000E+00 -0.00000000000E+00 -0.36149084768E+03  0.36149084768E+03  0.00000000000E+00 0.  1.
          6    2    1    2  502    0 -0.48895081714E+02 -0.66305970911E+02 -0.17996761781E+03  0.26225804664E+03  0.17205734152E+03 0.  0.
         24    2    3    3    0    0 -0.44338482347E+02 -0.11002373332E+03 -0.12153150557E+03  0.18898544220E+03  0.82912409239E+02 0.  0.
         -6    2    1    2    0  501  0.48895081714E+02  0.66305970911E+02 -0.77701445215E+02  0.20305458568E+03  0.16854209974E+03 0.  0.
        -24    2    5    5    0    0  0.43660109942E+02  0.74622588344E+02 -0.11452861621E+03  0.16465013831E+03  0.80734925668E+02 0.  0.
          5    1    3    3  502    0 -0.45565993663E+01  0.43717762409E+02 -0.58436112247E+02  0.73272604446E+02  0.47000000000E+01 0. -1.
        -11    1    4    4    0    0  0.21734273376E+02 -0.42785898816E+02 -0.58129256179E+02  0.75379189440E+02  0.00000000000E+00 0.  1.
         12    1    4    4    0    0 -0.66072755723E+02 -0.67237834504E+02 -0.63402249388E+02  0.11360625276E+03  0.00000000000E+00 0. -1.
         -5    1    5    5    0  501  0.52349717716E+01 -0.83166174334E+01  0.36827170994E+02  0.38404447378E+02  0.47000000000E+01 0.  1.
         13    1    6    6    0    0  0.69577077046E+01 -0.17633712092E+02 -0.16709823183E+02  0.25270055193E+02  0.00000000000E+00 0. -1.
        -14    1    6    6    0    0  0.36702402237E+02  0.92256300436E+02 -0.97818793025E+02  0.13938008311E+03  0.00000000000E+00 0.  1.
</event>
<event>
12    1  0.2609167E-002  0.1933831E+03  0.7818608E-02  0.1155445E+00
          4   -1    0    0  502    0  0.00000000000E+00  0.00000000000E+00  0.86592946506E+02  0.86592946506E+02  0.00000000000E+00 0. -1.
         -4   -1    0    0    0  501 -0.00000000000E+00 -0.00000000000E+00 -0.54026295904E+03  0.54026295904E+03  0.00000000000E+00 0.  1.
          6    2    1    2  502    0 -0.84306388472E+02  0.28330695046E+02 -0.36713453665E+03  0.41490725994E+03  0.17161022967E+03 0.  0.
         24    2    3    3    0    0 -0.62691379547E+01  0.14231889922E+02 -0.29970303627E+03  0.31070703912E+03  0.80468039801E+02 0.  0.
         -6    2    1    2    0  501  0.84306388472E+02 -0.28330695046E+02 -0.86535475886E+02  0.21194864561E+03  0.17182445801E+03 0.  0.
        -24    2    5    5    0    0  0.72932175518E+02 -0.72830307401E+02 -0.98845115933E+02  0.16416574639E+03  0.80973325498E+02 0.  0.
          5    1    3    3  502    0 -0.78037250517E+02  0.14098805124E+02 -0.67431500379E+02  0.10420022081E+03  0.47000000000E+01 0. -1.
        -11    1    4    4    0    0  0.35307552827E+02  0.18889911826E+02 -0.15331009775E+03  0.15845326796E+03  0.00000000000E+00 0.  1.
         12    1    4    4    0    0 -0.41576690781E+02 -0.46580219039E+01 -0.14639293853E+03  0.15225377117E+03  0.00000000000E+00 0. -1.
         -5    1    5    5    0  501  0.11374212954E+02  0.44499612355E+02  0.12309640046E+02  0.47782899223E+02  0.47000000000E+01 0.  1.
         13    1    6    6    0    0  0.80853527723E+02 -0.38804548791E+02 -0.45935560039E+02  0.10076289807E+03  0.00000000000E+00 0. -1.
        -14    1    6    6    0    0 -0.79213522053E+01 -0.34025758610E+02 -0.52909555894E+02  0.63402848316E+02  0.00000000000E+00 0.  1.
</event>
<event>
12    1  0.2609167E-002  0.2157368E+03  0.7818608E-02  0.1137102E+00
         -1   -1    0    0    0  501 -0.00000000000E+00  0.00000000000E+00  0.24843113438E+03  0.24843113438E+03  0.00000000000E+00 0.  1.
          1   -1    0    0  502    0  0.00000000000E+00 -0.00000000000E+00 -0.25927200359E+03  0.25927200359E+03  0.00000000000E+00 0. -1.
          6    2    1    2  502    0 -0.12505082257E+03 -0.12468911564E+02  0.12824560397E+03  0.24646847785E+03  0.16883895775E+03 0.  0.
         24    2    3    3    0    0 -0.53528927108E+01 -0.41571853005E+02  0.47371639346E+02  0.99032852005E+02  0.76200794873E+02 0.  0.
         -6    2    1    2    0  501  0.12505082257E+03  0.12468911564E+02 -0.13908647318E+03  0.26123466013E+03  0.18194867037E+03 0.  0.
        -24    2    5    5    0    0  0.82048993731E+02  0.61269274843E+01  0.26457738365E+01  0.11291238301E+03  0.77282789190E+02 0.  0.
          5    1    3    3  502    0 -0.11969792986E+03  0.29102941441E+02  0.80873964627E+02  0.14743562584E+03  0.47000000000E+01 0. -1.
        -11    1    4    4    0    0 -0.38446548231E+02 -0.16839491429E+02  0.38110501437E+02  0.56693172977E+02  0.00000000000E+00 0.  1.
         12    1    4    4    0    0  0.33093655520E+02 -0.24732361576E+02  0.92611379087E+01  0.42339679028E+02  0.00000000000E+00 0. -1.
         -5    1    5    5    0  501  0.43001828839E+02  0.63419840800E+01 -0.14173224702E+03  0.14832227712E+03  0.47000000000E+01 0.  1.
         13    1    6    6    0    0  0.31893871900E+02 -0.34710697729E+02 -0.65225455473E+01  0.47587763154E+02  0.00000000000E+00 0. -1.
        -14    1    6    6    0    0  0.50155121831E+02  0.40837625213E+02  0.91683193839E+01  0.65324619856E+02  0.00000000000E+00 0.  1.
</event>
<event>
12    1  0.2609167E-002  0.1932627E+03  0.7818608E-02  0.1155551E+00
          2   -1    0    0  502    0  0.00000000000E+00  0.00000000000E+00  0.25836699147E+04  0.25836699147E+04  0.00000000000E+00 0.  1.
         -2   -1    0    0    0  501 -0.00000000000E+00 -0.00000000000E+00 -0.18809213250E+02  0.18809213250E+02  0.00000000000E+00 0. -1.
          6    2    1    2  502    0 -0.71967153321E+02 -0.45780221256E+02  0.66077824208E+03  0.68869858904E+03  0.17436387675E+03 0.  0.
         24    2    3    3    0    0 -0.10028511097E+03  0.73246902867E+01  0.51789916205E+03  0.53359036918E+03  0.79927376189E+02 0.  0.
         -6    2    1    2    0  501  0.71967153321E+02  0.45780221256E+02  0.19040824594E+04  0.19137805389E+04  0.17248431591E+03 0.  0.
        -24    2    5    5    0    0  0.21334667590E+02 -0.30796036160E+02  0.12724010641E+04  0.12754459504E+04  0.79714117264E+02 0.  0.
          5    1    3    3  502    0  0.28317957644E+02 -0.53104911543E+02  0.14287908003E+03  0.15510821985E+03  0.47000000000E+01 0. -1.
        -11    1    4    4    0    0 -0.10496641186E+02  0.28716597130E+02  0.20807573636E+03  0.21031009127E+03  0.00000000000E+00 0.  1.
         12    1    4    4    0    0 -0.89788469779E+02 -0.21391906843E+02  0.30982342569E+03  0.32328027791E+03  0.00000000000E+00 0. -1.
         -5    1    5    5    0  501  0.50632485731E+02  0.76576257416E+02  0.63168139529E+03  0.63833458857E+03  0.47000000000E+01 0.  1.
         13    1    6    6    0    0  0.18327121895E+02 -0.17245174507E+02  0.10540724668E+03  0.10836958565E+03  0.00000000000E+00 0. -1.
        -14    1    6    6    0    0  0.30075456959E+01 -0.13550861653E+02  0.11669938174E+04  0.11670763647E+04  0.00000000000E+00 0.  1.
</event>
<event>
12    1  0.2609167E-002  0.2129713E+03  0.7818608E-02  0.1139234E+00
          1   -1    0    0  502    0  0.00000000000E+00  0.00000000000E+00  0.24301328491E+04  0.24301328491E+04  0.00000000000E+00 0.  1.
         -1   -1    0    0    0  501 -0.00000000000E+00 -0.00000000000E+00 -0.18665242146E+02  0.18665242146E+02  0.00000000000E+00 0. -1.
          6    2    1    2  502    0  0.12177271218E+03 -0.33165044065E+02  0.12105316088E+04  0.12290250920E+04  0.17084316568E+03 0.  0.
         24    2    3    3    0    0  0.61907625366E+02 -0.73377484166E+02  0.54050940894E+03  0.55511656165E+03  0.82384261888E+02 0.  0.
         -6    2    1    2    0  501 -0.12177271218E+03  0.33165044065E+02  0.12009359981E+04  0.12197729992E+04  0.17225093459E+03 0.  0.
        -24    2    5    5    0    0 -0.26958050116E+01 -0.12820774657E+02  0.57889101479E+03  0.58474854565E+03  0.81513281185E+02 0.  0.
          5    1    3    3  502    0  0.59865086815E+02  0.40212440101E+02  0.67002219987E+03  0.67390853035E+03  0.47000000000E+01 0. -1.
        -13    1    4    4    0    0 -0.10488922639E+02 -0.42800737182E+02  0.26413301594E+03  0.26778381338E+03  0.00000000000E+00 0.  1.
         14    1    4    4    0    0  0.72396548004E+02 -0.30576746984E+02  0.27637639300E+03  0.28733274827E+03  0.00000000000E+00 0. -1.
         -5    1    5    5    0  501 -0.11907690717E+03  0.45985818722E+02  0.62204498332E+03  0.63502445356E+03  0.47000000000E+01 0.  1.
         13    1    6    6    0    0  0.24312983517E+02 -0.13968190704E+02  0.73998828350E+02  0.79133166980E+02  0.00000000000E+00 0. -1.
        -14    1    6    6    0    0 -0.27008788529E+02  0.11474160472E+01  0.50489218644E+03  0.50561537867E+03  0.00000000000E+00 0.  1.
</event>
<event>
12    1  0.2609167E-002  0.1753225E+03  0.7818608E-02  0.1172408E+00
          1   -1    0    0  502    0  0.00000000000E+00  0.00000000000E+00  0.11373576819E+04  0.11373576819E+04  0.00000000000E+00 0. -1.
         -1   -1    0    0    0  501 -0.00000000000E+00 -0.00000000000E+00 -0.28141351423E+02  0.28141351423E+02  0.00000000000E+00 0.  1.
          6    2    1    2  502    0 -0.19474399800E+02 -0.30984373687E+02  0.67036214327E+03  0.69288668285E+03  0.17136880839E+03 0.  0.
         24    2    3    3    0    0 -0.39623078382E+02  0.25296255995E+02  0.21117982096E+03  0.22980572487E+03  0.77484614571E+02 0.  0.
         -6    2    1    2    0  501  0.19474399800E+02  0.30984373687E+02  0.43885418723E+03  0.47261235049E+03  0.17155218601E+03 0.  0.
        -24    2    5    5    0    0 -0.21843455618E+02  0.51793858021E+02  0.13976317409E+03  0.16992815210E+03  0.78626279080E+02 0.  0.
          5    1    3    3  502    0  0.20148678582E+02 -0.56280629682E+02  0.45918232231E+03  0.46308095798E+03  0.47000000000E+01 0. -1.
        -13    1    4    4    0    0 -0.15261368350E+02  0.49404812751E+02  0.16050430210E+03  0.16862792141E+03  0.00000000000E+00 0.  1.
         14    1    4    4    0    0 -0.24361710032E+02 -0.24108556756E+02  0.50675518863E+02  0.61177803463E+02  0.00000000000E+00 0. -1.
         -5    1    5    5    0  501  0.41317855418E+02 -0.20809484334E+02  0.29909101314E+03  0.30268419839E+03  0.47000000000E+01 0.  1.
         13    1    6    6    0    0 -0.45203811127E+02  0.25840706812E+02  0.11749096728E+03  0.12851168843E+03  0.00000000000E+00 0. -1.
        -14    1    6    6    0    0  0.23360355509E+02  0.25953151208E+02  0.22272206809E+02  0.41416463674E+02  0.00000000000E+00 0.  1.
</event>
<event>
12    1  0.2609167E-002  0.2151748E+03  0.7818608E-02  0.1137532E+00
         -1   -1    0    0    0  501 -0.00000000000E+00  0.00000000000E+00  0.15712157280E+03  0.15712157280E+03  0.00000000000E+00 0. -1.
          1   -1    0    0  502    0  0.00000000000E+00 -0.00000000000E+00 -0.34753999184E+03  0.34753999184E+03  0.00000000000E+00 0.  1.
          6    2    1    2  502    0  0.12731751882E+03  0.30730370480E+02  0.27029550213E+01  0.21649310236E+03  0.17235965635E+03 0.  0.
         24    2    3    3    0    0  0.88760198959E+00 -0.11767567449E+02 -0.20740777597E+02  0.80985548342E+02  0.77390023284E+02 0.  0.
         -6    2    1    2    0  501 -0.12731751882E+03 -0.30730370480E+02 -0.19312137407E+03  0.28816846228E+03  0.16908900397E+03 0.  0.
        -24    2    5    5    0    0 -0.46568034007E+02  0.38452166954E+02 -0.13171598445E+03  0.16528878676E+03  0.79524408402E+02 0.  0.
          5    1    3    3  502    0  0.12642991683E+03  0.42497937929E+02  0.23443732618E+02  0.13550755402E+03  0.47000000000E+01 0. -1.
        -13    1    4    4    0    0 -0.18872639600E+02 -0.11840489723E+02 -0.44690560950E+02  0.49936158847E+02  0.00000000000E+00 0.  1.
         14    1    4    4    0    0  0.19760241590E+02  0.72922273608E-01  0.23949783353E+02  0.31049389495E+02  0.00000000000E+00 0. -1.
         -5    1    5    5    0  501 -0.80749484810E+02 -0.69182537434E+02 -0.61405389614E+02  0.12287967552E+03  0.47000000000E+01 0.  1.
         11    1    6    6    0    0 -0.55559317876E+02  0.56745019263E+02 -0.10703283537E+03  0.13327739066E+03  0.00000000000E+00 0. -1.
        -12    1    6    6    0    0  0.89912838696E+01 -0.18292852309E+02 -0.24683149088E+02  0.32011396097E+02  0.00000000000E+00 0.  1.
</event>
<event>
12    1  0.2609167E-002  0.2406214E+03  0.7818608E-02  0.1119380E+00
         -1   -1    0    0    0  501 -0.00000000000E+00  0.00000000000E+00  0.31366265654E+03  0.31366265654E+03  0.00000000000E+00 0. -1.
          1   -1    0    0  502    0  0.00000000000E+00 -0.00000000000E+00 -0.45759304718E+03  0.45759304718E+03  0.00000000000E+00 0.  1.
          6    2    1    2  502    0 -0.14303962028E+02  0.16871122585E+03  0.22599689494E+03  0.32948808587E+03  0.16976372153E+03 0.  0.
         24    2    3    3    0    0  0.51635616601E+02  0.11100870484E+03  0.17391018889E+03  0.22744533057E+03  0.80606793433E+02 0.  0.
         -6    2    1    2    0  501  0.14303962028E+02 -0.16871122585E+03 -0.36992728558E+03  0.44176761785E+03  0.17217534814E+03 0.  0.
        -24    2    5    5    0    0  0.30517765396E+02 -0.18500614372E+03 -0.36412119997E+03  0.41759713176E+03  0.81513857522E+02 0.  0.
          5    1    3    3  502    0 -0.65939578629E+02  0.57702521013E+02  0.52086706043E+02  0.10204275529E+03  0.47000000000E+01 0. -1.
        -11    1    4    4    0    0  0.11288622413E+02  0.19371839194E+02 -0.44918637548E+01  0.22866525528E+02  0.00000000000E+00 0.  1.
         12    1    4    4    0    0  0.40346994189E+02  0.91636865644E+02  0.17840205265E+03  0.20457880505E+03  0.00000000000E+00 0. -1.
         -5    1    5    5    0  501 -0.16213803369E+02  0.16294917864E+02 -0.58060856100E+01  0.24170486093E+02  0.47000000000E+01 0.  1.
         13    1    6    6    0    0  0.65672576025E+01 -0.13936405638E+02 -0.10533719765E+03  0.10645786717E+03  0.00000000000E+00 0. -1.
        -14    1    6    6    0    0  0.23950507794E+02 -0.17106973808E+03 -0.25878400232E+03  0.31113926459E+03  0.00000000000E+00 0.  1.
</event>
<event>
12    1  0.2609167E-002  0.2272577E+03  0.7818608E-02  0.1128585E+00
          1   -1    0    0  502    0  0.00000000000E+00  0.00000000000E+00  0.15374981761E+04  0.15374981761E+04  0.00000000000E+00 0.  1.
         -1   -1    0    0    0  501 -0.00000000000E+00 -0.00000000000E+00 -0.45531803446E+02  0.45531803446E+02  0.00000000000E+00 0. -1.
          6    2    1    2  502    0  0.38947539579E+02 -0.14245246755E+03  0.33908969287E+03  0.40784304835E+03  0.17188518240E+03 0.  0.
         24    2    3    3    0    0 -0.18114803138E+02 -0.11831621502E+02  0.13935453103E+03  0.16241660061E+03  0.80568812043E+02 0.  0.
         -6    2    1    2    0  501 -0.38947539579E+02  0.14245246755E+03  0.11528766798E+04  0.11751869312E+04  0.17358014893E+03 0.  0.
        -24    2    5    5    0    0 -0.16503738799E+02  0.34639357075E+01  0.52848178718E+03  0.53509896217E+03  0.82179849646E+02 0.  0.
          5    1    3    3  502    0  0.57062342717E+02 -0.13062084605E+03  0.19973516183E+03  0.24542644774E+03  0.47000000000E+01 0. -1.
        -11    1    4    4    0    0 -0.26472021582E+02 -0.40074068701E+02  0.11343145867E+03  0.12318033416E+03  0.00000000000E+00 0.  1.
         12    1    4    4    0    0  0.83572184438E+01  0.28242447199E+02  0.25923072367E+02  0.39236266449E+02  0.00000000000E+00 0. -1.
         -5    1    5    5    0  501 -0.22443800780E+02  0.13898853184E+03  0.62439489264E+03  0.64008796905E+03  0.47000000000E+01 0.  1.
         13    1    6    6    0    0 -0.39730267958E+02 -0.24510375805E+02  0.25872586025E+03  0.26290363914E+03  0.00000000000E+00 0. -1.
        -14    1    6    6    0    0  0.23226529159E+02  0.27974311512E+02  0.26975592693E+03  0.27219532303E+03  0.00000000000E+00 0.  1.
</event>
<event>
12    1  0.2609167E-002  0.1954898E+03  0.7818608E-02  0.1153601E+00
         -2   -1    0    0    0  501 -0.00000000000E+00  0.00000000000E+00  0.41914079882E+02  0.41914079882E+02  0.00000000000E+00 0.  1.
          2   -1    0    0  502    0  0.00000000000E+00 -0.00000000000E+00 -0.91346777488E+03  0.91346777488E+03  0.00000000000E+00 0. -1.
          6    2    1    2  502    0  0.85615761183E+02  0.45665163821E+02 -0.46066144779E+03  0.50133234402E+03  0.17236526312E+03 0.  0.
         24    2    3    3    0    0 -0.17636537961E+02  0.10963139303E+02 -0.13638223009E+03  0.15921486593E+03  0.79485992180E+02 0.  0.
         -6    2    1    2    0  501 -0.85615761183E+02 -0.45665163821E+02 -0.41089224721E+03  0.45404951075E+03  0.16707230064E+03 0.  0.
        -24    2    5    5    0    0 -0.45514554606E+02 -0.65474854104E+02 -0.14124409235E+03  0.18067660057E+03  0.79596539933E+02 0.  0.
          5    1    3    3  502    0  0.10325229914E+03  0.34702024518E+02 -0.32427921770E+03  0.34211747809E+03  0.47000000000E+01 0. -1.
        -13    1    4    4    0    0  0.50429021890E+01 -0.29767340773E+02 -0.27771506331E+02  0.41021725988E+02  0.00000000000E+00 0.  1.
         14    1    4    4    0    0 -0.22679440150E+02  0.40730480076E+02 -0.10861072376E+03  0.11819313994E+03  0.00000000000E+00 0. -1.
         -5    1    5    5    0  501 -0.40101206577E+02  0.19809690283E+02 -0.26964815487E+03  0.27337291018E+03  0.47000000000E+01 0.  1.
         11    1    6    6    0    0  0.14477613132E+02 -0.54237273433E+01 -0.64223862916E+02  0.66058479154E+02  0.00000000000E+00 0. -1.
        -12    1    6    6    0    0 -0.59992167737E+02 -0.60051126760E+02 -0.77020229429E+02  0.11461812141E+03  0.00000000000E+00 0.  1.
</event>
<event>
12    1  0.2609167E-002  0.2127939E+03  0.7818608E-02  0.1139372E+00
         -1   -1    0    0    0  501 -0.00000000000E+00  0.00000000000E+00  0.21237640741E+03  0.21237640741E+03  0.00000000000E+00 0. -1.
          1   -1    0    0  502    0  0.00000000000E+00 -0.00000000000E+00 -0.23838424375E+03  0.23838424375E+03  0.00000000000E+00 0.  1.
          6    2    1    2  502    0 -0.49998888390E+02 -0.11496143295E+03  0.60206811913E+02  0.22159904165E+03  0.17252609992E+03 0.  0.
         24    2    3    3    0    0 -0.48182651137E+02  0.24464759569E+01  0.44541787624E+02  0.10304357455E+03  0.79413187173E+02 0.  0.
         -6    2    1    2    0  501  0.49998888390E+02  0.11496143295E+03 -0.86214648256E+02  0.22916160951E+03  0.17136527592E+03 0.  0.
        -24    2    5    5    0    0  0.88667657193E+02  0.37917302777E+02 -0.46458500009E+02  0.13411576269E+03  0.80802043884E+02 0.  0.
          5    1    3    3  502    0 -0.18162372525E+01 -0.11740790891E+03  0.15665024290E+02  0.11855546709E+03  0.47000000000E+01 0. -1.
        -11    1    4    4    0    0 -0.19705627853E+02 -0.14301087009E+02 -0.19360080479E+02  0.31107002024E+02  0.00000000000E+00 0.  1.
         12    1    4    4    0    0 -0.28477023284E+02  0.16747562966E+02  0.63901868103E+02  0.71936572530E+02  0.00000000000E+00 0. -1.
         -5    1    5    5    0  501 -0.38668768803E+02  0.77044130173E+02 -0.39756148247E+02  0.95045846823E+02  0.47000000000E+01 0.  1.
         11    1    6    6    0    0  0.41818200707E+02  0.14964187660E+02  0.20760094656E+02  0.49027240926E+02  0.00000000000E+00 0. -1.
        -12    1    6    6    0    0  0.46849456486E+02  0.22953115117E+02 -0.67218594665E+02  0.85088521760E+02  0.00000000000E+00 0.  1.
</event>
<event>
12    1  0.2609167E-002  0.2040035E+03  0.7818608E-02  0.1146405E+00
         -1   -1    0    0    0  501 -0.00000000000E+00  0.00000000000E+00  0.17726044314E+03  0.17726044314E+03  0.00000000000E+00 0. -1.
          1   -1    0    0  502    0  0.00000000000E+00 -0.00000000000E+00 -0.33060918492E+03  0.33060918492E+03  0.00000000000E+00 0.  1.
          6    2    1    2  502    0 -0.11516413717E+03  0.18635463544E+02 -0.21227244857E+03  0.29175677967E+03  0.16264183678E+03 0.  0.
         24    2    3    3    0    0 -0.11795106020E+03  0.62647942220E+02 -0.17752696200E+03  0.23541670462E+03  0.77897274095E+02 0.  0.
         -6    2    1    2    0  501  0.11516413717E+03 -0.18635463544E+02  0.58923706786E+02  0.21611284840E+03  0.17211246622E+03 0.  0.
        -24    2    5    5    0    0  0.11071350950E+03 -0.77706741629E+01  0.10228052216E+03  0.17094919958E+03  0.80277388212E+02 0.  0.
          5    1    3    3  502    0  0.27869230380E+01 -0.44012478676E+02 -0.34745486573E+02  0.56340075048E+02  0.47000000000E+01 0. -1.
        -11    1    4    4    0    0 -0.22003025705E+02  0.25202070414E+02 -0.10296645373E+03  0.10826526722E+03  0.00000000000E+00 0.  1.
         12    1    4    4    0    0 -0.95948034499E+02  0.37445871806E+02 -0.74560508269E+02  0.12715143740E+03  0.00000000000E+00 0. -1.
         -5    1    5    5    0  501  0.44506276613E+01 -0.10864789381E+02 -0.43356815378E+02  0.45163648819E+02  0.47000000000E+01 0.  1.
         13    1    6    6    0    0  0.72429380324E+02 -0.25065581278E+02  0.10365973682E+03  0.12891718092E+03  0.00000000000E+00 0. -1.
        -14    1    6    6    0    0  0.38284129181E+02  0.17294907115E+02 -0.13792146567E+01  0.42032018656E+02  0.00000000000E+00 0.  1.
</event>
<event>
12    1  0.2609167E-002  0.2388355E+03  0.7818608E-02  0.1120571E+00
         -1   -1    0    0    0  501 -0.00000000000E+00  0.00000000000E+00  0.62425304896E+02  0.62425304896E+02  0.00000000000E+00 0. -1.
          1   -1    0    0  502    0  0.00000000000E+00 -0.00000000000E+00 -0.94653391446E+03  0.94653391446E+03  0.00000000000E+00 0.  1.
          6    2    1    2  502    0 -0.54756898130E+02 -0.15066646167E+03 -0.53980837731E+03  0.59120142275E+03  0.18007592146E+03 0.  0.
         24    2    3    3    0    0 -0.30910824553E+02 -0.37112830080E+02 -0.39413842484E+03  0.40490894431E+03  0.79204255032E+02 0.  0.
         -6    2    1    2    0  501  0.54756898130E+02  0.15066646167E+03 -0.34430023226E+03  0.41775779660E+03  0.17401214361E+03 0.  0.
        -24    2    5    5    0    0  0.42598760320E+02  0.18101087287E+03 -0.27725493028E+03  0.34301981346E+03  0.78820718020E+02 0.  0.
          5    1    3    3  502    0 -0.23846073577E+02 -0.11355363159E+03 -0.14566995246E+03  0.18629247844E+03  0.47000000000E+01 0. -1.
        -13    1    4    4    0    0  0.25228102855E+02 -0.12001581719E+01 -0.13472814331E+03  0.13707505299E+03  0.00000000000E+00 0.  1.
         14    1    4    4    0    0 -0.56138927408E+02 -0.35912671909E+02 -0.25941028154E+03  0.26783389132E+03  0.00000000000E+00 0. -1.
         -5    1    5    5    0  501  0.12158137811E+02 -0.30344411194E+02 -0.67045301984E+02  0.74737983140E+02  0.47000000000E+01 0.  1.
         11    1    6    6    0    0  0.58571434880E+02  0.17143614280E+03 -0.23406006214E+03  0.29598154796E+03  0.00000000000E+00 0. -1.
        -12    1    6    6    0    0 -0.15972674560E+02  0.95747300645E+01 -0.43194868135E+02  0.47038265504E+02  0.00000000000E+00 0.  1.
</event>
<event>
12    1  0.2609167E-002  0.3443519E+03  0.7818608E-02  0.1064957E+00
         -2   -1    0    0    0  501 -0.00000000000E+00  0.00000000000E+00  0.34949194602E+03  0.34949194602E+03  0.00000000000E+00 0.  1.
          2   -1    0    0  502    0  0.00000000000E+00 -0.00000000000E+00 -0.51000324921E+03  0.51000324921E+03  0.00000000000E+00 0. -1.
          6    2    1    2  502    0 -0.29007857094E+03  0.69623816988E+02 -0.32889663311E+03  0.47620766865E+03  0.17206886761E+03 0.  0.
         24    2    3    3    0    0 -0.10175339555E+03  0.81787193075E+02 -0.17756989523E+03  0.23426513209E+03  0.79411497659E+02 0.  0.
         -6    2    1    2    0  501  0.29007857094E+03 -0.69623816988E+02  0.16838532992E+03  0.38328752658E+03  0.17193794081E+03 0.  0.
        -24    2    5    5    0    0  0.24735047230E+03 -0.41932921510E+01  0.99152049843E+02  0.27877828745E+03  0.81770194561E+02 0.  0.
          5    1    3    3  502    0 -0.18832517539E+03 -0.12163376087E+02 -0.15132673787E+03  0.24194253656E+03  0.47000000000E+01 0. -1.
        -13    1    4    4    0    0 -0.11096057649E+03  0.70937605649E+02 -0.17618641999E+03  0.21996828867E+03  0.00000000000E+00 0.  1.
         14    1    4    4    0    0  0.92071809361E+01  0.10849587425E+02 -0.13834752478E+01  0.14296843423E+02  0.00000000000E+00 0. -1.
         -5    1    5    5    0  501  0.42728098640E+02 -0.65430524837E+02  0.69233280079E+02  0.10450923913E+03  0.47000000000E+01 0.  1.
         11    1    6    6    0    0  0.11112254706E+03  0.38278041766E+02  0.51713454777E+02  0.12840447948E+03  0.00000000000E+00 0. -1.
        -12    1    6    6    0    0  0.13622792525E+03 -0.42471333917E+02  0.47438595066E+02  0.15037380797E+03  0.00000000000E+00 0.  1.
</event>
<event>
12    1  0.2609167E-002  0.1835400E+03  0.7818608E-02  0.1164420E+00
         -2   -1    0    0    0  501 -0.00000000000E+00  0.00000000000E+00  0.94109564307E+02  0.94109564307E+02  0.00000000000E+00 0.  1.
          2   -1    0    0  502    0  0.00000000000E+00 -0.00000000000E+00 -0.71465011274E+03  0.71465011274E+03  0.00000000000E+00 0. -1.
          6    2    1    2  502    0 -0.58768146513E+02  0.16273902535E+02 -0.23571785113E+02  0.18385673953E+03  0.17184043956E+03 0.  0.
         24    2    3    3    0    0 -0.30492195194E+02  0.28790581636E+02  0.50420514608E+02  0.10352525693E+03  0.80103551540E+02 0.  0.
         -6    2    1    2    0  501  0.58768146513E+02 -0.16273902535E+02 -0.59696876332E+03  0.62490293752E+03  0.17439450105E+03 0.  0.
        -24    2    5    5    0    0 -0.89978773692E+01 -0.56977260290E+02 -0.23345682722E+03  0.25286528484E+03  0.78175393281E+02 0.  0.
          5    1    3    3  502    0 -0.28275951318E+02 -0.12516679100E+02 -0.73992299721E+02  0.80331482600E+02  0.47000000000E+01 0. -1.
        -11    1    4    4    0    0 -0.41946565274E+02 -0.15021638981E+02  0.19169267553E+02  0.48503863706E+02  0.00000000000E+00 0.  1.
         12    1    4    4    0    0  0.11454370079E+02  0.43812220616E+02  0.31251247055E+02  0.55021393219E+02  0.00000000000E+00 0. -1.
         -5    1    5    5    0  501  0.67766023882E+02  0.40703357755E+02 -0.36351193611E+03  0.37203765269E+03  0.47000000000E+01 0.  1.
         13    1    6    6    0    0  0.24561639639E+01  0.14065586552E+02 -0.10206082590E+03  0.10305477014E+03  0.00000000000E+00 0. -1.
        -14    1    6    6    0    0 -0.11454041333E+02 -0.71042846842E+02 -0.13139600132E+03  0.14981051469E+03  0.00000000000E+00 0.  1.
</event>
<event>
12    1  0.2609167E-002  0.1805489E+03  0.7818608E-02  0.1167273E+00
         -2   -1    0    0    0  501 -0.00000000000E+00  0.00000000000E+00  0.54136150491E+03  0.54136150491E+03  0.00000000000E+00 0.  1.
          2   -1    0    0  502    0  0.00000000000E+00 -0.00000000000E+00 -0.63537704742E+02  0.63537704742E+02  0.00000000000E+00 0. -1.
          6    2    1    2  502    0 -0.20683992660E+02 -0.44848292133E+02  0.31050428657E+03  0.36019463207E+03  0.17575000466E+03 0.  0.
         24    2    3    3    0    0 -0.23029785796E+02 -0.73662903424E+02  0.31202006863E+03  0.33086594024E+03  0.78480270192E+02 0.  0.
         -6    2    1    2    0  501  0.20683992660E+02  0.44848292133E+02  0.16731951361E+03  0.24470457758E+03  0.17159636883E+03 0.  0.
        -24    2    5    5    0    0  0.42604906467E+02  0.73297934097E+02  0.59519168203E+02  0.13098161130E+03  0.80161623727E+02 0.  0.
          5    1    3    3  502    0  0.23457931361E+01  0.28814611291E+02 -0.15157820636E+01  0.29328691832E+02  0.47000000000E+01 0. -1.
        -13    1    4    4    0    0 -0.28242988298E+02  0.69003300834E+01  0.93121326912E+02  0.97554407738E+02  0.00000000000E+00 0.  1.
         14    1    4    4    0    0  0.52132025018E+01 -0.80563233507E+02  0.21889874172E+03  0.23331153250E+03  0.00000000000E+00 0. -1.
         -5    1    5    5    0  501 -0.21920913807E+02 -0.28449641964E+02  0.10780034540E+03  0.11372296628E+03  0.47000000000E+01 0.  1.
         11    1    6    6    0    0  0.19579888318E+02  0.52058836313E+02 -0.83402631976E+01  0.56241038886E+02  0.00000000000E+00 0. -1.
        -12    1    6    6    0    0  0.23025018149E+02  0.21239097784E+02  0.67859431401E+02  0.74740572419E+02  0.00000000000E+00 0.  1.
</event>
<event>
12    1  0.2609167E-002  0.2547884E+03  0.7818608E-02  0.1110316E+00
          2   -1    0    0  502    0  0.00000000000E+00  0.00000000000E+00  0.11445205468E+04  0.11445205468E+04  0.00000000000E+00 0.  1.
         -2   -1    0    0    0  501 -0.00000000000E+00 -0.00000000000E+00 -0.58008630381E+02  0.58008630381E+02  0.00000000000E+00 0. -1.
          6    2    1    2  502    0 -0.27217170454E+02  0.18639489485E+03  0.63246780200E+03  0.68178721385E+03  0.17127303704E+03 0.  0.
         24    2    3    3    0    0  0.49007318859E+02  0.10918881870E+03  0.40928459674E+03  0.43358611781E+03  0.78480093033E+02 0.  0.
         -6    2    1    2    0  501  0.27217170454E+02 -0.18639489485E+03  0.45404411441E+03  0.52074196331E+03  0.17184965328E+03 0.  0.
        -24    2    5    5    0    0 -0.24225282086E+02 -0.90469173824E+02  0.13640639615E+03  0.18493862810E+03  0.82607841933E+02 0.  0.
          5    1    3    3  502    0 -0.76224489313E+02  0.77206076153E+02  0.22318320526E+03  0.24820109604E+03  0.47000000000E+01 0. -1.
        -11    1    4    4    0    0 -0.11816305758E+01 -0.10577587633E+02  0.60139791068E+02  0.61074348795E+02  0.00000000000E+00 0.  1.
         12    1    4    4    0    0  0.50188949435E+02  0.11976640633E+03  0.34914480567E+03  0.37251176902E+03  0.00000000000E+00 0. -1.
         -5    1    5    5    0  501  0.51442452541E+02 -0.95925721030E+02  0.31763771826E+03  0.33580333521E+03  0.47000000000E+01 0.  1.
         11    1    6    6    0    0  0.17069263956E+01 -0.97761227765E+02  0.11079004391E+03  0.14776537173E+03  0.00000000000E+00 0. -1.
        -12    1    6    6    0    0 -0.25932208482E+02  0.72920539408E+01  0.25616352234E+02  0.37173256371E+02  0.00000000000E+00 0.  1.
</event>
<event>
12    1  0.2609167E-002  0.2896118E+03  0.7818608E-02  0.1090552E+00
          1   -1    0    0  502    0  0.00000000000E+00  0.00000000000E+00  0.12663704070E+03  0.12663704070E+03  0.00000000000E+00 0.  1.
         -1   -1    0    0    0  501 -0.00000000000E+00 -0.00000000000E+00 -0.82341782216E+03  0.82341782216E+03  0.00000000000E+00 0. -1.
          6    2    1    2  502    0 -0.19947265960E+03  0.11821732934E+03 -0.55931005759E+03  0.63023150381E+03  0.17492663887E+03 0.  0.
         24    2    3    3    0    0 -0.19990257562E+03  0.53660824151E+02 -0.38704206983E+03  0.44620412324E+03  0.80349436806E+02 0.  0.
         -6    2    1    2    0  501  0.19947265960E+03 -0.11821732934E+03 -0.13747072387E+03  0.31982335905E+03  0.17211653663E+03 0.  0.
        -24    2    5    5    0    0  0.47537887091E+02  0.16966638978E+01 -0.19153125710E+02  0.92920990374E+02  0.77490250033E+02 0.  0.
          5    1    3    3  502    0  0.42991601210E+00  0.64556505193E+02 -0.17226798777E+03  0.18402738057E+03  0.47000000000E+01 0. -1.
        -13    1    4    4    0    0 -0.32079296751E+02  0.16871434012E+02 -0.21106056369E+02  0.41942725009E+02  0.00000000000E+00 0.  1.
         14    1    4    4    0    0 -0.16782327887E+03  0.36789390138E+02 -0.36593601346E+03  0.40426139823E+03  0.00000000000E+00 0. -1.
         -5    1    5    5    0  501  0.15193477251E+03 -0.11991399324E+03 -0.11831759816E+03  0.22690236867E+03  0.47000000000E+01 0.  1.
         13    1    6    6    0    0  0.23303019936E+02 -0.36211831466E+02  0.21998462544E+01  0.43118056540E+02  0.00000000000E+00 0. -1.
        -14    1    6    6    0    0  0.24234867155E+02  0.37908495363E+02 -0.21352971964E+02  0.49802933834E+02  0.00000000000E+00 0.  1.
</event>
<event>
12    1  0.2609167E-002  0.2185028E+03  0.7818608E-02  0.1135004E+00
         -2   -1    0    0    0  501 -0.00000000000E+00  0.00000000000E+00  0.12449372056E+03  0.12449372056E+03  0.00000000000E+00 0.  1.
          2   -1    0    0  502    0  0.00000000000E+00 -0.00000000000E+00 -0.50589524885E+03  0.50589524885E+03  0.00000000000E+00 0. -1.
          6    2    1    2  502    0 -0.92480346165E+02  0.98449405820E+02 -0.35910334738E+02  0.22179736006E+03  0.17221967615E+03 0.  0.
         24    2    3    3    0    0 -0.55845192650E+02  0.11806516008E+03 -0.71034162834E+02  0.16718339125E+03  0.76461535790E+02 0.  0.
         -6    2    1    2    0  501  0.92480346165E+02 -0.98449405820E+02 -0.34549119356E+03  0.40859160935E+03  0.17128350321E+03 0.  0.
        -24    2    5    5    0    0  0.18433481273E+01 -0.15019918248E+01 -0.17339375464E+03  0.19121294210E+03  0.80568859784E+02 0.  0.
          5    1    3    3  502    0 -0.36635153516E+02 -0.19615754259E+02  0.35123828096E+02  0.54613968802E+02  0.47000000000E+01 0. -1.
        -13    1    4    4    0    0 -0.51756574662E+02  0.64389061214E+02 -0.60992052161E+01  0.82836553097E+02  0.00000000000E+00 0.  1.
         14    1    4    4    0    0 -0.40886179883E+01  0.53676098865E+02 -0.64934957618E+02  0.84346838158E+02  0.00000000000E+00 0. -1.
         -5    1    5    5    0  501  0.90636998038E+02 -0.96947413995E+02 -0.17209743892E+03  0.21737866725E+03  0.47000000000E+01 0.  1.
         13    1    6    6    0    0  0.18240157189E+02 -0.32026146459E+02 -0.13291170174E+03  0.13792714690E+03  0.00000000000E+00 0. -1.
        -14    1    6    6    0    0 -0.16396809062E+02  0.30524154634E+02 -0.40482052895E+02  0.53285795200E+02  0.00000000000E+00 0.  1.
</event>
<event>
12    1  0.2609167E-002  0.2384344E+03  0.7818608E-02  0.1120840E+00
          2   -1    0    0  502    0  0.00000000000E+00  0.00000000000E+00  0.31847684183E+03  0.31847684183E+03  0.00000000000E+00 0. -1.
         -2   -1    0    0    0  501 -0.00000000000E+00 -0.00000000000E+00 -0.20661654744E+03  0.20661654744E+03  0.00000000000E+00 0.  1.
          6    2    1    2  502    0  0.14929426246E+03 -0.70633347259E+02 -0.40892332678E+02  0.24198055989E+03  0.17205976270E+03 0.  0.
         24    2    3    3    0    0  0.59967969085E+02 -0.82962222603E+01  0.36763857222E+02  0.10812363003E+03  0.81695492851E+02 0.  0.
         -6    2    1    2    0  501 -0.14929426246E+03  0.70633347259E+02  0.15275262707E+03  0.28311282938E+03  0.17187688190E+03 0.  0.
        -24    2    5    5    0    0 -0.10359435124E+03  0.98390783155E+02  0.16003049877E+03  0.22894628482E+03  0.79963147617E+02 0.  0.
          5    1    3    3  502    0  0.89326293379E+02 -0.62337124999E+02 -0.77656189900E+02  0.13385692986E+03  0.47000000000E+01 0. -1.
        -13    1    4    4    0    0  0.31953663103E+02  0.32236389100E+02 -0.19963438670E+01  0.45433542199E+02  0.00000000000E+00 0.  1.
         14    1    4    4    0    0  0.28014305982E+02 -0.40532611360E+02  0.38760201089E+02  0.62690087828E+02  0.00000000000E+00 0. -1.
         -5    1    5    5    0  501 -0.45699911225E+02 -0.27757435895E+02 -0.72778716968E+01  0.54166544563E+02  0.47000000000E+01 0.  1.
         13    1    6    6    0    0 -0.77181971167E+02  0.21105431424E+02  0.97218340901E+02  0.12591227786E+03  0.00000000000E+00 0. -1.
        -14    1    6    6    0    0 -0.26412380073E+02  0.77285351731E+02  0.62812157866E+02  0.10303400695E+03  0.00000000000E+00 0.  1.
</event>
<event>
12    1  0.2609167E-002  0.3155170E+03  0.7818608E-02  0.1077731E+00
          2   -1    0    0  502    0  0.00000000000E+00  0.00000000000E+00  0.37267088582E+04  0.37267088582E+04  0.00000000000E+00 0. -1.
         -2   -1    0    0    0  501 -0.00000000000E+00 -0.00000000000E+00 -0.28675924078E+02  0.28675924078E+02  0.00000000000E+00 0.  1.
          6    2    1    2  502    0 -0.22270888053E+03 -0.14175824121E+03  0.23436086241E+04  0.23648333508E+04  0.17389867555E+03 0.  0.
         24    2    3    3    0    0 -0.10026875792E+03  0.42156982399E+00  0.10696126304E+04  0.10770854855E+04  0.77381926551E+02 0.  0.
         -6    2    1    2    0  501  0.22270888053E+03  0.14175824121E+03  0.13544243100E+04  0.13905514315E+04  0.17167826822E+03 0.  0.
        -24    2    5    5    0    0  0.16443404169E+03  0.29547335187E+02  0.76551314765E+03  0.78820129131E+03  0.85669698962E+02 0.  0.
          5    1    3    3  502    0 -0.12244012261E+03 -0.14217981103E+03  0.12739959937E+04  0.12877478652E+04  0.47000000000E+01 0. -1.
        -13    1    4    4    0    0 -0.60289823537E+02 -0.31377282004E+02  0.78400563044E+03  0.78694613869E+03  0.00000000000E+00 0.  1.
         14    1    4    4    0    0 -0.39978934383E+02  0.31798851828E+02  0.28560699995E+03  0.29013934685E+03  0.00000000000E+00 0. -1.
         -5    1    5    5    0  501  0.58274838839E+02  0.11221090602E+03  0.58891116232E+03  0.60235014018E+03  0.47000000000E+01 0.  1.
         11    1    6    6    0    0  0.11082108371E+03  0.80804183568E+01  0.31544440844E+03  0.33444249217E+03  0.00000000000E+00 0. -1.
        -12    1    6    6    0    0  0.53612957977E+02  0.21466916830E+02  0.45006873921E+03  0.45375879914E+03  0.00000000000E+00 0.  1.
</event>
<event>
12    1  0.2609167E-002  0.3918915E+03  0.7818608E-02  0.1046624E+00
          1   -1    0    0  502    0  0.00000000000E+00  0.00000000000E+00  0.30396881573E+03  0.30396881573E+03  0.00000000000E+00 0.  1.
         -1   -1    0    0    0  501 -0.00000000000E+00 -0.00000000000E+00 -0.58257276494E+03  0.58257276494E+03  0.00000000000E+00 0. -1.
          6    2    1    2  502    0  0.39855505698E+02 -0.34883222645E+03  0.22225091877E+02  0.39241824491E+03  0.17385551669E+03 0.  0.
         24    2    3    3    0    0  0.95346726656E+02 -0.24360182678E+03  0.19102059993E+02  0.27331931147E+03  0.76848611127E+02 0.  0.
         -6    2    1    2    0  501 -0.39855505698E+02  0.34883222645E+03 -0.30082904108E+03  0.49412333576E+03  0.17431975057E+03 0.  0.
        -24    2    5    5    0    0 -0.18423672391E+02  0.25494352452E+03 -0.29315222133E+03  0.39739983608E+03  0.81564529312E+02 0.  0.
          5    1    3    3  502    0 -0.55491220958E+02 -0.10523039968E+03  0.31230318839E+01  0.11909893344E+03  0.47000000000E+01 0. -1.
        -11    1    4    4    0    0 -0.82478954816E+00 -0.58496375064E+02  0.27304630368E+02  0.64560429157E+02  0.00000000000E+00 0.  1.
         12    1    4    4    0    0  0.96171516204E+02 -0.18510545171E+03 -0.82025703748E+01  0.20875888231E+03  0.00000000000E+00 0. -1.
         -5    1    5    5    0  501 -0.21431833307E+02  0.93888701935E+02 -0.76768197495E+01  0.96723499685E+02  0.47000000000E+01 0.  1.
         11    1    6    6    0    0 -0.33316675978E+02  0.17051183018E+03 -0.14529482983E+03  0.22648371400E+03  0.00000000000E+00 0. -1.
        -12    1    6    6    0    0  0.14893003587E+02  0.84431694335E+02 -0.14785739150E+03  0.17091612208E+03  0.00000000000E+00 0.  1.
</event>
<event>
12    1  0.2609167E-002  0.1899382E+03  0.7818608E-02  0.1158517E+00
         -1   -1    0    0    0  501 -0.00000000000E+00  0.00000000000E+00  0.14606712129E+04  0.14606712129E+04  0.00000000000E+00 0. -1.
          1   -1    0    0  502    0  0.00000000000E+00 -0.00000000000E+00 -0.65066767061E+02  0.65066767061E+02  0.00000000000E+00 0.  1.
          6    2    1    2  502    0 -0.50660522821E+02  0.62224987315E+02  0.12976929156E+04  0.13114172529E+04  0.17137639963E+03 0.  0.
         24    2    3    3    0    0 -0.32107046781E+02  0.26331469986E+02  0.30309772538E+03  0.31599058132E+03  0.79105041475E+02 0.  0.
         -6    2    1    2    0  501  0.50660522821E+02 -0.62224987315E+02  0.97911530255E+02  0.21432072709E+03  0.17294007253E+03 0.  0.
        -24    2    5    5    0    0  0.91988003153E+01 -0.59500093351E+01  0.11511116613E+03  0.14218290723E+03  0.82736799571E+02 0.  0.
          5    1    3    3  502    0 -0.18553476040E+02  0.35893517328E+02  0.99459519022E+03  0.99542667157E+03  0.47000000000E+01 0. -1.
        -13    1    4    4    0    0  0.64928749567E+01 -0.12630008950E+02  0.89782043320E+01  0.16801270914E+02  0.00000000000E+00 0.  1.
         14    1    4    4    0    0 -0.38599921738E+02  0.38961478936E+02  0.29411952105E+03  0.29918931040E+03  0.00000000000E+00 0. -1.
         -5    1    5    5    0  501  0.41461722506E+02 -0.56274977979E+02 -0.17199635873E+02  0.72137819858E+02  0.47000000000E+01 0.  1.
         11    1    6    6    0    0  0.33239605123E+02 -0.42706396163E+01  0.10929197802E+02  0.35249923065E+02  0.00000000000E+00 0. -1.
        -12    1    6    6    0    0 -0.24040804808E+02 -0.16793697188E+01  0.10418196833E+03  0.10693298417E+03  0.00000000000E+00 0.  1.
</event>
<event>
12    1  0.2609167E-002  0.1961740E+03  0.7818608E-02  0.1153008E+00
         -2   -1    0    0    0  501 -0.00000000000E+00  0.00000000000E+00  0.18795844917E+02  0.18795844917E+02  0.00000000000E+00 0. -1.
          2   -1    0    0  502    0  0.00000000000E+00 -0.00000000000E+00 -0.26011574716E+04  0.26011574716E+04  0.00000000000E+00 0.  1.
          6    2    1    2  502    0  0.79795135907E+02 -0.48983501143E+02 -0.68741190351E+03  0.71488825046E+03  0.17252083487E+03 0.  0.
         24    2    3    3    0    0  0.11160301018E+03 -0.98592511280E+00 -0.45715868252E+03  0.47749797276E+03  0.80957081579E+02 0.  0.
         -6    2    1    2    0  501 -0.79795135907E+02  0.48983501143E+02 -0.18949497232E+04  0.19050650661E+04  0.17225505928E+03 0.  0.
        -24    2    5    5    0    0 -0.34461076808E+01  0.56855676279E+02 -0.60540643581E+03  0.61323104992E+03  0.79315348357E+02 0.  0.
          5    1    3    3  502    0 -0.31807874277E+02 -0.47997576031E+02 -0.23025322099E+03  0.23739027770E+03  0.47000000000E+01 0. -1.
        -11    1    4    4    0    0  0.28654395076E+02 -0.18800769248E+02 -0.26802691819E+03  0.27020912671E+03  0.00000000000E+00 0.  1.
         12    1    4    4    0    0  0.82948615108E+02  0.17814844136E+02 -0.18913176433E+03  0.20728884605E+03  0.00000000000E+00 0. -1.
         -5    1    5    5    0  501 -0.76349028227E+02 -0.78721751357E+01 -0.12895432874E+04  0.12918340162E+04  0.47000000000E+01 0.  1.
         11    1    6    6    0    0 -0.10880246969E+02  0.74695842810E+02 -0.41169037017E+03  0.41855323388E+03  0.00000000000E+00 0. -1.
        -12    1    6    6    0    0  0.74341392881E+01 -0.17840166531E+02 -0.19371606564E+03  0.19467781603E+03  0.00000000000E+00 0.  1.
</event>
<event>
12    1  0.2609167E-002  0.1761856E+03  0.7818608E-02  0.1171547E+00
         -1   -1    0    0    0  501 -0.00000000000E+00  0.00000000000E+00  0.10228895800E+04  0.10228895800E+04  0.00000000000E+00 0.  1.
          1   -1    0    0  502    0  0.00000000000E+00 -0.00000000000E+00 -0.57908230484E+02  0.57908230484E+02  0.00000000000E+00 0. -1.
          6    2    1    2  502    0  0.40522793563E+02 -0.62443138604E+01  0.85473773967E+03  0.87262749573E+03  0.17094166969E+03 0.  0.
         24    2    3    3    0    0  0.44943707839E+01 -0.58652293653E+02  0.33059908927E+03  0.34462365253E+03  0.77520404643E+02 0.  0.
         -6    2    1    2    0  501 -0.40522793563E+02  0.62443138604E+01  0.11024360987E+03  0.20817031478E+03  0.17175604264E+03 0.  0.
        -24    2    5    5    0    0 -0.56470178755E+01  0.60595712179E+02  0.62912227545E+02  0.12796592598E+03  0.93346669426E+02 0.  0.
          5    1    3    3  502    0  0.36028422779E+02  0.52407979793E+02  0.52413865040E+03  0.52800384320E+03  0.47000000000E+01 0. -1.
        -11    1    4    4    0    0 -0.32414709152E+02 -0.18870778929E+02  0.82006781838E+02  0.90177225142E+02  0.00000000000E+00 0.  1.
         12    1    4    4    0    0  0.36909079935E+02 -0.39781514724E+02  0.24859230744E+03  0.25444642739E+03  0.00000000000E+00 0. -1.
         -5    1    5    5    0  501 -0.34875775688E+02 -0.54351398318E+02  0.47331382325E+02  0.80204388794E+02  0.47000000000E+01 0.  1.
         13    1    6    6    0    0 -0.24022382629E+02  0.51447077212E+01 -0.16344455861E+02  0.29507357085E+02  0.00000000000E+00 0. -1.
        -14    1    6    6    0    0  0.18375364754E+02  0.55451004458E+02  0.79256683406E+02  0.98458568899E+02  0.00000000000E+00 0.  1.
</event>
<event>
12    1  0.2609167E-002  0.1761059E+03  0.7818608E-02  0.1171626E+00
          2   -1    0    0  502    0  0.00000000000E+00  0.00000000000E+00  0.23952313024E+04  0.23952313024E+04  0.00000000000E+00 0.  1.
         -2   -1    0    0    0  501 -0.00000000000E+00 -0.00000000000E+00 -0.14870195622E+02  0.14870195622E+02  0.00000000000E+00 0. -1.
          6    2    1    2  502    0 -0.11506625424E+02 -0.35209735115E+02  0.75089856989E+03  0.77103862272E+03  0.17111331797E+03 0.  0.
         24    2    3    3    0    0 -0.46687026437E+02 -0.67938070186E+02  0.37982602993E+03  0.39683850988E+03  0.80110736478E+02 0.  0.
         -6    2    1    2    0  501  0.11506625424E+02  0.35209735115E+02  0.16294625368E+04  0.16390628753E+04  0.17322477361E+03 0.  0.
        -24    2    5    5    0    0  0.48893516908E+02 -0.33254556608E+02  0.94120222028E+03  0.94638005299E+03  0.79228427482E+02 0.  0.
          5    1    3    3  502    0  0.35180401013E+02  0.32728335070E+02  0.37107253996E+03  0.37420011284E+03  0.47000000000E+01 0. -1.
        -13    1    4    4    0    0 -0.20570443881E+02 -0.13125415537E+02  0.27200524368E+03  0.27309755086E+03  0.00000000000E+00 0.  1.
         14    1    4    4    0    0 -0.26116582556E+02 -0.54812654649E+02  0.10782078624E+03  0.12374095902E+03  0.00000000000E+00 0. -1.
         -5    1    5    5    0  501 -0.37386891483E+02  0.68464291723E+02  0.68826031656E+03  0.69268282226E+03  0.47000000000E+01 0.  1.
         13    1    6    6    0    0  0.44534864824E+01 -0.15591406080E+02  0.31561354267E+02  0.35483018031E+02  0.00000000000E+00 0. -1.
        -14    1    6    6    0    0  0.44440030425E+02 -0.17663150528E+02  0.90964086601E+03  0.91089703496E+03  0.00000000000E+00 0.  1.
</event>
<event>
12    1  0.2609167E-002  0.1749643E+03  0.7818608E-02  0.1172768E+00
         -1   -1    0    0    0  501 -0.00000000000E+00  0.00000000000E+00  0.29574285168E+02  0.29574285168E+02  0.00000000000E+00 0. -1.
          1   -1    0    0  502    0  0.00000000000E+00 -0.00000000000E+00 -0.12538138158E+04  0.12538138158E+04  0.00000000000E+00 0.  1.
          6    2    1    2  502    0 -0.27888419895E+02  0.14385907621E+02 -0.34197290502E+03  0.38379427213E+03  0.17137052619E+03 0.  0.
         24    2    3    3    0    0 -0.70359596704E+02 -0.17285997659E+02 -0.28949405837E+03  0.30907459742E+03  0.80442640256E+02 0.  0.
         -6    2    1    2    0  501  0.27888419895E+02 -0.14385907621E+02 -0.88226662559E+03  0.89959382882E+03  0.17288707273E+03 0.  0.
        -24    2    5    5    0    0 -0.14470862945E+02  0.29770098666E+02 -0.73788412299E+03  0.74271024525E+03  0.77780876840E+02 0.  0.
          5    1    3    3  502    0  0.42471176809E+02  0.31671905280E+02 -0.52478846651E+02  0.74719674714E+02  0.47000000000E+01 0. -1.
        -11    1    4    4    0    0 -0.14086660117E+02 -0.42423992833E+02 -0.93847399703E+02  0.10394981285E+03  0.00000000000E+00 0.  1.
         12    1    4    4    0    0 -0.56272936586E+02  0.25137995174E+02 -0.19564665867E+03  0.20512478456E+03  0.00000000000E+00 0. -1.
         -5    1    5    5    0  501  0.42359282839E+02 -0.44156006286E+02 -0.14438250260E+03  0.15688358356E+03  0.47000000000E+01 0.  1.
         13    1    6    6    0    0  0.42811074189E+01  0.14668585269E+02 -0.24202782497E+02  0.28622892152E+02  0.00000000000E+00 0. -1.
        -14    1    6    6    0    0 -0.18751970364E+02  0.15101513397E+02 -0.71368134049E+03  0.71408735310E+03  0.00000000000E+00 0.  1.
</event>
<event>
12    1  0.2609167E-002  0.1865162E+03  0.7818608E-02  0.1161642E+00
         -1   -1    0    0    0  501 -0.00000000000E+00  0.00000000000E+00  0.15569706286E+03  0.15569706286E+03  0.00000000000E+00 0. -1.
          1   -1    0    0  502    0  0.00000000000E+00 -0.00000000000E+00 -0.27372741216E+03  0.27372741216E+03  0.00000000000E+00 0.  1.
          6    2    1    2  502    0 -0.46508122120E+02  0.53661585712E+02 -0.15103128969E+03  0.23994546993E+03  0.17239723568E+03 0.  0.
         24    2    3    3    0    0 -0.58614022708E+02  0.86177642718E+01 -0.16438672902E+03  0.19120168634E+03  0.77622282011E+02 0.  0.
         -6    2    1    2    0  501  0.46508122120E+02 -0.53661585712E+02  0.33000940388E+02  0.18947900509E+03  0.17254176334E+03 0.  0.
        -24    2    5    5    0    0  0.63135001752E+02 -0.95658396361E+02  0.37215176607E+02  0.14387160418E+03  0.78597149297E+02 0.  0.
          5    1    3    3  502    0  0.12105900588E+02  0.45043821441E+02  0.13355439325E+02  0.48743783589E+02  0.47000000000E+01 0. -1.
        -13    1    4    4    0    0 -0.19701370272E+02  0.27617076168E+02 -0.13418452426E+03  0.13840640678E+03  0.00000000000E+00 0.  1.
         14    1    4    4    0    0 -0.38912652436E+02 -0.18999311897E+02 -0.30202204759E+02  0.52795279566E+02  0.00000000000E+00 0. -1.
         -5    1    5    5    0  501 -0.16626879632E+02  0.41996810648E+02 -0.42142362190E+01  0.45607400911E+02  0.47000000000E+01 0.  1.
         11    1    6    6    0    0  0.64197494393E+02 -0.60795751483E+02 -0.56647156296E+01  0.88597577212E+02  0.00000000000E+00 0. -1.
        -12    1    6    6    0    0 -0.10624926412E+01 -0.34862644878E+02  0.42879892237E+02  0.55274026963E+02  0.00000000000E+00 0.  1.
</event>
<event>
12    1  0.2609167E-002  0.2035767E+03  0.7818608E-02  0.1146756E+00
         -3   -1    0    0    0  501 -0.00000000000E+00  0.00000000000E+00  0.22150748754E+03  0.22150748754E+03  0.00000000000E+00 0.  1.
          3   -1    0    0  502    0  0.00000000000E+00 -0.00000000000E+00 -0.24838421865E+03  0.24838421865E+03  0.00000000000E+00 0. -1.
          6    2    1    2  502    0  0.98517469181E+02  0.46149655042E+02 -0.13016536839E+03  0.24202614546E+03  0.17262140529E+03 0.  0.
         24    2    3    3    0    0  0.73374773293E+02  0.95454841987E+02 -0.84594745705E+02  0.17017958487E+03  0.85494654172E+02 0.  0.
         -6    2    1    2    0  501 -0.98517469181E+02 -0.46149655042E+02  0.10328863728E+03  0.22786556073E+03  0.17151877093E+03 0.  0.
        -24    2    5    5    0    0 -0.75324227234E+00  0.58578038899E+01  0.51560141086E+01  0.79829343614E+02  0.79443428803E+02 0.  0.
          5    1    3    3  502    0  0.25142695888E+02 -0.49305186946E+02 -0.45570622690E+02  0.71846560590E+02  0.47000000000E+01 0. -1.
        -13    1    4    4    0    0 -0.58482719115E+01  0.40378444646E+02  0.15549656875E+01  0.40829388860E+02  0.00000000000E+00 0.  1.
         14    1    4    4    0    0  0.79223045205E+02  0.55076397342E+02 -0.86149711392E+02  0.12935019601E+03  0.00000000000E+00 0. -1.
         -5    1    5    5    0  501 -0.97764226909E+02 -0.52007458932E+02  0.98132623170E+02  0.14803621712E+03  0.47000000000E+01 0.  1.
         13    1    6    6    0    0 -0.17805525497E+02  0.88117561261E+01 -0.32667749983E+02  0.38234352004E+02  0.00000000000E+00 0. -1.
        -14    1    6    6    0    0  0.17052283225E+02 -0.29539522362E+01  0.37823764091E+02  0.41594991610E+02  0.00000000000E+00 0.  1.
</event>
<event>
12    1  0.2609167E-002  0.2099644E+03  0.7818608E-02  0.1141594E+00
         -2   -1    0    0    0  501 -0.00000000000E+00  0.00000000000E+00  0.97303484149E+02  0.97303484149E+02  0.00000000000E+00 0. -1.
          2   -1    0    0  502    0  0.00000000000E+00 -0.00000000000E+00 -0.45412374291E+03  0.45412374291E+03  0.00000000000E+00 0.  1.
          6    2    1    2  502    0  0.34934814870E+02 -0.10988216381E+03 -0.19306004625E+03  0.29153398314E+03  0.18554069811E+03 0.  0.
         24    2    3    3    0    0 -0.18176483684E+01 -0.98492288102E+02 -0.21267139402E+03  0.24809243869E+03  0.81343110577E+02 0.  0.
         -6    2    1    2    0  501 -0.34934814870E+02  0.10988216381E+03 -0.16376021251E+03  0.25989324392E+03  0.16562777490E+03 0.  0.
        -24    2    5    5    0    0 -0.40713007805E+02  0.27970000378E+02 -0.14952032635E+03  0.17641956909E+03  0.79546630596E+02 0.  0.
          5    1    3    3  502    0  0.36752463239E+02 -0.11389875709E+02  0.19611347773E+02  0.43441544450E+02  0.47000000000E+01 0. -1.
        -11    1    4    4    0    0  0.38621370467E+02 -0.53303272839E+02 -0.12815532473E+03  0.14407163638E+03  0.00000000000E+00 0.  1.
         12    1    4    4    0    0 -0.40439018835E+02 -0.45189015263E+02 -0.84516069290E+02  0.10402080231E+03  0.00000000000E+00 0. -1.
         -5    1    5    5    0  501  0.57781929344E+01  0.81912163433E+02 -0.14239886158E+02  0.83473674830E+02  0.47000000000E+01 0.  1.
         13    1    6    6    0    0  0.80710677408E+01 -0.71614880705E+01  0.40315071071E+01  0.11518771437E+02  0.00000000000E+00 0. -1.
        -14    1    6    6    0    0 -0.48784075545E+02  0.35131488449E+02 -0.15355183346E+03  0.16490079765E+03  0.00000000000E+00 0.  1.
</event>
<event>
12    1  0.2609167E-002  0.2005802E+03  0.7818608E-02  0.1149250E+00
          2   -1    0    0  502    0  0.00000000000E+00  0.00000000000E+00  0.18356373004E+04  0.18356373004E+04  0.00000000000E+00 0.  1.
         -2   -1    0    0    0  501 -0.00000000000E+00 -0.00000000000E+00 -0.25629123106E+02  0.25629123106E+02  0.00000000000E+00 0. -1.
          6    2    1    2  502    0 -0.76053349816E+02 -0.66409618118E+02  0.54758980001E+03  0.58287890710E+03  0.17233363537E+03 0.  0.
         24    2    3    3    0    0 -0.94516398399E+02 -0.14679667988E+02  0.24308906360E+03  0.27342832886E+03  0.80758380141E+02 0.  0.
         -6    2    1    2    0  501  0.76053349816E+02  0.66409618118E+02  0.12624183773E+04  0.12783875164E+04  0.17429897699E+03 0.  0.
        -24    2    5    5    0    0 -0.21671981315E+02  0.45676219765E+02  0.78071327536E+03  0.78640986510E+03  0.79820209121E+02 0.  0.
          5    1    3    3  502    0  0.18463048583E+02 -0.51729950130E+02  0.30450073640E+03  0.30945057824E+03  0.47000000000E+01 0. -1.
        -13    1    4    4    0    0 -0.51442315592E+02 -0.15108424395E+02  0.21597200975E+03  0.22252749340E+03  0.00000000000E+00 0.  1.
         14    1    4    4    0    0 -0.43074082807E+02  0.42875640695E+00  0.27117053854E+02  0.50900835469E+02  0.00000000000E+00 0. -1.
         -5    1    5    5    0  501  0.97725331131E+02  0.20733398353E+02  0.48170510190E+03  0.49197765126E+03  0.47000000000E+01 0.  1.
         11    1    6    6    0    0  0.22942106889E+02  0.40800733984E+02  0.30316283334E+03  0.30675518526E+03  0.00000000000E+00 0. -1.
        -12    1    6    6    0    0 -0.44614088204E+02  0.48754857809E+01  0.47755044201E+03  0.47965467984E+03  0.00000000000E+00 0.  1.
</event>
<event>
12    1  0.2609167E-002  0.2283372E+03  0.7818608E-02  0.1127816E+00
         -1   -1    0    0    0  501 -0.00000000000E+00  0.00000000000E+00  0.25450893599E+02  0.25450893599E+02  0.00000000000E+00 0. -1.
          1   -1    0    0  502    0  0.00000000000E+00 -0.00000000000E+00 -0.22979723230E+04  0.22979723230E+04  0.00000000000E+00 0.  1.
          6    2    1    2  502    0  0.97829552520E+02 -0.11444895746E+03 -0.15174083937E+04  0.15344396790E+04  0.17119494739E+03 0.  0.
         24    2    3    3    0    0  0.87456651012E+02 -0.12160279419E+03 -0.15090339144E+04  0.15185968141E+04  0.80728083722E+02 0.  0.
         -6    2    1    2    0  501 -0.97829552520E+02  0.11444895746E+03 -0.75511303568E+03  0.78898353758E+03  0.17213407769E+03 0.  0.
        -24    2    5    5    0    0 -0.11465228228E+03  0.45628592203E+02 -0.61632709662E+03  0.63308974748E+03  0.75607037202E+02 0.  0.
          5    1    3    3  502    0  0.10372901508E+02  0.71538367335E+01 -0.83744792784E+01  0.15842864920E+02  0.47000000000E+01 0. -1.
        -11    1    4    4    0    0 -0.31299184188E+01 -0.53349591004E+02 -0.35458320537E+03  0.35858782018E+03  0.00000000000E+00 0.  1.
         12    1    4    4    0    0  0.90586569431E+02 -0.68253203191E+02 -0.11544507090E+04  0.11600089939E+04  0.00000000000E+00 0. -1.
         -5    1    5    5    0  501  0.16822729755E+02  0.68820365259E+02 -0.13878593906E+03  0.15589379010E+03  0.47000000000E+01 0.  1.
         13    1    6    6    0    0 -0.36692835296E+02  0.52511198091E+02 -0.33550013358E+03  0.34156131180E+03  0.00000000000E+00 0. -1.
        -14    1    6    6    0    0 -0.77959446979E+02 -0.68826058885E+01 -0.28082696304E+03  0.29152843568E+03  0.00000000000E+00 0.  1.
</event>
<event>
12    1  0.2609167E-002  0.1804733E+03  0.7818608E-02  0.1167346E+00
          1   -1    0    0  502    0  0.00000000000E+00  0.00000000000E+00  0.52602239968E+02  0.52602239968E+02  0.00000000000E+00 0.  1.
         -1   -1    0    0    0  501 -0.00000000000E+00 -0.00000000000E+00 -0.77814751103E+03  0.77814751103E+03  0.00000000000E+00 0. -1.
          6    2    1    2  502    0 -0.41401409024E+02  0.37998968615E+02 -0.17567555837E+03  0.25214519493E+03  0.17192236397E+03 0.  0.
         24    2    3    3    0    0  0.26430005008E+02 -0.19465844505E+02 -0.55659164398E+02  0.10271517687E+03  0.79843601560E+02 0.  0.
         -6    2    1    2    0  501  0.41401409024E+02 -0.37998968615E+02 -0.54986971269E+03  0.57860455607E+03  0.17108048715E+03 0.  0.
        -24    2    5    5    0    0  0.88517240467E+02 -0.14071409080E+01 -0.40045274904E+03  0.41764995857E+03  0.78941761941E+02 0.  0.
          5    1    3    3  502    0 -0.67831414031E+02  0.57464813120E+02 -0.12001639398E+03  0.14943001807E+03  0.47000000000E+01 0. -1.
        -11    1    4    4    0    0  0.10447771203E+02 -0.29478947088E+02  0.11220277254E+02  0.33227381272E+02  0.00000000000E+00 0.  1.
         12    1    4    4    0    0  0.15982233805E+02  0.10013102584E+02 -0.66879441652E+02  0.69487795593E+02  0.00000000000E+00 0. -1.
         -5    1    5    5    0  501 -0.47115831443E+02 -0.36591827707E+02 -0.14941696365E+03  0.16095459749E+03  0.47000000000E+01 0.  1.
         13    1    6    6    0    0  0.51970424101E+01 -0.19490503575E+02 -0.18254744052E+03  0.18365853375E+03  0.00000000000E+00 0. -1.
        -14    1    6    6    0    0  0.83320198057E+02  0.18083362667E+02 -0.21790530852E+03  0.23399142482E+03  0.00000000000E+00 0.  1.
</event>
<event>
12    1  0.2609167E-002  0.2203206E+03  0.7818608E-02  0.1133644E+00
          2   -1    0    0  502    0  0.00000000000E+00  0.00000000000E+00  0.66159549751E+02  0.66159549751E+02  0.00000000000E+00 0. -1.
         -2   -1    0    0    0  501 -0.00000000000E+00 -0.00000000000E+00 -0.84596606377E+03  0.84596606377E+03  0.00000000000E+00 0.  1.
          6    2    1    2  502    0  0.11893263397E+03 -0.62988747358E+02 -0.55277645139E+03  0.59429767001E+03  0.17180035405E+03 0.  0.
         24    2    3    3    0    0  0.89656980504E+02 -0.10526363812E+03 -0.47445754481E+03  0.50048844124E+03  0.79119595064E+02 0.  0.
         -6    2    1    2    0  501 -0.11893263397E+03  0.62988747358E+02 -0.22703006263E+03  0.31782794351E+03  0.17708585099E+03 0.  0.
        -24    2    5    5    0    0 -0.96373064350E+02  0.76950186728E+02 -0.24519725599E+03  0.28533189936E+03  0.77996792730E+02 0.  0.
          5    1    3    3  502    0  0.29275653467E+02  0.42274890763E+02 -0.78318906578E+02  0.93809228770E+02  0.47000000000E+01 0. -1.
        -13    1    4    4    0    0  0.74729527196E+02 -0.84260406470E+02 -0.45349573028E+03  0.46727154388E+03  0.00000000000E+00 0.  1.
         14    1    4    4    0    0  0.14927453308E+02 -0.21003231651E+02 -0.20961814529E+02  0.33216897362E+02  0.00000000000E+00 0. -1.
         -5    1    5    5    0  501 -0.22559569621E+02 -0.13961439370E+02  0.18167193364E+02  0.32496044151E+02  0.47000000000E+01 0.  1.
         13    1    6    6    0    0 -0.22438149238E+02 -0.70206820049E+01 -0.11368767719E+02  0.26115309619E+02  0.00000000000E+00 0. -1.
        -14    1    6    6    0    0 -0.73934915112E+02  0.83970868733E+02 -0.23382848828E+03  0.25921658974E+03  0.00000000000E+00 0.  1.
</event>
<event>
12    1  0.2609167E-002  0.2494172E+03  0.7818608E-02  0.1113674E+00
         -1   -1    0    0    0  501 -0.00000000000E+00  0.00000000000E+00  0.46536430281E+03  0.46536430281E+03  0.00000000000E+00 0. -1.
          1   -1    0    0  502    0  0.00000000000E+00 -0.00000000000E+00 -0.14893972681E+03  0.14893972681E+03  0.00000000000E+00 0.  1.
          6    2    1    2  502    0  0.11773427343E+03 -0.13789285687E+03  0.60200809314E+02  0.25710663700E+03  0.17205779910E+03 0.  0.
         24    2    3    3    0    0  0.13400646850E+03 -0.14466918137E+03  0.21144117796E+02  0.21399958354E+03  0.80385585757E+02 0.  0.
         -6    2    1    2    0  501 -0.11773427343E+03  0.13789285687E+03  0.25622376669E+03  0.35719739261E+03  0.17048037880E+03 0.  0.
        -24    2    5    5    0    0 -0.75589967129E+02  0.31128794292E+02  0.57870262628E+02  0.12797935190E+03  0.79667447884E+02 0.  0.
          5    1    3    3  502    0 -0.16272195072E+02  0.67763244976E+01  0.39056691519E+02  0.43107053466E+02  0.47000000000E+01 0. -1.
        -11    1    4    4    0    0  0.11092179599E+03 -0.65780284414E+02  0.26400387044E+02  0.13163461201E+03  0.00000000000E+00 0.  1.
         12    1    4    4    0    0  0.23084672513E+02 -0.78888896956E+02 -0.52562692482E+01  0.82364971526E+02  0.00000000000E+00 0. -1.
         -5    1    5    5    0  501 -0.42144306303E+02  0.10676406258E+03  0.19835350406E+03  0.22921804071E+03  0.47000000000E+01 0.  1.
         13    1    6    6    0    0 -0.80427510017E+02  0.44276319667E+02  0.64775893056E+02  0.11236054989E+03  0.00000000000E+00 0. -1.
        -14    1    6    6    0    0  0.48375428883E+01 -0.13147525375E+02 -0.69056304278E+01  0.15618802012E+02  0.00000000000E+00 0.  1.
</event>
<event>
12    1  0.2609167E-002  0.1833914E+03  0.7818608E-02  0.1164561E+00
          2   -1    0    0  502    0  0.00000000000E+00  0.00000000000E+00  0.33278241703E+04  0.33278241703E+04  0.00000000000E+00 0. -1.
         -2   -1    0    0    0  501 -0.00000000000E+00 -0.00000000000E+00 -0.10657485255E+02  0.10657485255E+02  0.00000000000E+00 0.  1.
          6    2    1    2  502    0 -0.50150595083E+02  0.29073788686E+02  0.20266642043E+04  0.20348268682E+04  0.17260422728E+03 0.  0.
         24    2    3    3    0    0  0.62924439312E+01  0.73793950846E+02  0.13147983997E+04  0.13193125613E+04  0.80035371522E+02 0.  0.
         -6    2    1    2    0  501  0.50150595083E+02 -0.29073788686E+02  0.12905024807E+04  0.13036547873E+04  0.17538182445E+03 0.  0.
        -24    2    5    5    0    0 -0.71521028115E+01 -0.54880017929E+02  0.10660322900E+04  0.10705056566E+04  0.80588761152E+02 0.  0.
          5    1    3    3  502    0 -0.56443039014E+02 -0.44720162160E+02  0.71186580466E+03  0.71551430692E+03  0.47000000000E+01 0. -1.
        -13    1    4    4    0    0  0.31934878887E+02  0.33520006325E+02  0.31598013392E+03  0.31935383565E+03  0.00000000000E+00 0.  1.
         14    1    4    4    0    0 -0.25642434955E+02  0.40273944521E+02  0.99881826575E+03  0.99995872568E+03  0.00000000000E+00 0. -1.
         -5    1    5    5    0  501  0.57302697894E+02  0.25806229243E+02  0.22447019067E+03  0.23314913072E+03  0.47000000000E+01 0.  1.
         13    1    6    6    0    0  0.22481669440E+02  0.10103460961E+02  0.19530959578E+03  0.19685868939E+03  0.00000000000E+00 0. -1.
        -14    1    6    6    0    0 -0.29633772251E+02 -0.64983478890E+02  0.87072269426E+03  0.87364696720E+03  0.00000000000E+00 0.  1.
</event>
<event>
12    1  0.2609167E-002  0.1865100E+03  0.7818608E-02  0.1161647E+00
          2   -1    0    0  502    0  0.00000000000E+00  0.00000000000E+00  0.12565799860E+04  0.12565799860E+04  0.00000000000E+00 0. -1.
         -2   -1    0    0    0  501 -0.00000000000E+00 -0.00000000000E+00 -0.29745025016E+02  0.29745025016E+02  0.00000000000E+00 0.  1.
          6    2    1    2  502    0 -0.73116726035E+02 -0.25500260402E+01  0.44388250047E+03  0.48144947146E+03  0.17149157731E+03 0.  0.
         24    2    3    3    0    0  0.20408122562E+02  0.90481166158E+01  0.13549015872E+03  0.15894467977E+03  0.80046662857E+02 0.  0.
         -6    2    1    2    0  501  0.73116726035E+02  0.25500260402E+01  0.78295246056E+03  0.80487553960E+03  0.17163193319E+03 0.  0.
        -24    2    5    5    0    0  0.10319681000E+03 -0.46593098907E+02  0.46133161354E+03  0.47810051390E+03  0.54154826971E+02 0.  0.
          5    1    3    3  502    0 -0.93524848597E+02 -0.11598142656E+02  0.30839234174E+03  0.32250479169E+03  0.47000000000E+01 0. -1.
        -13    1    4    4    0    0 -0.23403547208E+02  0.31753538104E+01  0.95559777257E+01  0.25477943482E+02  0.00000000000E+00 0.  1.
         14    1    4    4    0    0  0.43811669771E+02  0.58727628054E+01  0.12593418100E+03  0.13346673629E+03  0.00000000000E+00 0. -1.
         -5    1    5    5    0  501 -0.30080083965E+02  0.49143124947E+02  0.32162084702E+03  0.32677502569E+03  0.47000000000E+01 0.  1.
         13    1    6    6    0    0  0.80108125991E+02 -0.14860223248E+02  0.24369538372E+03  0.25695442813E+03  0.00000000000E+00 0. -1.
        -14    1    6    6    0    0  0.23088684008E+02 -0.31732875659E+02  0.21763622982E+03  0.22114608578E+03  0.00000000000E+00 0.  1.
</event>
<event>
12    1  0.2609167E-002  0.2615108E+03  0.7818608E-02  0.1106239E+00
         -2   -1    0    0    0  501 -0.00000000000E+00  0.00000000000E+00  0.29203886229E+03  0.29203886229E+03  0.00000000000E+00 0. -1.
          2   -1    0    0  502    0  0.00000000000E+00 -0.00000000000E+00 -0.23434146039E+03  0.23434146039E+03  0.00000000000E+00 0.  1.
          6    2    1    2  502    0  0.19739231400E+03 -0.74171866107E+00  0.35887939865E+02  0.26400564936E+03  0.17160059118E+03 0.  0.
         24    2    3    3    0    0  0.15381215343E+03  0.29608166054E+02  0.80430957831E+02  0.19453251537E+03  0.82697874929E+02 0.  0.
         -6    2    1    2    0  501 -0.19739231400E+03  0.74171866107E+00  0.21809462039E+02  0.26237467331E+03  0.17146585896E+03 0.  0.
        -24    2    5    5    0    0 -0.17571011461E+03 -0.20625479402E+02 -0.35807704006E+02  0.19704089380E+03  0.79015614806E+02 0.  0.
          5    1    3    3  502    0  0.43580160568E+02 -0.30349884715E+02 -0.44543017965E+02  0.69473133993E+02  0.47000000000E+01 0. -1.
        -11    1    4    4    0    0  0.84752250714E+01  0.27707711045E+02  0.27202746864E+02  0.39743378421E+02  0.00000000000E+00 0.  1.
         12    1    4    4    0    0  0.14533692836E+03  0.19004550096E+01  0.53228210967E+02  0.15478913695E+03  0.00000000000E+00 0. -1.
         -5    1    5    5    0  501 -0.21682199387E+02  0.21367198063E+02  0.57617166045E+02  0.65333779519E+02  0.47000000000E+01 0.  1.
         11    1    6    6    0    0 -0.22619340817E+00  0.18292431313E+01  0.13307865665E+02  0.13434901654E+02  0.00000000000E+00 0. -1.
        -12    1    6    6    0    0 -0.17548392121E+03 -0.22454722533E+02 -0.49115569671E+02  0.18360599214E+03  0.00000000000E+00 0.  1.
</event>
<event>
12    1  0.2609167E-002  0.1762926E+03  0.7818608E-02  0.1171440E+00
         -2   -1    0    0    0  501 -0.00000000000E+00  0.00000000000E+00  0.23865436536E+03  0.23865436536E+03  0.00000000000E+00 0. -1.
          2   -1    0    0  502    0  0.00000000000E+00 -0.00000000000E+00 -0.15188638799E+03  0.15188638799E+03  0.00000000000E+00 0.  1.
          6    2    1    2  502    0  0.12566260983E+02 -0.40826854121E+02 -0.30531626382E+02  0.17807386072E+03  0.17015691796E+03 0.  0.
         24    2    3    3    0    0 -0.19077079023E+02  0.38061307757E+02 -0.98037745607E+01  0.90458925391E+02  0.79209248797E+02 0.  0.
         -6    2    1    2    0  501 -0.12566260983E+02  0.40826854121E+02  0.11729960375E+03  0.21246689263E+03  0.17192510140E+03 0.  0.
        -24    2    5    5    0    0  0.87538476860E+01  0.90276217674E+02  0.66571674459E+02  0.13833728047E+03  0.80492173535E+02 0.  0.
          5    1    3    3  502    0  0.31643340007E+02 -0.78888161878E+02 -0.20727851821E+02  0.87614935327E+02  0.47000000000E+01 0. -1.
        -13    1    4    4    0    0  0.22665116945E+02 -0.77668552153E+01 -0.14976227639E+02  0.28254538757E+02  0.00000000000E+00 0.  1.
         14    1    4    4    0    0 -0.41742195968E+02  0.45828162973E+02  0.51724530784E+01  0.62204386634E+02  0.00000000000E+00 0. -1.
         -5    1    5    5    0  501 -0.21320108669E+02 -0.49449363553E+02  0.50727929291E+02  0.74129612164E+02  0.47000000000E+01 0.  1.
         11    1    6    6    0    0  0.76485233806E+01  0.15371628478E+02  0.60827981851E+02  0.63204669512E+02  0.00000000000E+00 0. -1.
        -12    1    6    6    0    0  0.11053243053E+01  0.74904589196E+02  0.57436926073E+01  0.75132610956E+02  0.00000000000E+00 0.  1.
</event>
<event>
12    1  0.2609167E-002  0.2430166E+03  0.7818608E-02  0.1117799E+00
         -2   -1    0    0    0  501 -0.00000000000E+00  0.00000000000E+00  0.15744401256E+03  0.15744401256E+03  0.00000000000E+00 0.  1.
          2   -1    0    0  502    0  0.00000000000E+00 -0.00000000000E+00 -0.62272118673E+03  0.62272118673E+03  0.00000000000E+00 0. -1.
          6    2    1    2  502    0  0.32729733479E+02 -0.16820901263E+03 -0.47846596300E+03  0.53652227507E+03  0.17193302913E+03 0.  0.
         24    2    3    3    0    0  0.69726172206E+02 -0.17156869507E+03 -0.42470890755E+03  0.47100941407E+03  0.84703339816E+02 0.  0.
         -6    2    1    2    0  501 -0.32729733479E+02  0.16820901263E+03  0.13188788830E+02  0.24364292422E+03  0.17269169924E+03 0.  0.
        -24    2    5    5    0    0  0.43061789190E+02  0.12055604478E+03 -0.97395959975E+01  0.15110665520E+03  0.79688668546E+02 0.  0.
          5    1    3    3  502    0 -0.36996438727E+02  0.33596824381E+01 -0.53757055457E+02  0.65512860997E+02  0.47000000000E+01 0. -1.
        -11    1    4    4    0    0  0.26079248048E+02 -0.28795292040E+02 -0.30234536909E+02  0.49228276880E+02  0.00000000000E+00 0.  1.
         12    1    4    4    0    0  0.43646924158E+02 -0.14277340303E+03 -0.39447437064E+03  0.42178113719E+03  0.00000000000E+00 0. -1.
         -5    1    5    5    0  501 -0.75791522668E+02  0.47652967857E+02  0.22928384827E+02  0.92536269023E+02  0.47000000000E+01 0.  1.
         11    1    6    6    0    0  0.59906044967E+02  0.71184736403E+02  0.13475635224E+02  0.94008476559E+02  0.00000000000E+00 0. -1.
        -12    1    6    6    0    0 -0.16844255777E+02  0.49371308374E+02 -0.23215231222E+02  0.57098178640E+02  0.00000000000E+00 0.  1.
</event>
<event>
12    1  0.2609167E-002  0.1889269E+03  0.7818608E-02  0.1159433E+00
          2   -1    0    0  502    0  0.00000000000E+00  0.00000000000E+00  0.14296732204E+04  0.14296732204E+04  0.00000000000E+00 0.  1.
         -2   -1    0    0    0  501 -0.00000000000E+00 -0.00000000000E+00 -0.25827397865E+02  0.25827397865E+02  0.00000000000E+00 0. -1.
          6    2    1    2  502    0  0.16397328940E+02  0.75807835417E+02  0.56937493718E+03  0.59993156685E+03  0.17237855293E+03 0.  0.
         24    2    3    3    0    0  0.38975527438E+01 -0.27055421775E+02  0.24436985028E+03  0.25877545801E+03  0.80628327410E+02 0.  0.
         -6    2    1    2    0  501 -0.16397328940E+02 -0.75807835417E+02  0.83447088538E+03  0.85556905143E+03  0.17216574260E+03 0.  0.
        -24    2    5    5    0    0  0.90423908042E+01 -0.10678407092E+02  0.27297744606E+03  0.28971925320E+03  0.96045647500E+02 0.  0.
          5    1    3    3  502    0  0.12499776197E+02  0.10286325719E+03  0.32500508690E+03  0.34115610884E+03  0.47000000000E+01 0. -1.
        -13    1    4    4    0    0 -0.12541837992E+02  0.11142696451E+02  0.18789032581E+03  0.18863783268E+03  0.00000000000E+00 0.  1.
         14    1    4    4    0    0  0.16439390736E+02 -0.38198118226E+02  0.56479524470E+02  0.70137625338E+02  0.00000000000E+00 0. -1.
         -5    1    5    5    0  501 -0.25439719744E+02 -0.65129428325E+02  0.56149343931E+03  0.56584979824E+03  0.47000000000E+01 0.  1.
         13    1    6    6    0    0 -0.25324199441E+02 -0.36446898375E+02  0.20148574670E+03  0.20631577158E+03  0.00000000000E+00 0. -1.
        -14    1    6    6    0    0  0.34366590245E+02  0.25768491283E+02  0.71491699357E+02  0.83403481612E+02  0.00000000000E+00 0.  1.
</event>
<event>
12    1  0.2609167E-002  0.1819686E+03  0.7818608E-02  0.1165911E+00
          2   -1    0    0  502    0  0.00000000000E+00  0.00000000000E+00  0.17956501410E+04  0.17956501410E+04  0.00000000000E+00 0. -1.
         -2   -1    0    0    0  501 -0.00000000000E+00 -0.00000000000E+00 -0.33064247522E+02  0.33064247522E+02  0.00000000000E+00 0.  1.
          6    2    1    2  502    0  0.46515839923E+02  0.68047948073E+01  0.28100783467E+03  0.33634415106E+03  0.17875110128E+03 0.  0.
         24    2    3    3    0    0 -0.15552826303E+01 -0.62171646738E+02  0.13883363921E+03  0.17110440352E+03  0.78321165506E+02 0.  0.
         -6    2    1    2    0  501 -0.46515839923E+02 -0.68047948073E+01  0.14815780588E+04  0.14923702375E+04  0.17287380579E+03 0.  0.
        -24    2    5    5    0    0  0.20740713978E+02 -0.86865916854E+01  0.11999946142E+04  0.12028217761E+04  0.79293863897E+02 0.  0.
          5    1    3    3  502    0  0.48071122553E+02  0.68976441545E+02  0.14217419546E+03  0.16523974754E+03  0.47000000000E+01 0. -1.
        -13    1    4    4    0    0 -0.66752162055E+01 -0.67220608420E+02  0.14605102840E+03  0.16091634971E+03  0.00000000000E+00 0.  1.
         14    1    4    4    0    0  0.51199335752E+01  0.50489616828E+01 -0.72173891849E+01  0.10188053815E+02  0.00000000000E+00 0. -1.
         -5    1    5    5    0  501 -0.67256553900E+02  0.18817968781E+01  0.28158344459E+03  0.28954846135E+03  0.47000000000E+01 0.  1.
         11    1    6    6    0    0  0.22629630272E+02 -0.34257777693E+02  0.10378952893E+04  0.10387070458E+04  0.00000000000E+00 0. -1.
        -12    1    6    6    0    0 -0.18889162937E+01  0.25571186008E+02  0.16209932492E+03  0.16411473029E+03  0.00000000000E+00 0.  1.
</event>
<event>
12    1  0.2609167E-002  0.1920915E+03  0.7818608E-02  0.1156588E+00
          2   -1    0    0  502    0  0.00000000000E+00  0.00000000000E+00  0.11832136322E+03  0.11832136322E+03  0.00000000000E+00 0.  1.
         -2   -1    0    0    0  501 -0.00000000000E+00 -0.00000000000E+00 -0.34419125633E+03  0.34419125633E+03  0.00000000000E+00 0. -1.
          6    2    1    2  502    0  0.60412295569E+02 -0.59940801985E+02 -0.41515497443E+02  0.19552395916E+03  0.17106588462E+03 0.  0.
         24    2    3    3    0    0 -0.20506477310E+02  0.12252342897E+02 -0.11788843596E+02  0.82983024740E+02  0.78591157540E+02 0.  0.
         -6    2    1    2    0  501 -0.60412295569E+02  0.59940801985E+02 -0.18435439567E+03  0.26698866038E+03  0.17336048100E+03 0.  0.
        -24    2    5    5    0    0  0.56649451261E+01  0.53353792513E+02 -0.17023380489E+03  0.19893668381E+03  0.87849513708E+02 0.  0.
          5    1    3    3  502    0  0.80918772879E+02 -0.72193144882E+02 -0.29726653847E+02  0.11254093442E+03  0.47000000000E+01 0. -1.
        -11    1    4    4    0    0  0.50248016440E+01  0.25916019140E+02 -0.36410119785E+02  0.44973164247E+02  0.00000000000E+00 0.  1.
         12    1    4    4    0    0 -0.25531278954E+02 -0.13663676243E+02  0.24621276189E+02  0.38009860493E+02  0.00000000000E+00 0. -1.
         -5    1    5    5    0  501 -0.66077240695E+02  0.65870094720E+01 -0.14120590782E+02  0.68051976574E+02  0.47000000000E+01 0.  1.
         13    1    6    6    0    0 -0.22349853950E+02 -0.11025731211E+01 -0.11273398860E+03  0.11493338864E+03  0.00000000000E+00 0. -1.
        -14    1    6    6    0    0  0.28014799076E+02  0.54456365634E+02 -0.57499816284E+02  0.84003295162E+02  0.00000000000E+00 0.  1.
</event>
<event>
12    1  0.2609167E-002  0.1909777E+03  0.7818608E-02  0.1157582E+00
          2   -1    0    0  502    0  0.00000000000E+00  0.00000000000E+00  0.75269143573E+03  0.75269143573E+03  0.00000000000E+00 0. -1.
         -2   -1    0    0    0  501 -0.00000000000E+00 -0.00000000000E+00 -0.49797825473E+02  0.49797825473E+02  0.00000000000E+00 0.  1.
          6    2    1    2  502    0  0.81970758998E+02 -0.42314350150E+02  0.39879789615E+03  0.43850705878E+03  0.15728626470E+03 0.  0.
         24    2    3    3    0    0  0.29810775914E+02 -0.31595041861E+02  0.10472608635E+03  0.13961596368E+03  0.81474751442E+02 0.  0.
         -6    2    1    2    0  501 -0.81970758998E+02  0.42314350150E+02  0.30409571411E+03  0.36398220243E+03  0.17747994474E+03 0.  0.
        -24    2    5    5    0    0 -0.11502230516E+03  0.68017220628E+02  0.25929237348E+03  0.30248040094E+03  0.80033649319E+02 0.  0.
          5    1    3    3  502    0  0.52159983084E+02 -0.10719308289E+02  0.29407180980E+03  0.29889109509E+03  0.47000000000E+01 0. -1.
        -11    1    4    4    0    0  0.17477861031E+02  0.26198061405E+02  0.24119636856E+02  0.39668260986E+02  0.00000000000E+00 0.  1.
         12    1    4    4    0    0  0.12332914883E+02 -0.57793103266E+02  0.80606449494E+02  0.99947702698E+02  0.00000000000E+00 0. -1.
         -5    1    5    5    0  501  0.33051546163E+02 -0.25702870478E+02  0.44803340634E+02  0.61501801490E+02  0.47000000000E+01 0.  1.
         11    1    6    6    0    0  0.16083793632E+01  0.16692704922E+02  0.84638969202E+02  0.86284346143E+02  0.00000000000E+00 0. -1.
        -12    1    6    6    0    0 -0.11663068452E+03  0.51324515706E+02  0.17465340427E+03  0.21619605480E+03  0.00000000000E+00 0.  1.
</event>
<event>
12    1  0.2609167E-002  0.2051885E+03  0.7818608E-02  0.1145434E+00
          3   -1    0    0  502    0  0.00000000000E+00  0.00000000000E+00  0.98292755585E+02  0.98292755585E+02  0.00000000000E+00 0.  1.
         -3   -1    0    0    0  501 -0.00000000000E+00 -0.00000000000E+00 -0.50017398764E+03  0.50017398764E+03  0.00000000000E+00 0. -1.
          6    2    1    2  502    0 -0.11348806890E+03 -0.23547717107E+02 -0.86876480082E+02  0.22209231703E+03  0.16835509416E+03 0.  0.
         24    2    3    3    0    0 -0.12071604126E+03 -0.14268316648E+02 -0.11313686567E+02  0.14547523916E+03  0.79114462817E+02 0.  0.
         -6    2    1    2    0  501  0.11348806890E+03  0.23547717107E+02 -0.31500475197E+03  0.37637442620E+03  0.17028117385E+03 0.  0.
        -24    2    5    5    0    0  0.44750765407E+02  0.23676694968E+02 -0.28537303215E+03  0.30137467723E+03  0.82617865527E+02 0.  0.
          5    1    3    3  502    0  0.72279723640E+01 -0.92794004590E+01 -0.75562793516E+02  0.76617077869E+02  0.47000000000E+01 0. -1.
        -11    1    4    4    0    0 -0.39840362956E+02  0.23402872735E+02 -0.28955961418E+02  0.54528860931E+02  0.00000000000E+00 0.  1.
         12    1    4    4    0    0 -0.80875678304E+02 -0.37671189383E+02  0.17642274852E+02  0.90946378227E+02  0.00000000000E+00 0. -1.
         -5    1    5    5    0  501  0.68737303489E+02 -0.12897786097E+00 -0.29631719820E+02  0.74999748971E+02  0.47000000000E+01 0.  1.
         11    1    6    6    0    0  0.68469925619E+02  0.25166510063E+02 -0.20701947437E+03  0.21949612004E+03  0.00000000000E+00 0. -1.
        -12    1    6    6    0    0 -0.23719160212E+02 -0.14898150954E+01 -0.78353557779E+02  0.81878557186E+02  0.00000000000E+00 0.  1.
</event>
<event>
12    1  0.2609167E-002  0.2347949E+03  0.7818608E-02  0.1123310E+00
         -2   -1    0    0    0  501 -0.00000000000E+00  0.00000000000E+00  0.11571826803E+03  0.11571826803E+03  0.00000000000E+00 0.  1.
          2   -1    0    0  502    0  0.00000000000E+00 -0.00000000000E+00 -0.59332246172E+03  0.59332246172E+03  0.00000000000E+00 0. -1.
          6    2    1    2  502    0 -0.14267924360E+03  0.70266403905E+02 -0.80408450331E+02  0.24699301457E+03  0.17101256179E+03 0.  0.
         24    2    3    3    0    0 -0.16004090659E+03  0.55477106243E+02 -0.27582503972E+02  0.18926242237E+03  0.79803940368E+02 0.  0.
         -6    2    1    2    0  501  0.14267924360E+03 -0.70266403905E+02 -0.39719574336E+03  0.46204771518E+03  0.17443881014E+03 0.  0.
        -24    2    5    5    0    0  0.13215917085E+03 -0.73607381398E+02 -0.41022003203E+03  0.44434019823E+03  0.79206338419E+02 0.  0.
          5    1    3    3  502    0  0.17361662988E+02  0.14789297662E+02 -0.52825946359E+02  0.57730592200E+02  0.47000000000E+01 0. -1.
        -11    1    4    4    0    0 -0.14756420351E+02  0.28935676382E+02  0.14681558298E+02  0.35645104339E+02  0.00000000000E+00 0.  1.
         12    1    4    4    0    0 -0.14528448624E+03  0.26541429861E+02 -0.42264062270E+02  0.15361731803E+03  0.00000000000E+00 0. -1.
         -5    1    5    5    0  501  0.10520072753E+02  0.33409774932E+01  0.13024288667E+02  0.17707516952E+02  0.47000000000E+01 0.  1.
         13    1    6    6    0    0  0.81883083189E+02 -0.45232500574E+02 -0.34398186716E+03  0.35647488461E+03  0.00000000000E+00 0. -1.
        -14    1    6    6    0    0  0.50276087657E+02 -0.28374880825E+02 -0.66238164867E+02  0.87865313616E+02  0.00000000000E+00 0.  1.
</event>
<event>
12    1  0.2609167E-002  0.2294208E+03  0.7818608E-02  0.1127048E+00
         -2   -1    0    0    0  501 -0.00000000000E+00  0.00000000000E+00  0.16313818124E+02  0.16313818124E+02  0.00000000000E+00 0. -1.
          2   -1    0    0  502    0  0.00000000000E+00 -0.00000000000E+00 -0.33532401097E+04  0.33532401097E+04  0.00000000000E+00 0.  1.
          6    2    1    2  502    0 -0.15550039399E+03 -0.32110606345E+02 -0.13119414668E+04  0.13311175478E+04  0.15959965597E+03 0.  0.
         24    2    3    3    0    0 -0.51537929138E+02 -0.58459197264E+02 -0.82840424721E+03  0.83580676146E+03  0.79029803330E+02 0.  0.
         -6    2    1    2    0  501  0.15550039399E+03  0.32110606345E+02 -0.20249848248E+04  0.20384363800E+04  0.17160382062E+03 0.  0.
        -24    2    5    5    0    0  0.33680850929E+02 -0.34791608934E+02 -0.10038189454E+04  0.10078454085E+04  0.75861956342E+02 0.  0.
          5    1    3    3  502    0 -0.10396246486E+03  0.26348590918E+02 -0.48353721955E+03  0.49531078631E+03  0.47000000000E+01 0. -1.
        -13    1    4    4    0    0  0.18165453685E+02 -0.28654404891E+02 -0.20159929765E+03  0.20443418364E+03  0.00000000000E+00 0.  1.
         14    1    4    4    0    0 -0.69703382823E+02 -0.29804792373E+02 -0.62680494956E+03  0.63137257781E+03  0.00000000000E+00 0. -1.
         -5    1    5    5    0  501  0.12181954307E+03  0.66902215279E+02 -0.10211658794E+04  0.10305909716E+04  0.47000000000E+01 0.  1.
         11    1    6    6    0    0  0.16972124694E+02  0.65488780422E+01 -0.54029777981E+02  0.57010154613E+02  0.00000000000E+00 0. -1.
        -12    1    6    6    0    0  0.16708726235E+02 -0.41340486976E+02 -0.94978916742E+03  0.95083525384E+03  0.00000000000E+00 0.  1.
</event>
<event>
12    1  0.2609167E-002  0.1750210E+03  0.7818608E-02  0.1172711E+00
         -2   -1    0    0    0  501 -0.00000000000E+00  0.00000000000E+00  0.73852491032E+02  0.73852491032E+02  0.00000000000E+00 0. -1.
          2   -1    0    0  502    0  0.00000000000E+00 -0.00000000000E+00 -0.41537079753E+03  0.41537079753E+03  0.00000000000E+00 0.  1.
          6    2    1    2  502    0  0.26444480716E+02  0.18636839809E+02 -0.17993092173E+03  0.25096149369E+03  0.17192990538E+03 0.  0.
         24    2    3    3    0    0  0.37182299982E+02  0.59100890340E+02 -0.18235054507E+03  0.20876451839E+03  0.73861114115E+02 0.  0.
         -6    2    1    2    0  501 -0.26444480716E+02 -0.18636839809E+02 -0.16158738477E+03  0.23826179487E+03  0.17208009071E+03 0.  0.
        -24    2    5    5    0    0 -0.51479859968E+02  0.11207894971E+02 -0.29433875195E+02  0.10040636878E+03  0.80245205407E+02 0.  0.
          5    1    3    3  502    0 -0.10737819266E+02 -0.40464050531E+02  0.24196233447E+01  0.42196975307E+02  0.47000000000E+01 0. -1.
        -11    1    4    4    0    0  0.58644618739E+02  0.31928819914E+02 -0.11311301434E+03  0.13135141743E+03  0.00000000000E+00 0.  1.
         12    1    4    4    0    0 -0.21462318757E+02  0.27172070426E+02 -0.69237530736E+02  0.77413100959E+02  0.00000000000E+00 0. -1.
         -5    1    5    5    0  501  0.25035379252E+02 -0.29844734780E+02 -0.13215350958E+03  0.13785542609E+03  0.47000000000E+01 0.  1.
         13    1    6    6    0    0  0.47844659780E+01 -0.25558835413E+02 -0.19415743419E+02  0.32451753032E+02  0.00000000000E+00 0. -1.
        -14    1    6    6    0    0 -0.56264325946E+02  0.36766730383E+02 -0.10018131775E+02  0.67954615749E+02  0.00000000000E+00 0.  1.
</event>
<event>
12    1  0.2609167E-002  0.2418789E+03  0.7818608E-02  0.1118547E+00
          2   -1    0    0  502    0  0.00000000000E+00  0.00000000000E+00  0.13040527219E+04  0.13040527219E+04  0.00000000000E+00 0.  1.
         -2   -1    0    0    0  501 -0.00000000000E+00 -0.00000000000E+00 -0.12514561127E+03  0.12514561127E+03  0.00000000000E+00 0. -1.
          6    2    1    2  502    0 -0.12246615109E+03 -0.11737883079E+03  0.17323768692E+02  0.24275007108E+03  0.17277654924E+03 0.  0.
         24    2    3    3    0    0 -0.12035816587E+03 -0.85107560088E+02  0.70052099423E+02  0.18071584362E+03  0.77598547839E+02 0.  0.
         -6    2    1    2    0  501  0.12246615109E+03  0.11737883079E+03  0.11615833420E+04  0.11864482621E+04  0.17206937627E+03 0.  0.
        -24    2    5    5    0    0  0.12141969866E+03  0.72176712213E+02  0.54973135918E+03  0.57290994593E+03  0.77903901476E+02 0.  0.
          5    1    3    3  502    0 -0.21079852212E+01 -0.32271270701E+02 -0.52728330731E+02  0.62034227455E+02  0.47000000000E+01 0. -1.
        -11    1    4    4    0    0 -0.78901454667E+02 -0.78246773679E+02  0.80740401264E+02  0.13735723329E+03  0.00000000000E+00 0.  1.
         12    1    4    4    0    0 -0.41456711205E+02 -0.68607864086E+01 -0.10688301842E+02  0.43358610337E+02  0.00000000000E+00 0. -1.
         -5    1    5    5    0  501  0.10464524306E+01  0.45202118576E+02  0.61185198280E+03  0.61353831620E+03  0.47000000000E+01 0.  1.
         11    1    6    6    0    0  0.27469765931E+02  0.28064294602E+02  0.56063016300E+02  0.68448918680E+02  0.00000000000E+00 0. -1.
        -12    1    6    6    0    0  0.93949932733E+02  0.44112417611E+02  0.49366834288E+03  0.50446102725E+03  0.00000000000E+00 0.  1.
</event>
<event>
12    1  0.2609167E-002  0.2106377E+03  0.7818608E-02  0.1141062E+00
          3   -1    0    0  502    0  0.00000000000E+00  0.00000000000E+00  0.71484359911E+03  0.71484359911E+03  0.00000000000E+00 0. -1.
         -3   -1    0    0    0  501 -0.00000000000E+00 -0.00000000000E+00 -0.69954549434E+02  0.69954549434E+02  0.00000000000E+00 0.  1.
          6    2    1    2  502    0  0.12067593886E+03  0.12494497306E+02  0.45461139568E+03  0.50116458892E+03  0.17255616309E+03 0.  0.
         24    2    3    3    0    0  0.14158938267E+03 -0.20702445011E+02  0.30413682913E+03  0.34558793807E+03  0.80347169155E+02 0.  0.
         -6    2    1    2    0  501 -0.12067593886E+03 -0.12494497306E+02  0.19027765400E+03  0.28363355963E+03  0.17182437503E+03 0.  0.
        -24    2    5    5    0    0 -0.10012149944E+03 -0.13242891661E+02  0.21537822586E+03  0.25084371697E+03  0.79593349864E+02 0.  0.
          5    1    3    3  502    0 -0.20913443812E+02  0.33196942316E+02  0.15047456655E+03  0.15557665085E+03  0.47000000000E+01 0. -1.
        -11    1    4    4    0    0  0.26297934829E+02 -0.60703757340E+01  0.90921395612E+01  0.28479779487E+02  0.00000000000E+00 0.  1.
         12    1    4    4    0    0  0.11529144784E+03 -0.14632069277E+02  0.29504468957E+03  0.31710815858E+03  0.00000000000E+00 0. -1.
         -5    1    5    5    0  501 -0.20554439416E+02  0.74839435533E+00 -0.25100571856E+02  0.32789842654E+02  0.47000000000E+01 0.  1.
         11    1    6    6    0    0 -0.93423495435E+02 -0.31028325539E+02  0.12829371832E+03  0.16170956881E+03  0.00000000000E+00 0. -1.
        -12    1    6    6    0    0 -0.66980040078E+01  0.17785433878E+02  0.87084507536E+02  0.89134148163E+02  0.00000000000E+00 0.  1.
</event>
<event>
12    1  0.2609167E-002  0.1915768E+03  0.7818608E-02  0.1157047E+00
          3   -1    0    0  502    0  0.00000000000E+00  0.00000000000E+00  0.23051760318E+04  0.23051760318E+04  0.00000000000E+00 0. -1.
         -3   -1    0    0    0  501 -0.00000000000E+00 -0.00000000000E+00 -0.17713829267E+02  0.17713829267E+02  0.00000000000E+00 0.  1.
          6    2    1    2  502    0 -0.72203412829E+02 -0.43201138364E+02  0.77140784829E+03  0.79471156654E+03  0.17151307360E+03 0.  0.
         24    2    3    3    0    0 -0.36036358768E+02 -0.43098588437E+02  0.20023163309E+03  0.22237213480E+03  0.78743583664E+02 0.  0.
         -6    2    1    2    0  501  0.72203412829E+02  0.43201138364E+02  0.15160543542E+04  0.15281782945E+04  0.17270907228E+03 0.  0.
        -24    2    5    5    0    0  0.11863257796E+02 -0.37943799073E+02  0.77338804555E+03  0.77864459198E+03  0.81104024832E+02 0.  0.
          5    1    3    3  502    0 -0.36167054061E+02 -0.10254992756E+00  0.57117621520E+03  0.57233943175E+03  0.47000000000E+01 0. -1.
        -13    1    4    4    0    0 -0.30747941609E+02  0.16840750182E+02  0.55690196177E+02  0.65806114686E+02  0.00000000000E+00 0.  1.
         14    1    4    4    0    0 -0.52884171590E+01 -0.59939338619E+02  0.14454143691E+03  0.15656602011E+03  0.00000000000E+00 0. -1.
         -5    1    5    5    0  501  0.60340155033E+02  0.81144937437E+02  0.74266630866E+03  0.74953370251E+03  0.47000000000E+01 0.  1.
         11    1    6    6    0    0  0.24482594523E+02 -0.56567336996E+02  0.67042964557E+03  0.67325713565E+03  0.00000000000E+00 0. -1.
        -12    1    6    6    0    0 -0.12619336727E+02  0.18623537923E+02  0.10295839999E+03  0.10538745633E+03  0.00000000000E+00 0.  1.
</event>
<event>
12    1  0.2609167E-002  0.1737923E+03  0.7818608E-02  0.1173950E+00
          1   -1    0    0  502    0  0.00000000000E+00  0.00000000000E+00  0.20427317335E+04  0.20427317335E+04  0.00000000000E+00 0. -1.
         -1   -1    0    0    0  501 -0.00000000000E+00 -0.00000000000E+00 -0.15529573002E+02  0.15529573002E+02  0.00000000000E+00 0.  1.
          6    2    1    2  502    0  0.14282078640E+02 -0.23611270378E+02  0.78591431976E+03  0.80480350195E+03  0.17113120370E+03 0.  0.
         24    2    3    3    0    0 -0.40447396445E+02  0.30298666748E+02  0.43345214328E+03  0.44403588614E+03  0.82055509144E+02 0.  0.
         -6    2    1    2    0  501 -0.14282078640E+02  0.23611270378E+02  0.12412878408E+04  0.12534578046E+04  0.17204503592E+03 0.  0.
        -24    2    5    5    0    0 -0.76414345650E+02  0.20866592040E+02  0.89065926363E+03  0.89732518748E+03  0.75126568603E+02 0.  0.
          5    1    3    3  502    0  0.54729475085E+02 -0.53909937127E+02  0.35246217649E+03  0.36076761581E+03  0.47000000000E+01 0. -1.
        -11    1    4    4    0    0  0.12545112863E+02 -0.70449089267E+01  0.15748238235E+02  0.21331141695E+02  0.00000000000E+00 0.  1.
         12    1    4    4    0    0 -0.52992509307E+02  0.37343575675E+02  0.41770390504E+03  0.42270474444E+03  0.00000000000E+00 0. -1.
         -5    1    5    5    0  501  0.62132267010E+02  0.27446783386E+01  0.35062857715E+03  0.35613261712E+03  0.47000000000E+01 0.  1.
         11    1    6    6    0    0 -0.13448812741E+02 -0.26498655459E+02  0.20221352294E+03  0.20438531788E+03  0.00000000000E+00 0. -1.
        -12    1    6    6    0    0 -0.62965532910E+02  0.47365247499E+02  0.68844574069E+03  0.69293986960E+03  0.00000000000E+00 0.  1.
</event>
<event>
12    1  0.2609167E-002  0.2158724E+03  0.7818608E-02  0.1136998E+00
          1   -1    0    0  502    0  0.00000000000E+00  0.00000000000E+00  0.10920326275E+04  0.10920326275E+04  0.00000000000E+00 0.  1.
         -1   -1    0    0    0  501 -0.00000000000E+00 -0.00000000000E+00 -0.45445058776E+02  0.45445058776E+02  0.00000000000E+00 0. -1.
          6    2    1    2  502    0 -0.69502744583E+01  0.13257528633E+03  0.66239761556E+03  0.69650415963E+03  0.16947840694E+03 0.  0.
         24    2    3    3    0    0  0.40111947224E+02  0.85399833100E+02  0.56548802353E+03  0.57880141911E+03  0.79575613149E+02 0.  0.
         -6    2    1    2    0  501  0.69502744583E+01 -0.13257528633E+03  0.38418995318E+03  0.44097352667E+03  0.17097139595E+03 0.  0.
        -24    2    5    5    0    0 -0.60729644896E+02 -0.62012988623E+02  0.19584747958E+03  0.22871286921E+03  0.80122660697E+02 0.  0.
          5    1    3    3  502    0 -0.47062221682E+02  0.47175453231E+02  0.96909592036E+02  0.11770274052E+03  0.47000000000E+01 0. -1.
        -11    1    4    4    0    0  0.34589533979E+02  0.95563363034E+02  0.55084003476E+03  0.56013706903E+03  0.00000000000E+00 0.  1.
         12    1    4    4    0    0  0.55224132448E+01 -0.10163529934E+02  0.14647988773E+02  0.18664350078E+02  0.00000000000E+00 0. -1.
         -5    1    5    5    0  501  0.67679919354E+02 -0.70562297708E+02  0.18834247360E+03  0.21226065745E+03  0.47000000000E+01 0.  1.
         11    1    6    6    0    0 -0.51796009032E+02 -0.81106970880E+02  0.14949309873E+03  0.17779019614E+03  0.00000000000E+00 0. -1.
        -12    1    6    6    0    0 -0.89336358643E+01  0.19093982257E+02  0.46354380855E+02  0.50922673071E+02  0.00000000000E+00 0.  1.
</event>
<event>
12    1  0.2609167E-002  0.2226864E+03  0.7818608E-02  0.1131896E+00
          1   -1    0    0  502    0  0.00000000000E+00  0.00000000000E+00  0.53490124111E+03  0.53490124111E+03  0.00000000000E+00 0.  1.
         -1   -1    0    0    0  501 -0.00000000000E+00 -0.00000000000E+00 -0.11558526453E+03  0.11558526453E+03  0.00000000000E+00 0. -1.
          6    2    1    2  502    0 -0.83059421836E+02  0.12163541163E+03  0.62314088806E+02  0.22778028473E+03  0.16219362357E+03 0.  0.
         24    2    3    3    0    0 -0.71144380083E+02  0.20416593138E+02  0.23309535981E+00  0.10835098688E+03  0.79129779042E+02 0.  0.
         -6    2    1    2    0  501  0.83059421836E+02 -0.12163541163E+03  0.35700188778E+03  0.42270622092E+03  0.17186087514E+03 0.  0.
        -24    2    5    5    0    0 -0.20839682908E+02 -0.33505382002E+02  0.16029142144E+03  0.18337585582E+03  0.79852750130E+02 0.  0.
          5    1    3    3  502    0 -0.11915041753E+02  0.10121881849E+03  0.62080993446E+02  0.11942929785E+03  0.47000000000E+01 0. -1.
        -13    1    4    4    0    0 -0.25071880784E+02 -0.18432820411E+02 -0.27943709955E+02  0.41823665554E+02  0.00000000000E+00 0.  1.
         14    1    4    4    0    0 -0.46072499299E+02  0.38849413550E+02  0.28176805314E+02  0.66527321324E+02  0.00000000000E+00 0. -1.
         -5    1    5    5    0  501  0.10389910474E+03 -0.88130029629E+02  0.19671046634E+03  0.23933036510E+03  0.47000000000E+01 0.  1.
         11    1    6    6    0    0  0.18554198059E+02 -0.37147551251E+01  0.38326636631E+01  0.19306656417E+02  0.00000000000E+00 0. -1.
        -12    1    6    6    0    0 -0.39393880967E+02 -0.29790626877E+02  0.15645875778E+03  0.16406919940E+03  0.00000000000E+00 0.  1.
</event>
<event>
12    1  0.2609167E-002  0.1794527E+03  0.7818608E-02  0.1168334E+00
          2   -1    0    0  502    0  0.00000000000E+00  0.00000000000E+00  0.47990638926E+03  0.47990638926E+03  0.00000000000E+00 0. -1.
         -2   -1    0    0    0  501 -0.00000000000E+00 -0.00000000000E+00 -0.82019523081E+02  0.82019523081E+02  0.00000000000E+00 0.  1.
          6    2    1    2  502    0 -0.56164643714E+02  0.33743556520E+02  0.82252500765E+02  0.20046160881E+03  0.17066425494E+03 0.  0.
         24    2    3    3    0    0  0.30240741138E+02  0.38188644135E+02  0.23624685939E+02  0.95843445919E+02  0.79088339055E+02 0.  0.
         -6    2    1    2    0  501  0.56164643714E+02 -0.33743556520E+02  0.31563436542E+03  0.36146430353E+03  0.16351848607E+03 0.  0.
        -24    2    5    5    0    0  0.33205270085E+02  0.28144669467E+02  0.25745117272E+03  0.27334699953E+03  0.80887350268E+02 0.  0.
          5    1    3    3  502    0 -0.86405384852E+02 -0.44450876147E+01  0.58627814826E+02  0.10461816289E+03  0.47000000000E+01 0. -1.
        -11    1    4    4    0    0  0.75172644546E+01  0.46730247564E+02 -0.15495697321E+02  0.49803031411E+02  0.00000000000E+00 0.  1.
         12    1    4    4    0    0  0.22723476683E+02 -0.85416034290E+01  0.39120383259E+02  0.46040414508E+02  0.00000000000E+00 0. -1.
         -5    1    5    5    0  501  0.22959373629E+02 -0.61888225987E+02  0.58183192695E+02  0.88117304007E+02  0.47000000000E+01 0.  1.
         13    1    6    6    0    0  0.51275882672E+02  0.12616735087E+02  0.91095549258E+02  0.10529386137E+03  0.00000000000E+00 0. -1.
        -14    1    6    6    0    0 -0.18070612587E+02  0.15527934380E+02  0.16635562347E+03  0.16805313816E+03  0.00000000000E+00 0.  1.
</event>
<event>
12    1  0.2609167E-002  0.1723882E+03  0.7818608E-02  0.1175380E+00
         -3   -1    0    0    0  501 -0.00000000000E+00  0.00000000000E+00  0.22929973454E+03  0.22929973454E+03  0.00000000000E+00 0.  1.
          3   -1    0    0  502    0  0.00000000000E+00 -0.00000000000E+00 -0.17260283493E+03  0.17260283493E+03  0.00000000000E+00 0. -1.
          6    2    1    2  502    0  0.23413036995E+02 -0.88190098549E+01  0.12872533395E+03  0.21565620837E+03  0.17120585086E+03 0.  0.
         24    2    3    3    0    0 -0.94159123453E+00 -0.55519964753E+02  0.13051865814E+03  0.16274653897E+03  0.79799515923E+02 0.  0.
         -6    2    1    2    0  501 -0.23413036995E+02  0.88190098549E+01 -0.72028434341E+02  0.18624636110E+03  0.16992253068E+03 0.  0.
        -24    2    5    5    0    0 -0.10544136542E+02 -0.55308468992E+02 -0.18888199313E+02  0.10184306305E+03  0.82734756063E+02 0.  0.
          5    1    3    3  502    0  0.24354628230E+02  0.46700954898E+02 -0.17933241910E+01  0.52909669402E+02  0.47000000000E+01 0. -1.
        -11    1    4    4    0    0 -0.14092543711E+02 -0.45153736860E+02  0.20656290431E+02  0.51615327908E+02  0.00000000000E+00 0.  1.
         12    1    4    4    0    0  0.13150952476E+02 -0.10366227893E+02  0.10986236771E+03  0.11113121106E+03  0.00000000000E+00 0. -1.
         -5    1    5    5    0  501 -0.12868900453E+02  0.64127478847E+02 -0.53140235029E+02  0.84403298046E+02  0.47000000000E+01 0.  1.
         11    1    6    6    0    0  0.34303647590E+02 -0.32812803958E+02 -0.20350061844E+02  0.51648285147E+02  0.00000000000E+00 0. -1.
        -12    1    6    6    0    0 -0.44847784132E+02 -0.22495665034E+02  0.14618625314E+01  0.50194777905E+02  0.00000000000E+00 0.  1.
</event>
<event>
12    1  0.2609167E-002  0.1740854E+03  0.7818608E-02  0.1173653E+00
         -1   -1    0    0    0  501 -0.00000000000E+00  0.00000000000E+00  0.21933331327E+03  0.21933331327E+03  0.00000000000E+00 0. -1.
          1   -1    0    0  502    0  0.00000000000E+00 -0.00000000000E+00 -0.14286543678E+03  0.14286543678E+03  0.00000000000E+00 0.  1.
          6    2    1    2  502    0  0.63411699651E+01  0.16955697557E+02  0.70916526614E+02  0.18738780762E+03  0.17250313210E+03 0.  0.
         24    2    3    3    0    0  0.33106320395E+02 -0.49453042850E+02  0.21923951164E+02  0.10050365182E+03  0.77965970128E+02 0.  0.
         -6    2    1    2    0  501 -0.63411699651E+01 -0.16955697557E+02  0.55513498745E+01  0.17481094242E+03  0.17378245593E+03 0.  0.
        -24    2    5    5    0    0 -0.19216861670E+01 -0.30389970164E+02  0.68224859964E+02  0.11038990250E+03  0.81265342507E+02 0.  0.
          5    1    3    3  502    0 -0.26765150430E+02  0.66408740408E+02  0.48992575450E+02  0.86884155801E+02  0.47000000000E+01 0. -1.
        -11    1    4    4    0    0 -0.42365512823E+01 -0.52063469726E+02  0.32604208108E+02  0.61575868918E+02  0.00000000000E+00 0.  1.
         12    1    4    4    0    0  0.37342871677E+02  0.26104268755E+01 -0.10680256944E+02  0.38927782905E+02  0.00000000000E+00 0. -1.
         -5    1    5    5    0  501 -0.44194837981E+01  0.13434272607E+02 -0.62673510089E+02  0.64421039921E+02  0.47000000000E+01 0.  1.
         11    1    6    6    0    0 -0.24350951761E+02 -0.50670907865E+02  0.39727055543E+02  0.68838569840E+02  0.00000000000E+00 0. -1.
        -12    1    6    6    0    0  0.22429265594E+02  0.20280937700E+02  0.28497804421E+02  0.41551332661E+02  0.00000000000E+00 0.  1.
</event>
<event>
12    1  0.2609167E-002  0.3455596E+03  0.7818608E-02  0.1064452E+00
         -1   -1    0    0    0  501 -0.00000000000E+00  0.00000000000E+00  0.72459551551E+02  0.72459551551E+02  0.00000000000E+00 0.  1.
          1   -1    0    0  502    0  0.00000000000E+00 -0.00000000000E+00 -0.27027376364E+04  0.27027376364E+04  0.00000000000E+00 0. -1.
          6    2    1    2  502    0 -0.29600992487E+03 -0.51581084618E+02 -0.44721477796E+03  0.56488038329E+03  0.16972420539E+03 0.  0.
         24    2    3    3    0    0 -0.28467229267E+03 -0.21045029005E+02 -0.44100567636E+03  0.53138955561E+03  0.80047771797E+02 0.  0.
         -6    2    1    2    0  501  0.29600992487E+03  0.51581084618E+02 -0.21830633068E+04  0.22103168046E+04  0.17161728106E+03 0.  0.
        -24    2    5    5    0    0  0.30172399990E+03  0.27814246034E+02 -0.18481830228E+04  0.18745126832E+04  0.78780134389E+02 0.  0.
          5    1    3    3  502    0 -0.11337632192E+02 -0.30536055614E+02 -0.62091016013E+01  0.33490827682E+02  0.47000000000E+01 0. -1.
        -11    1    4    4    0    0 -0.21445956448E+03  0.99443218712E+01 -0.36447349453E+03  0.42300440015E+03  0.00000000000E+00 0.  1.
         12    1    4    4    0    0 -0.70212728196E+02 -0.30989350876E+02 -0.76532181834E+02  0.10838515546E+03  0.00000000000E+00 0. -1.
         -5    1    5    5    0  501 -0.57140750352E+01  0.23766838584E+02 -0.33488028407E+03  0.33580412137E+03  0.47000000000E+01 0.  1.
         13    1    6    6    0    0  0.14381003355E+03  0.48428738514E+02 -0.79430146137E+03  0.80866648255E+03  0.00000000000E+00 0. -1.
        -14    1    6    6    0    0  0.15791396635E+03 -0.20614492480E+02 -0.10538815614E+04  0.10658462007E+04  0.00000000000E+00 0.  1.
</event>
<event>
12    1  0.2609167E-002  0.1943996E+03  0.7818608E-02  0.1154552E+00
          2   -1    0    0  502    0  0.00000000000E+00  0.00000000000E+00  0.16010600328E+04  0.16010600328E+04  0.00000000000E+00 0. -1.
         -2   -1    0    0    0  501 -0.00000000000E+00 -0.00000000000E+00 -0.23781068143E+02  0.23781068143E+02  0.00000000000E+00 0.  1.
          6    2    1    2  502    0  0.70522077208E+02  0.59017595891E+02  0.71756038857E+03  0.74336511447E+03  0.17100392441E+03 0.  0.
         24    2    3    3    0    0  0.31847989102E+02  0.96192774130E+02  0.60264362668E+03  0.61645715124E+03  0.81072401782E+02 0.  0.
         -6    2    1    2    0  501 -0.70522077208E+02 -0.59017595891E+02  0.85971857612E+03  0.88147598651E+03  0.17154429359E+03 0.  0.
        -24    2    5    5    0    0 -0.11261948579E+03 -0.44931786805E+02  0.55777117947E+03  0.57624669209E+03  0.79054079283E+02 0.  0.
          5    1    3    3  502    0  0.38674088105E+02 -0.37175178239E+02  0.11491676189E+03  0.12690796323E+03  0.47000000000E+01 0. -1.
        -11    1    4    4    0    0  0.25454127910E+02  0.16620153540E+02  0.53435072944E+02  0.61477224660E+02  0.00000000000E+00 0.  1.
         12    1    4    4    0    0  0.63938611918E+01  0.79572620589E+02  0.54920855373E+03  0.55497992658E+03  0.00000000000E+00 0. -1.
         -5    1    5    5    0  501  0.42097408584E+02 -0.14085809086E+02  0.30194739665E+03  0.30522929442E+03  0.47000000000E+01 0.  1.
         13    1    6    6    0    0 -0.50802859375E+02  0.17826427618E+02  0.26913506828E+03  0.27446747899E+03  0.00000000000E+00 0. -1.
        -14    1    6    6    0    0 -0.61816626416E+02 -0.62758214423E+02  0.28863611119E+03  0.30177921311E+03  0.00000000000E+00 0.  1.
</event>
<event>
12    1  0.2609167E-002  0.2526690E+03  0.7818608E-02  0.1111630E+00
         -2   -1    0    0    0  501 -0.00000000000E+00  0.00000000000E+00  0.68095239425E+02  0.68095239425E+02  0.00000000000E+00 0. -1.
          2   -1    0    0  502    0  0.00000000000E+00 -0.00000000000E+00 -0.94651920583E+03  0.94651920583E+03  0.00000000000E+00 0.  1.
          6    2    1    2  502    0 -0.16675232360E+03 -0.78997850137E+02 -0.38981477659E+03  0.46454910790E+03  0.17263636886E+03 0.  0.
         24    2    3    3    0    0 -0.16573260461E+03 -0.11292244057E+03 -0.28459836306E+03  0.35389423300E+03  0.63451761859E+02 0.  0.
         -6    2    1    2    0  501  0.16675232360E+03  0.78997850137E+02 -0.48860918982E+03  0.55006533736E+03  0.17258602850E+03 0.  0.
        -24    2    5    5    0    0  0.11622251818E+03  0.57456771424E+02 -0.46582662443E+03  0.49041288901E+03  0.81862099677E+02 0.  0.
          5    1    3    3  502    0 -0.10197189914E+01  0.33924590428E+02 -0.10521641353E+03  0.11065487490E+03  0.47000000000E+01 0. -1.
        -11    1    4    4    0    0 -0.47245411192E+02 -0.59608936352E+02 -0.14123441053E+03  0.16041356828E+03  0.00000000000E+00 0.  1.
         12    1    4    4    0    0 -0.11848719342E+03 -0.53313504214E+02 -0.14336395253E+03  0.19348066472E+03  0.00000000000E+00 0. -1.
         -5    1    5    5    0  501  0.50529805421E+02  0.21541078713E+02 -0.22782565387E+02  0.59652448345E+02  0.47000000000E+01 0.  1.
         13    1    6    6    0    0  0.10514101341E+02 -0.42016461293E+01 -0.30459249844E+01  0.11725093441E+02  0.00000000000E+00 0. -1.
        -14    1    6    6    0    0  0.10570841684E+03  0.61658417554E+02 -0.46278069945E+03  0.47868779557E+03  0.00000000000E+00 0.  1.
</event>
<event>
12    1  0.2609167E-002  0.2503554E+03  0.7818608E-02  0.1113080E+00
         -2   -1    0    0    0  501 -0.00000000000E+00  0.00000000000E+00  0.87516639232E+02  0.87516639232E+02  0.00000000000E+00 0. -1.
          2   -1    0    0  502    0  0.00000000000E+00 -0.00000000000E+00 -0.90954304166E+03  0.90954304166E+03  0.00000000000E+00 0.  1.
          6    2    1    2  502    0  0.10317733920E+03  0.16106793983E+03 -0.63171085372E+03  0.67707219361E+03  0.15092948051E+03 0.  0.
         24    2    3    3    0    0  0.10222581907E+02  0.84025127070E+02 -0.39400178205E+03  0.41041909564E+03  0.77728415971E+02 0.  0.
         -6    2    1    2    0  501 -0.10317733920E+03 -0.16106793983E+03 -0.19031554871E+03  0.31998748729E+03  0.17199866096E+03 0.  0.
        -24    2    5    5    0    0 -0.74759651919E+02 -0.18646559693E+02 -0.54726848838E+02  0.12124695291E+03  0.75954564461E+02 0.  0.
          5    1    3    3  502    0  0.92954757296E+02  0.77042812761E+02 -0.23770907167E+03  0.26665309797E+03  0.47000000000E+01 0. -1.
        -13    1    4    4    0    0  0.38383787307E+02  0.51095180834E+02 -0.30249967371E+03  0.30917646293E+03  0.00000000000E+00 0.  1.
         14    1    4    4    0    0 -0.28161205399E+02  0.32929946237E+02 -0.91502108331E+02  0.10124263271E+03  0.00000000000E+00 0. -1.
         -5    1    5    5    0  501 -0.28417687284E+02 -0.14242138014E+03 -0.13558869988E+03  0.19874053438E+03  0.47000000000E+01 0.  1.
         11    1    6    6    0    0 -0.55671589904E+02 -0.42213767040E+02 -0.15329337315E+02  0.71528432337E+02  0.00000000000E+00 0. -1.
        -12    1    6    6    0    0 -0.19088062015E+02  0.23567207347E+02 -0.39397511523E+02  0.49718520571E+02  0.00000000000E+00 0.  1.
</event>
<event>
12    1  0.2609167E-002  0.1772256E+03  0.7818608E-02  0.1170515E+00
         -1   -1    0    0    0  501 -0.00000000000E+00  0.00000000000E+00  0.99328244033E+02  0.99328244033E+02  0.00000000000E+00 0.  1.
          1   -1    0    0  502    0  0.00000000000E+00 -0.00000000000E+00 -0.11706421340E+04  0.11706421340E+04  0.00000000000E+00 0. -1.
          6    2    1    2  502    0  0.40692473652E+02  0.43886550209E+01 -0.10781168658E+04  0.10925809233E+04  0.17240057966E+03 0.  0.
         24    2    3    3    0    0  0.90037636663E+02 -0.13544590369E+01 -0.60000843263E+03  0.61187551209E+03  0.79201720259E+02 0.  0.
         -6    2    1    2    0  501 -0.40692473652E+02 -0.43886550209E+01  0.68029758472E+01  0.17738945475E+03  0.17246912904E+03 0.  0.
        -24    2    5    5    0    0 -0.58791803446E+02  0.52849408526E+02  0.20830124297E+02  0.11556201301E+03  0.81677099848E+02 0.  0.
          5    1    3    3  502    0 -0.49345163011E+02  0.57431140578E+01 -0.47810843315E+03  0.48070541116E+03  0.47000000000E+01 0. -1.
        -11    1    4    4    0    0  0.45724729903E+02  0.14947912996E+02 -0.11613918857E+03  0.12570800352E+03  0.00000000000E+00 0.  1.
         12    1    4    4    0    0  0.44312906759E+02 -0.16302372033E+02 -0.48386924406E+03  0.48616750857E+03  0.00000000000E+00 0. -1.
         -5    1    5    5    0  501  0.18099329794E+02 -0.57238063547E+02 -0.14027148450E+02  0.61827441733E+02  0.47000000000E+01 0.  1.
         13    1    6    6    0    0 -0.19212758524E+02  0.28653441468E+02 -0.30733238091E+02  0.46202615961E+02  0.00000000000E+00 0. -1.
        -14    1    6    6    0    0 -0.39579044923E+02  0.24195967058E+02  0.51563362388E+02  0.69359397053E+02  0.00000000000E+00 0.  1.
</event>
<event>
12    1  0.2609167E-002  0.1854005E+03  0.7818608E-02  0.1162676E+00
          2   -1    0    0  502    0  0.00000000000E+00  0.00000000000E+00  0.30495833249E+04  0.30495833249E+04  0.00000000000E+00 0. -1.
         -2   -1    0    0    0  501 -0.00000000000E+00 -0.00000000000E+00 -0.11634723561E+02  0.11634723561E+02  0.00000000000E+00 0.  1.
          6    2    1    2  502    0 -0.65911002663E+02 -0.90183830219E+01  0.12522975025E+04  0.12660163955E+04  0.17355946427E+03 0.  0.
         24    2    3    3    0    0 -0.72293534193E+02 -0.11867701460E+02  0.43486625441E+03  0.44854175337E+03  0.81938073372E+02 0.  0.
         -6    2    1    2    0  501  0.65911002663E+02  0.90183830219E+01  0.17856510989E+04  0.17952016529E+04  0.17255009755E+03 0.  0.
        -24    2    5    5    0    0  0.22308434326E+02 -0.60824059190E+02  0.10259450125E+04  0.10310324449E+04  0.79167553065E+02 0.  0.
          5    1    3    3  502    0  0.63825315307E+01  0.28493184377E+01  0.81743124804E+03  0.81747464217E+03  0.47000000000E+01 0. -1.
        -13    1    4    4    0    0  0.57629795495E+01 -0.18513982555E+02  0.27123477134E+02  0.33341603068E+02  0.00000000000E+00 0.  1.
         14    1    4    4    0    0 -0.78056513743E+02  0.66462810951E+01  0.40774277728E+03  0.41520015030E+03  0.00000000000E+00 0. -1.
         -5    1    5    5    0  501  0.43602568336E+02  0.69842442212E+02  0.75970608645E+03  0.76416920802E+03  0.47000000000E+01 0.  1.
         13    1    6    6    0    0 -0.66548351163E+01 -0.66604793012E+02  0.53022264338E+03  0.53443104030E+03  0.00000000000E+00 0. -1.
        -14    1    6    6    0    0  0.28963269442E+02  0.57807338222E+01  0.49572236909E+03  0.49660140463E+03  0.00000000000E+00 0.  1.
</event>
<event>
12    1  0.2609167E-002  0.1897709E+03  0.7818608E-02  0.1158668E+00
         -1   -1    0    0    0  501 -0.00000000000E+00  0.00000000000E+00  0.73217875545E+02  0.73217875545E+02  0.00000000000E+00 0.  1.
          1   -1    0    0  502    0  0.00000000000E+00 -0.00000000000E+00 -0.60194225333E+03  0.60194225333E+03  0.00000000000E+00 0. -1.
          6    2    1    2  502    0 -0.65420349017E+02  0.33954182856E+02 -0.12326858061E+03  0.22866204858E+03  0.17792830269E+03 0.  0.
         24    2    3    3    0    0 -0.55039343327E+02  0.11236948892E+00  0.31797408304E+01  0.97268359212E+02  0.80135391752E+02 0.  0.
         -6    2    1    2    0  501  0.65420349017E+02 -0.33954182856E+02 -0.40545579717E+03  0.44649808029E+03  0.17185291282E+03 0.  0.
        -24    2    5    5    0    0 -0.26914611009E+01  0.18453752081E+02 -0.23289810727E+03  0.25366640067E+03  0.98779195832E+02 0.  0.
          5    1    3    3  502    0 -0.10381005690E+02  0.33841813367E+02 -0.12644832144E+03  0.13139368937E+03  0.47000000000E+01 0. -1.
        -11    1    4    4    0    0  0.13344558664E+02 -0.55753891435E+00  0.22534323110E+02  0.26195110490E+02  0.00000000000E+00 0.  1.
         12    1    4    4    0    0 -0.68383901991E+02  0.66990840327E+00 -0.19354582279E+02  0.71073248722E+02  0.00000000000E+00 0. -1.
         -5    1    5    5    0  501  0.68111810118E+02 -0.52407934937E+02 -0.17255768990E+03  0.19283167962E+03  0.47000000000E+01 0.  1.
         11    1    6    6    0    0 -0.46629517501E+02 -0.29790003841E+00 -0.71625553912E+02  0.85467073309E+02  0.00000000000E+00 0. -1.
        -12    1    6    6    0    0  0.43938056400E+02  0.18751652119E+02 -0.16127255336E+03  0.16819932736E+03  0.00000000000E+00 0.  1.
</event>
<event>
12    1  0.2609167E-002  0.1860564E+03  0.7818608E-02  0.1162067E+00
          1   -1    0    0  502    0  0.00000000000E+00  0.00000000000E+00  0.12488848470E+03  0.12488848470E+03  0.00000000000E+00 0. -1.
         -1   -1    0    0    0  501 -0.00000000000E+00 -0.00000000000E+00 -0.28118182135E+03  0.28118182135E+03  0.00000000000E+00 0.  1.
          6    2    1    2  502    0  0.17681600292E+02 -0.67697977993E+02 -0.10245692616E+03  0.21261122511E+03  0.17265704767E+03 0.  0.
         24    2    3    3    0    0  0.53045302929E+02 -0.68594519577E+02 -0.12462840076E+03  0.17059861347E+03  0.77798691266E+02 0.  0.
         -6    2    1    2    0  501 -0.17681600292E+02  0.67697977993E+02 -0.53836410493E+02  0.19345908095E+03  0.17214064510E+03 0.  0.
        -24    2    5    5    0    0  0.69876604993E+01 -0.21978929209E+02  0.65694274404E+01  0.82456939667E+02  0.78892894445E+02 0.  0.
          5    1    3    3  502    0 -0.35363702637E+02  0.89654158476E+00  0.22171474599E+02  0.42012611641E+02  0.47000000000E+01 0. -1.
        -11    1    4    4    0    0  0.45893053627E+02 -0.70003394624E+02 -0.54038608689E+02  0.99633422400E+02  0.00000000000E+00 0.  1.
         12    1    4    4    0    0  0.71522493025E+01  0.14088750468E+01 -0.70589792068E+02  0.70965191067E+02  0.00000000000E+00 0. -1.
         -5    1    5    5    0  501 -0.24669260792E+02  0.89676907202E+02 -0.60405837933E+02  0.11100214128E+03  0.47000000000E+01 0.  1.
         11    1    6    6    0    0  0.21398575976E+02 -0.53497589381E+01  0.38089934594E+02  0.44015475595E+02  0.00000000000E+00 0. -1.
        -12    1    6    6    0    0 -0.14410915477E+02 -0.16629170271E+02 -0.31520507153E+02  0.38441464072E+02  0.00000000000E+00 0.  1.
</event>
<event>
12    1  0.2609167E-002  0.2574836E+03  0.7818608E-02  0.1108665E+00
         -2   -1    0    0    0  501 -0.00000000000E+00  0.00000000000E+00  0.98505281064E+02  0.98505281064E+02  0.00000000000E+00 0. -1.
          2   -1    0    0  502    0  0.00000000000E+00 -0.00000000000E+00 -0.73399716493E+03  0.73399716493E+03  0.00000000000E+00 0.  1.
          6    2    1    2  502    0 -0.13187581822E+03  0.13955292220E+03 -0.43861316540E+03  0.50901644297E+03  0.17277146994E+03 0.  0.
         24    2    3    3    0    0 -0.14058584802E+03  0.99973633577E+02 -0.24147833906E+03  0.30770421169E+03  0.81307967533E+02 0.  0.
         -6    2    1    2    0  501  0.13187581822E+03 -0.13955292220E+03 -0.19687871847E+03  0.32348600303E+03  0.17033999778E+03 0.  0.
        -24    2    5    5    0    0  0.59740921396E+02 -0.47125911726E+02 -0.31778158656E+02  0.12093605744E+03  0.88463830898E+02 0.  0.
          5    1    3    3  502    0  0.87100297913E+01  0.39579288619E+02 -0.19713482634E+03  0.20131223128E+03  0.47000000000E+01 0. -1.
        -13    1    4    4    0    0 -0.33918723434E+02 -0.10445015931E+02 -0.62740891499E+02  0.72083268678E+02  0.00000000000E+00 0.  1.
         14    1    4    4    0    0 -0.10666712458E+03  0.11041864951E+03 -0.17873744756E+03  0.23562094301E+03  0.00000000000E+00 0. -1.
         -5    1    5    5    0  501  0.72134896829E+02 -0.92427010471E+02 -0.16510055982E+03  0.20254994559E+03  0.47000000000E+01 0.  1.
         13    1    6    6    0    0  0.77909395740E+02 -0.53061455250E+02 -0.36772170769E+02  0.10118094940E+03  0.00000000000E+00 0. -1.
        -14    1    6    6    0    0 -0.18168474345E+02  0.59355435237E+01  0.49940121128E+01  0.19755108046E+02  0.00000000000E+00 0.  1.
</event>
<event>
12    1  0.2609167E-002  0.2192516E+03  0.7818608E-02  0.1134442E+00
         -1   -1    0    0    0  501 -0.00000000000E+00  0.00000000000E+00  0.12484941327E+03  0.12484941327E+03  0.00000000000E+00 0.  1.
          1   -1    0    0  502    0  0.00000000000E+00 -0.00000000000E+00 -0.50465572089E+03  0.50465572089E+03  0.00000000000E+00 0. -1.
          6    2    1    2  502    0  0.72382843117E+02  0.11391988289E+03 -0.36219540028E+02  0.22156010960E+03  0.17193025152E+03 0.  0.
         24    2    3    3    0    0  0.54613224007E+02  0.14357690085E+03 -0.11584617546E+01  0.17209631185E+03  0.77581362613E+02 0.  0.
         -6    2    1    2    0  501 -0.72382843117E+02 -0.11391988289E+03 -0.34358676760E+03  0.40794502456E+03  0.17363830368E+03 0.  0.
        -24    2    5    5    0    0 -0.39675755308E+02 -0.11538591124E+03 -0.34532354700E+03  0.37482389483E+03  0.79727824207E+02 0.  0.
          5    1    3    3  502    0  0.17769619110E+02 -0.29657017960E+02 -0.35061078273E+02  0.49463797744E+02  0.47000000000E+01 0. -1.
        -13    1    4    4    0    0  0.51453265484E+02  0.14366050039E+03  0.17113064584E+02  0.15355336167E+03  0.00000000000E+00 0.  1.
         14    1    4    4    0    0  0.31599585231E+01 -0.83599535219E-01 -0.18271526339E+02  0.18542950183E+02  0.00000000000E+00 0. -1.
         -5    1    5    5    0  501 -0.32707087810E+02  0.14660283517E+01  0.17367794009E+01  0.33121129733E+02  0.47000000000E+01 0.  1.
         13    1    6    6    0    0 -0.73971911526E+01 -0.91605296984E+02 -0.30253887545E+03  0.31618984809E+03  0.00000000000E+00 0. -1.
        -14    1    6    6    0    0 -0.32278564155E+02 -0.23780614261E+02 -0.42784671544E+02  0.58634046745E+02  0.00000000000E+00 0.  1.
</event>
<event>
12    1  0.2609167E-002  0.1729702E+03  0.7818608E-02  0.1174785E+00
         -4   -1    0    0    0  501 -0.00000000000E+00  0.00000000000E+00  0.19115284328E+03  0.19115284328E+03  0.00000000000E+00 0. -1.
          4   -1    0    0  502    0  0.00000000000E+00 -0.00000000000E+00 -0.16672049420E+03  0.16672049420E+03  0.00000000000E+00 0.  1.
          6    2    1    2  502    0 -0.19731948595E+02  0.15772140692E+01  0.56351672059E+02  0.18045713718E+03  0.17028631776E+03 0.  0.
         24    2    3    3    0    0 -0.38908018637E+02  0.30483233351E+02 -0.17827444664E+02  0.98433293264E+02  0.83236013899E+02 0.  0.
         -6    2    1    2    0  501  0.19731948595E+02 -0.15772140692E+01 -0.31919322975E+02  0.17741620030E+03  0.17339500440E+03 0.  0.
        -24    2    5    5    0    0 -0.49707837178E+02 -0.24000798775E+02 -0.37898857957E+02  0.10405036467E+03  0.79644507243E+02 0.  0.
          5    1    3    3  502    0  0.19176070042E+02 -0.28906019282E+02  0.74179116723E+02  0.82023843916E+02  0.47000000000E+01 0. -1.
        -11    1    4    4    0    0 -0.11052633454E+02  0.56562468461E+01 -0.48541797448E+02  0.50104490160E+02  0.00000000000E+00 0.  1.
         12    1    4    4    0    0 -0.27855385183E+02  0.24826986505E+02  0.30714352784E+02  0.48328803105E+02  0.00000000000E+00 0. -1.
         -5    1    5    5    0  501  0.69439785773E+02  0.22423584706E+02  0.59795349819E+01  0.73365835632E+02  0.47000000000E+01 0.  1.
         13    1    6    6    0    0  0.91619842584E+01 -0.10066299920E+02  0.17397802162E+02  0.22089723169E+02  0.00000000000E+00 0. -1.
        -14    1    6    6    0    0 -0.58869821436E+02 -0.13934498856E+02 -0.55296660119E+02  0.81960641497E+02  0.00000000000E+00 0.  1.
</event>
<event>
12    1  0.2609167E-002  0.1990648E+03  0.7818608E-02  0.1150530E+00
          1   -1    0    0  502    0  0.00000000000E+00  0.00000000000E+00  0.15619067518E+03  0.15619067518E+03  0.00000000000E+00 0.  1.
         -1   -1    0    0    0  501 -0.00000000000E+00 -0.00000000000E+00 -0.25498042298E+03  0.25498042298E+03  0.00000000000E+00 0. -1.
          6    2    1    2  502    0  0.45683862626E+02 -0.84201761300E+02 -0.34651122298E+02  0.20101853539E+03  0.17329396810E+03 0.  0.
         24    2    3    3    0    0  0.69349442763E+02 -0.45291314043E+02  0.31832450370E+02  0.12029531677E+03  0.81221979788E+02 0.  0.
         -6    2    1    2    0  501 -0.45683862626E+02  0.84201761300E+02 -0.64138625510E+02  0.21015256278E+03  0.17570823671E+03 0.  0.
        -24    2    5    5    0    0 -0.12259227143E+02 -0.30321429755E+02 -0.20508827598E+02  0.83036801312E+02  0.73517485064E+02 0.  0.
          5    1    3    3  502    0 -0.23665580137E+02 -0.38910447257E+02 -0.66483572668E+02  0.80723218616E+02  0.47000000000E+01 0. -1.
        -11    1    4    4    0    0  0.33866112438E+02  0.15404724013E+02 -0.99465123982E+01  0.38511715133E+02  0.00000000000E+00 0.  1.
         12    1    4    4    0    0  0.35483330325E+02 -0.60696038056E+02  0.41778962768E+02  0.81783601637E+02  0.00000000000E+00 0. -1.
         -5    1    5    5    0  501 -0.33424635483E+02  0.11452319106E+03 -0.43629797913E+02  0.12711576146E+03  0.47000000000E+01 0.  1.
         13    1    6    6    0    0  0.20056163658E+02  0.13902420689E+02 -0.13298549833E+02  0.27791697129E+02  0.00000000000E+00 0. -1.
        -14    1    6    6    0    0 -0.32315390801E+02 -0.44223850444E+02 -0.72102777650E+01  0.55245104183E+02  0.00000000000E+00 0.  1.
</event>
<event>
12    1  0.2609167E-002  0.2118590E+03  0.7818608E-02  0.1140102E+00
         -1   -1    0    0    0  501 -0.00000000000E+00  0.00000000000E+00  0.32247106383E+03  0.32247106383E+03  0.00000000000E+00 0. -1.
          1   -1    0    0  502    0  0.00000000000E+00 -0.00000000000E+00 -0.18579859904E+03  0.18579859904E+03  0.00000000000E+00 0.  1.
          6    2    1    2  502    0  0.14441477096E+01  0.12237064707E+03 -0.58672424658E+02  0.22091910838E+03  0.17431620178E+03 0.  0.
         24    2    3    3    0    0  0.47351134070E+02  0.55063006049E+02 -0.81279835795E+02  0.13623761704E+03  0.81732564243E+02 0.  0.
         -6    2    1    2    0  501 -0.14441477096E+01 -0.12237064707E+03  0.19534488945E+03  0.28735055449E+03  0.17156355821E+03 0.  0.
        -24    2    5    5    0    0  0.56588694202E+02 -0.37358827640E+02  0.73515673634E+02  0.12779094805E+03  0.79548788919E+02 0.  0.
          5    1    3    3  502    0 -0.45906986361E+02  0.67307641021E+02  0.22607411137E+02  0.84681491336E+02  0.47000000000E+01 0. -1.
        -13    1    4    4    0    0  0.51583673755E+02  0.56973253857E+02 -0.26552100078E+02  0.81313228147E+02  0.00000000000E+00 0.  1.
         14    1    4    4    0    0 -0.42325396847E+01 -0.19102478076E+01 -0.54727735717E+02  0.54924388896E+02  0.00000000000E+00 0. -1.
         -5    1    5    5    0  501 -0.58032841912E+02 -0.85011819430E+02  0.12182921582E+03  0.15955960645E+03  0.47000000000E+01 0.  1.
         11    1    6    6    0    0  0.40483117053E+02 -0.14967446264E+02  0.86978499191E+02  0.97098746313E+02  0.00000000000E+00 0. -1.
        -12    1    6    6    0    0  0.16105577149E+02 -0.22391381376E+02 -0.13462825557E+02  0.30692201733E+02  0.00000000000E+00 0.  1.
</event>
<event>
12    1  0.2609167E-002  0.3048265E+03  0.7818608E-02  0.1082852E+00
          2   -1    0    0  502    0  0.00000000000E+00  0.00000000000E+00  0.24845820286E+03  0.24845820286E+03  0.00000000000E+00 0.  1.
         -2   -1    0    0    0  501 -0.00000000000E+00 -0.00000000000E+00 -0.44762342278E+03  0.44762342278E+03  0.00000000000E+00 0. -1.
          6    2    1    2  502    0 -0.24646150646E+03 -0.48074932103E+02  0.41629710499E+02  0.30748891499E+03  0.17251645365E+03 0.  0.
         24    2    3    3    0    0 -0.85461650967E+02 -0.11044272367E+02  0.74455488261E+02  0.13899011702E+03  0.79680381276E+02 0.  0.
         -6    2    1    2    0  501  0.24646150646E+03  0.48074932103E+02 -0.24079493042E+03  0.38859271065E+03  0.17311159116E+03 0.  0.
        -24    2    5    5    0    0  0.25944845988E+03  0.24041738737E+02 -0.19574780046E+03  0.33570046869E+03  0.80536294635E+02 0.  0.
          5    1    3    3  502    0 -0.16099985549E+03 -0.37030659735E+02 -0.32825777762E+02  0.16849879796E+03  0.47000000000E+01 0. -1.
        -13    1    4    4    0    0 -0.76575704342E+02 -0.40462669955E+02  0.56223346522E+02  0.10325759463E+03  0.00000000000E+00 0.  1.
         14    1    4    4    0    0 -0.88859466252E+01  0.29418397588E+02  0.18232141739E+02  0.35732522391E+02  0.00000000000E+00 0. -1.
         -5    1    5    5    0  501 -0.12986953426E+02  0.24033193366E+02 -0.45047129958E+02  0.52892241966E+02  0.47000000000E+01 0.  1.
         13    1    6    6    0    0  0.13920634082E+03  0.18678018989E+02 -0.15369169332E+03  0.20820281053E+03  0.00000000000E+00 0. -1.
        -14    1    6    6    0    0  0.12024211907E+03  0.53637197475E+01 -0.42056107137E+02  0.12749765816E+03  0.00000000000E+00 0.  1.
</event>
<event>
12    1  0.2609167E-002  0.1803119E+03  0.7818608E-02  0.1167501E+00
          1   -1    0    0  502    0  0.00000000000E+00  0.00000000000E+00  0.58112406642E+03  0.58112406642E+03  0.00000000000E+00 0.  1.
         -1   -1    0    0    0  501 -0.00000000000E+00 -0.00000000000E+00 -0.58476884914E+02  0.58476884914E+02  0.00000000000E+00 0. -1.
          6    2    1    2  502    0 -0.22026706612E+02 -0.40439732163E+02  0.19871972443E+03  0.27016345763E+03  0.17713897713E+03 0.  0.
         24    2    3    3    0    0  0.43304960835E+01  0.33533808098E+02  0.43426718201E+02  0.96080734260E+02  0.78755051649E+02 0.  0.
         -6    2    1    2    0  501  0.22026706612E+02  0.40439732163E+02  0.32392745708E+03  0.36943749371E+03  0.17156490482E+03 0.  0.
        -24    2    5    5    0    0 -0.46477104530E+01 -0.39100522863E+02  0.13163076770E+03  0.15958448934E+03  0.81179419387E+02 0.  0.
          5    1    3    3  502    0 -0.26357202696E+02 -0.73973540262E+02  0.15529300622E+03  0.17408272337E+03  0.47000000000E+01 0. -1.
        -11    1    4    4    0    0  0.20512748953E+02 -0.15650806515E+02  0.35214475387E+02  0.43655238986E+02  0.00000000000E+00 0.  1.
         12    1    4    4    0    0 -0.16182252870E+02  0.49184614613E+02  0.82122428142E+01  0.52425495273E+02  0.00000000000E+00 0. -1.
         -5    1    5    5    0  501  0.26674417065E+02  0.79540255026E+02  0.19229668938E+03  0.20985300437E+03  0.47000000000E+01 0.  1.
         11    1    6    6    0    0  0.22108919557E+02 -0.24574400004E+02  0.12381518102E+03  0.12815188063E+03  0.00000000000E+00 0. -1.
        -12    1    6    6    0    0 -0.26756630009E+02 -0.14526122858E+02  0.78155866791E+01  0.31432608703E+02  0.00000000000E+00 0.  1.
</event>
<event>
12    1  0.2609167E-002  0.1802503E+03  0.7818608E-02  0.1167561E+00
         -1   -1    0    0    0  501 -0.00000000000E+00  0.00000000000E+00  0.10038089899E+03  0.10038089899E+03  0.00000000000E+00 0. -1.
          1   -1    0    0  502    0  0.00000000000E+00 -0.00000000000E+00 -0.37473413942E+03  0.37473413942E+03  0.00000000000E+00 0.  1.
          6    2    1    2  502    0  0.67053347617E+01 -0.54032410187E+02 -0.22462844107E+03  0.28777821642E+03  0.17144650023E+03 0.  0.
         24    2    3    3    0    0  0.37183579073E+02 -0.81379012965E+02 -0.21378358893E+03  0.24515825774E+03  0.79962404544E+02 0.  0.
         -6    2    1    2    0  501 -0.67053347617E+01  0.54032410187E+02 -0.49724799355E+02  0.18733682200E+03  0.17221517454E+03 0.  0.
        -24    2    5    5    0    0  0.42092103101E+02  0.16400500822E+02 -0.77105300210E+02  0.11974146438E+03  0.79699870770E+02 0.  0.
          5    1    3    3  502    0 -0.30478244311E+02  0.27346602777E+02 -0.10844852148E+02  0.42619958680E+02  0.47000000000E+01 0. -1.
        -11    1    4    4    0    0  0.46448269510E+02 -0.39357391510E+02 -0.18128350627E+03  0.19123324934E+03  0.00000000000E+00 0.  1.
         12    1    4    4    0    0 -0.92646904377E+01 -0.42021621454E+02 -0.32500082658E+02  0.53925008404E+02  0.00000000000E+00 0. -1.
         -5    1    5    5    0  501 -0.48797437863E+02  0.37631909366E+02  0.27380500855E+02  0.67595357618E+02  0.47000000000E+01 0.  1.
         13    1    6    6    0    0 -0.11518019116E+02 -0.10500981779E+02  0.64649463997E+01  0.16873971513E+02  0.00000000000E+00 0. -1.
        -14    1    6    6    0    0  0.53610122217E+02  0.26901482601E+02 -0.83570246610E+02  0.10286749287E+03  0.00000000000E+00 0.  1.
</event>
<event>
12    1  0.2609167E-002  0.2283792E+03  0.7818608E-02  0.1127786E+00
          2   -1    0    0  502    0  0.00000000000E+00  0.00000000000E+00  0.27463532926E+03  0.27463532926E+03  0.00000000000E+00 0. -1.
         -2   -1    0    0    0  501 -0.00000000000E+00 -0.00000000000E+00 -0.20950918332E+03  0.20950918332E+03  0.00000000000E+00 0.  1.
          6    2    1    2  502    0  0.10863908022E+03 -0.10298950125E+03  0.10676409810E+03  0.25340012372E+03  0.17436674837E+03 0.  0.
         24    2    3    3    0    0  0.12435879997E+03 -0.13138540962E+03  0.91425576544E+02  0.21719518697E+03  0.78024843536E+02 0.  0.
         -6    2    1    2    0  501 -0.10863908022E+03  0.10298950125E+03 -0.41637952170E+02  0.23074438886E+03  0.17058712381E+03 0.  0.
        -24    2    5    5    0    0 -0.11336735381E+03  0.34609508639E+02  0.12124608846E+02  0.14350516072E+03  0.79979685005E+02 0.  0.
          5    1    3    3  502    0 -0.15719719746E+02  0.28395908369E+02  0.15338521561E+02  0.36204936744E+02  0.47000000000E+01 0. -1.
        -13    1    4    4    0    0  0.93442937425E+02 -0.70306798916E+02  0.20684411144E+02  0.11875383528E+03  0.00000000000E+00 0.  1.
         14    1    4    4    0    0  0.30915862541E+02 -0.61078610701E+02  0.70741165400E+02  0.98441351697E+02  0.00000000000E+00 0. -1.
         -5    1    5    5    0  501  0.47282735937E+01  0.68379992608E+02 -0.53762561017E+02  0.87239228144E+02  0.47000000000E+01 0.  1.
         13    1    6    6    0    0 -0.45790573848E+02  0.27883848513E+02  0.43171996182E+02  0.68833908181E+02  0.00000000000E+00 0. -1.
        -14    1    6    6    0    0 -0.67576779966E+02  0.67256601259E+01 -0.31047387336E+02  0.74671252534E+02  0.00000000000E+00 0.  1.
</event>
<event>
12    1  0.2609167E-002  0.2564367E+03  0.7818608E-02  0.1109303E+00
         -2   -1    0    0    0  501 -0.00000000000E+00  0.00000000000E+00  0.35515382939E+02  0.35515382939E+02  0.00000000000E+00 0.  1.
          2   -1    0    0  502    0  0.00000000000E+00 -0.00000000000E+00 -0.23778962442E+04  0.23778962442E+04  0.00000000000E+00 0. -1.
          6    2    1    2  502    0 -0.12883692181E+03 -0.13779747748E+03 -0.59932848689E+03  0.65142505219E+03  0.17196763127E+03 0.  0.
         24    2    3    3    0    0 -0.11806068941E+03 -0.16576646627E+03 -0.56285393592E+03  0.60398167133E+03  0.81070700054E+02 0.  0.
         -6    2    1    2    0  501  0.12883692181E+03  0.13779747748E+03 -0.17430523744E+04  0.17619865750E+04  0.17543663605E+03 0.  0.
        -24    2    5    5    0    0  0.74738607650E+02  0.14978279818E+03 -0.15503695243E+04  0.15614397070E+04  0.80172007600E+02 0.  0.
          5    1    3    3  502    0 -0.10776232403E+02  0.27968988789E+02 -0.36474550971E+02  0.47443380858E+02  0.47000000000E+01 0. -1.
        -13    1    4    4    0    0 -0.73816308538E+01 -0.66644982946E+02 -0.22778659238E+03  0.23745057147E+03  0.00000000000E+00 0.  1.
         14    1    4    4    0    0 -0.11067905855E+03 -0.99121483324E+02 -0.33506734354E+03  0.36653109986E+03  0.00000000000E+00 0. -1.
         -5    1    5    5    0  501  0.54098314161E+02 -0.11985320701E+02 -0.19268285009E+03  0.20054686791E+03  0.47000000000E+01 0.  1.
         13    1    6    6    0    0  0.94802337104E+01  0.79235589236E+01 -0.43688347237E+03  0.43705814950E+03  0.00000000000E+00 0. -1.
        -14    1    6    6    0    0  0.65258373940E+02  0.14185923926E+03 -0.11134860519E+04  0.11243815575E+04  0.00000000000E+00 0.  1.
</event>
<event>
12    1  0.2609167E-002  0.1924672E+03  0.7818608E-02  0.1156255E+00
          2   -1    0    0  502    0  0.00000000000E+00  0.00000000000E+00  0.14086246285E+03  0.14086246285E+03  0.00000000000E+00 0. -1.
         -2   -1    0    0    0  501 -0.00000000000E+00 -0.00000000000E+00 -0.36023352212E+03  0.36023352212E+03  0.00000000000E+00 0.  1.
          6    2    1    2  502    0 -0.45728143207E+02 -0.72040249653E+02 -0.24041389893E+03  0.30880339933E+03  0.17401102260E+03 0.  0.
         24    2    3    3    0    0  0.57701555381E+01 -0.70164419927E+02 -0.67582655511E+02  0.12839186363E+03  0.83430898367E+02 0.  0.
         -6    2    1    2    0  501  0.45728143207E+02  0.72040249653E+02  0.21042839653E+02  0.19229258564E+03  0.17103443145E+03 0.  0.
        -24    2    5    5    0    0 -0.14661298393E+02  0.43025218854E+02  0.65824488420E+02  0.11156933784E+03  0.77773586407E+02 0.  0.
          5    1    3    3  502    0 -0.51498298745E+02 -0.18758297264E+01 -0.17283124342E+03  0.18041153570E+03  0.47000000000E+01 0. -1.
        -13    1    4    4    0    0 -0.30583553368E+02 -0.19091407202E+02 -0.52879590690E+02  0.64000677161E+02  0.00000000000E+00 0.  1.
         14    1    4    4    0    0  0.36353708906E+02 -0.51073012724E+02 -0.14703064822E+02  0.64391186471E+02  0.00000000000E+00 0. -1.
         -5    1    5    5    0  501  0.60389441600E+02  0.29015030799E+02 -0.44781648767E+02  0.80723247799E+02  0.47000000000E+01 0.  1.
         13    1    6    6    0    0 -0.26349778330E+02  0.91048535679E+01  0.70097688855E+02  0.75438021973E+02  0.00000000000E+00 0. -1.
        -14    1    6    6    0    0  0.11688479937E+02  0.33920365286E+02 -0.42732004350E+01  0.36131315868E+02  0.00000000000E+00 0.  1.
</event>
<event>
12    1  0.2609167E-002  0.3053907E+03  0.7818608E-02  0.1082577E+00
          2   -1    0    0  502    0  0.00000000000E+00  0.00000000000E+00  0.98004818301E+03  0.98004818301E+03  0.00000000000E+00 0.  1.
         -2   -1    0    0    0  501 -0.00000000000E+00 -0.00000000000E+00 -0.54564576098E+03  0.54564576098E+03  0.00000000000E+00 0. -1.
          6    2    1    2  502    0 -0.14987597655E+03 -0.20485559056E+03 -0.47580336407E+03  0.56596625701E+03  0.17175663447E+03 0.  0.
         24    2    3    3    0    0 -0.71386929504E+01 -0.42098590672E+02 -0.12795943994E+03  0.15623310154E+03  0.78815680370E+02 0.  0.
         -6    2    1    2    0  501  0.14987597655E+03  0.20485559056E+03  0.91020578610E+03  0.95972768698E+03  0.16785123999E+03 0.  0.
        -24    2    5    5    0    0  0.11492083135E+03  0.11150471485E+03  0.37012673551E+03  0.41050667585E+03  0.76693100533E+02 0.  0.
          5    1    3    3  502    0 -0.14273728360E+03 -0.16275699988E+03 -0.34784392413E+03  0.40973315547E+03  0.47000000000E+01 0. -1.
        -13    1    4    4    0    0 -0.29124883423E+01 -0.63933900150E+02 -0.11150770144E+03  0.12856902293E+03  0.00000000000E+00 0.  1.
         14    1    4    4    0    0 -0.42262046081E+01  0.21835309479E+02 -0.16451738500E+02  0.27664078606E+02  0.00000000000E+00 0. -1.
         -5    1    5    5    0  501  0.34955145204E+02  0.93350875705E+02  0.54007905059E+03  0.54922101112E+03  0.47000000000E+01 0.  1.
         11    1    6    6    0    0  0.77464199314E+02  0.28838837903E+02  0.22078665351E+03  0.23575225792E+03  0.00000000000E+00 0. -1.
        -12    1    6    6    0    0  0.37456632032E+02  0.82665876948E+02  0.14934008200E+03  0.17475441793E+03  0.00000000000E+00 0.  1.
</event>
<event>
12    1  0.2609167E-002  0.3291777E+03  0.7818608E-02  0.1071501E+00
          1   -1    0    0  502    0  0.00000000000E+00  0.00000000000E+00  0.11020887027E+04  0.11020887027E+04  0.00000000000E+00 0.  1.
         -1   -1    0    0    0  501 -0.00000000000E+00 -0.00000000000E+00 -0.14544199221E+03  0.14544199221E+03  0.00000000000E+00 0. -1.
          6    2    1    2  502    0 -0.25248581047E+03  0.11848004329E+03  0.12233295264E+03  0.35027124343E+03  0.17302597355E+03 0.  0.
         24    2    3    3    0    0 -0.20676567370E+03  0.10629117329E+03  0.15608135763E+03  0.29196220212E+03  0.82647927566E+02 0.  0.
         -6    2    1    2    0  501  0.25248581047E+03 -0.11848004329E+03  0.83431375789E+03  0.89725945152E+03  0.17665919619E+03 0.  0.
        -24    2    5    5    0    0  0.12971543678E+03  0.25551811885E+01  0.37760682745E+03  0.40907362571E+03  0.89003885420E+02 0.  0.
          5    1    3    3  502    0 -0.45720136774E+02  0.12188870001E+02 -0.33748404989E+02  0.58309041305E+02  0.47000000000E+01 0. -1.
        -13    1    4    4    0    0 -0.10841857408E+03  0.87409967015E+02  0.12491920886E+03  0.18708259748E+03  0.00000000000E+00 0.  1.
         14    1    4    4    0    0 -0.98347099619E+02  0.18881206273E+02  0.31162148772E+02  0.10487960464E+03  0.00000000000E+00 0. -1.
         -5    1    5    5    0  501  0.12277037369E+03 -0.12103522448E+03  0.45670693043E+03  0.48818582581E+03  0.47000000000E+01 0.  1.
         13    1    6    6    0    0  0.30469751760E+02  0.25565045819E+02  0.39915629842E+02  0.56349222228E+02  0.00000000000E+00 0. -1.
        -14    1    6    6    0    0  0.99245685023E+02 -0.23009864630E+02  0.33769119761E+03  0.35272440348E+03  0.00000000000E+00 0.  1.
</event>
<event>
12    1  0.2609167E-002  0.1841880E+03  0.7818608E-02  0.1163810E+00
         -2   -1    0    0    0  501 -0.00000000000E+00  0.00000000000E+00  0.11543515021E+02  0.11543515021E+02  0.00000000000E+00 0. -1.
          2   -1    0    0  502    0  0.00000000000E+00 -0.00000000000E+00 -0.34516257157E+04  0.34516257157E+04  0.00000000000E+00 0.  1.
          6    2    1    2  502    0  0.25995319567E+02 -0.60154545693E+02 -0.10463224596E+04  0.10622719742E+04  0.17127968838E+03 0.  0.
         24    2    3    3    0    0  0.54236254908E+02 -0.35848582612E+02 -0.33177106316E+03  0.34673433127E+03  0.76980295565E+02 0.  0.
         -6    2    1    2    0  501 -0.25995319567E+02  0.60154545693E+02 -0.23937597411E+04  0.24008972566E+04  0.17299598974E+03 0.  0.
        -24    2    5    5    0    0 -0.63127271316E+02  0.81333841662E+02 -0.20961946001E+04  0.21002405627E+04  0.79864720655E+02 0.  0.
          5    1    3    3  502    0 -0.28240935342E+02 -0.24305963081E+02 -0.71455139645E+03  0.71553764292E+03  0.47000000000E+01 0. -1.
        -11    1    4    4    0    0  0.33951830452E+02 -0.94373364658E+01 -0.29510844048E+03  0.29720494907E+03  0.00000000000E+00 0.  1.
         12    1    4    4    0    0  0.20284424457E+02 -0.26411246146E+02 -0.36662622680E+02  0.49529382192E+02  0.00000000000E+00 0. -1.
         -5    1    5    5    0  501  0.37131951749E+02 -0.21179295969E+02 -0.29756514102E+03  0.30065669387E+03  0.47000000000E+01 0.  1.
         11    1    6    6    0    0 -0.21649094793E+02  0.49108853909E+02 -0.44709280613E+03  0.45030249848E+03  0.00000000000E+00 0. -1.
        -12    1    6    6    0    0 -0.41478176523E+02  0.32224987753E+02 -0.16491017940E+04  0.16499380642E+04  0.00000000000E+00 0.  1.
</event>
<event>
12    1  0.2609167E-002  0.2751018E+03  0.7818608E-02  0.1098395E+00
         -3   -1    0    0    0  501 -0.00000000000E+00  0.00000000000E+00  0.82307056764E+03  0.82307056764E+03  0.00000000000E+00 0.  1.
          3   -1    0    0  502    0  0.00000000000E+00 -0.00000000000E+00 -0.10924825202E+03  0.10924825202E+03  0.00000000000E+00 0. -1.
          6    2    1    2  502    0  0.74312634733E+02  0.20305141791E+03  0.17216349705E+03  0.32511110038E+03  0.17118619067E+03 0.  0.
         24    2    3    3    0    0 -0.28232241681E+01  0.16740522619E+03  0.90313032051E+02  0.20703409020E+03  0.81695718344E+02 0.  0.
         -6    2    1    2    0  501 -0.74312634733E+02 -0.20305141791E+03  0.54165881857E+03  0.60720771928E+03  0.16898133808E+03 0.  0.
        -24    2    5    5    0    0 -0.11529628376E+03 -0.13293064979E+03  0.39066035675E+03  0.43568743743E+03  0.79020491675E+02 0.  0.
          5    1    3    3  502    0  0.77135858901E+02  0.35646191720E+02  0.81850465004E+02  0.11807701018E+03  0.47000000000E+01 0. -1.
        -13    1    4    4    0    0 -0.28786643989E+02  0.37495546129E+02  0.49418858051E+02  0.68387209204E+02  0.00000000000E+00 0.  1.
         14    1    4    4    0    0  0.25963419821E+02  0.12990968006E+03  0.40894173999E+02  0.13864688100E+03  0.00000000000E+00 0. -1.
         -5    1    5    5    0  501  0.40983649028E+02 -0.70120768126E+02  0.15099846182E+03  0.17152028184E+03  0.47000000000E+01 0.  1.
         13    1    6    6    0    0 -0.35838617615E+02 -0.69032877673E+02  0.94081968047E+02  0.12207113264E+03  0.00000000000E+00 0. -1.
        -14    1    6    6    0    0 -0.79457666145E+02 -0.63897772113E+02  0.29657838870E+03  0.31361630479E+03  0.00000000000E+00 0.  1.
</event>
<event>
12    1  0.2609167E-002  0.2115786E+03  0.7818608E-02  0.1140322E+00
          1   -1    0    0  502    0  0.00000000000E+00  0.00000000000E+00  0.69581251844E+03  0.69581251844E+03  0.00000000000E+00 0. -1.
         -1   -1    0    0    0  501 -0.00000000000E+00 -0.00000000000E+00 -0.73828338852E+02  0.73828338852E+02  0.00000000000E+00 0.  1.
          6    2    1    2  502    0  0.65385432496E+02 -0.98834986398E+02  0.44577808814E+03  0.49240307130E+03  0.17233418537E+03 0.  0.
         24    2    3    3    0    0  0.98687350818E+02 -0.89742879660E+02  0.27169328271E+03  0.31486633243E+03  0.86778970764E+02 0.  0.
         -6    2    1    2    0  501 -0.65385432496E+02  0.98834986398E+02  0.17620609144E+03  0.27723778598E+03  0.17823746518E+03 0.  0.
        -24    2    5    5    0    0 -0.25066548573E+02  0.29638694907E+02  0.17548013535E+03  0.19701088171E+03  0.80704556982E+02 0.  0.
          5    1    3    3  502    0 -0.33301918323E+02 -0.90921067380E+01  0.17408480543E+03  0.17753673888E+03  0.47000000000E+01 0. -1.
        -11    1    4    4    0    0  0.24983830308E+02 -0.73265427858E+02  0.93870289263E+02  0.12167023425E+03  0.00000000000E+00 0.  1.
         12    1    4    4    0    0  0.73703520511E+02 -0.16477451802E+02  0.17782299344E+03  0.19319609818E+03  0.00000000000E+00 0. -1.
         -5    1    5    5    0  501 -0.40318883923E+02  0.69196291491E+02  0.72595609770E+00  0.80226904272E+02  0.47000000000E+01 0.  1.
         13    1    6    6    0    0 -0.49345989113E+02  0.10876593169E+02  0.64894931786E+02  0.82247669219E+02  0.00000000000E+00 0. -1.
        -14    1    6    6    0    0  0.24279440540E+02  0.18762101738E+02  0.11058520356E+03  0.11476321249E+03  0.00000000000E+00 0.  1.
</event>
<event>
12    1  0.2609167E-002  0.2075657E+03  0.7818608E-02  0.1143508E+00
          1   -1    0    0  502    0  0.00000000000E+00  0.00000000000E+00  0.82405802427E+03  0.82405802427E+03  0.00000000000E+00 0. -1.
         -1   -1    0    0    0  501 -0.00000000000E+00 -0.00000000000E+00 -0.12509985624E+03  0.12509985624E+03  0.00000000000E+00 0.  1.
          6    2    1    2  502    0 -0.59901243198E+02  0.98923471928E+02  0.71142693329E+03  0.74103775607E+03  0.17214721105E+03 0.  0.
         24    2    3    3    0    0 -0.58782552412E+02  0.85899297256E+02  0.27678211693E+03  0.30617100982E+03  0.79361636010E+02 0.  0.
         -6    2    1    2    0  501  0.59901243198E+02 -0.98923471928E+02 -0.12468765258E+02  0.20812012444E+03  0.17258187581E+03 0.  0.
        -24    2    5    5    0    0  0.55345630078E+02  0.45205810838E+01  0.18802408639E+02  0.99854700456E+02  0.80832272085E+02 0.  0.
          5    1    3    3  502    0 -0.11186907862E+01  0.13024174673E+02  0.43464481636E+03  0.43486674624E+03  0.47000000000E+01 0. -1.
        -11    1    4    4    0    0 -0.32123212651E+02  0.23686621591E+01  0.29033884344E+02  0.43364476147E+02  0.00000000000E+00 0.  1.
         12    1    4    4    0    0 -0.26659339761E+02  0.83530635097E+02  0.24774823258E+03  0.26280653368E+03  0.00000000000E+00 0. -1.
         -5    1    5    5    0  501  0.45556131200E+01 -0.10344405301E+03 -0.31271173897E+02  0.10826542399E+03  0.47000000000E+01 0.  1.
         11    1    6    6    0    0  0.67827788360E+02 -0.83757810931E+01 -0.66991988182E+01  0.68670531144E+02  0.00000000000E+00 0. -1.
        -12    1    6    6    0    0 -0.12482158282E+02  0.12896362177E+02  0.25501607458E+02  0.31184169312E+02  0.00000000000E+00 0.  1.
</event>
<event>
12    1  0.2609167E-002  0.2922887E+03  0.7818608E-02  0.1089160E+00
         -1   -1    0    0    0  501 -0.00000000000E+00  0.00000000000E+00  0.53919860852E+02  0.53919860852E+02  0.00000000000E+00 0.  1.
          1   -1    0    0  502    0  0.00000000000E+00 -0.00000000000E+00 -0.15850713052E+04  0.15850713052E+04  0.00000000000E+00 0. -1.
          6    2    1    2  502    0  0.21255550797E+03 -0.10434932324E+03 -0.77995960744E+03  0.83267834058E+03  0.17013995534E+03 0.  0.
         24    2    3    3    0    0  0.25323315046E+02 -0.58731061243E+02 -0.16940611640E+03  0.19241700697E+03  0.65078909469E+02 0.  0.
         -6    2    1    2    0  501 -0.21255550797E+03  0.10434932324E+03 -0.75119183687E+03  0.80631282543E+03  0.17257627719E+03 0.  0.
        -24    2    5    5    0    0 -0.12711643176E+03  0.11431931275E+03 -0.62956806798E+03  0.65727032279E+03  0.80130097410E+02 0.  0.
          5    1    3    3  502    0  0.18723219293E+03 -0.45618261999E+02 -0.61055349104E+03  0.64026133361E+03  0.47000000000E+01 0. -1.
        -13    1    4    4    0    0  0.41201283701E+02 -0.16804621562E+02 -0.64778840690E+02  0.78589053217E+02  0.00000000000E+00 0.  1.
         14    1    4    4    0    0 -0.15877968655E+02 -0.41926439681E+02 -0.10462727571E+03  0.11382795375E+03  0.00000000000E+00 0. -1.
         -5    1    5    5    0  501 -0.85439076214E+02 -0.99699895059E+01 -0.12162376889E+03  0.14904250264E+03  0.47000000000E+01 0.  1.
         13    1    6    6    0    0 -0.31073090911E+02 -0.88959993535E+01 -0.95462462077E+02  0.10078570062E+03  0.00000000000E+00 0. -1.
        -14    1    6    6    0    0 -0.96043340847E+02  0.12321531210E+03 -0.53410560590E+03  0.55648462217E+03  0.00000000000E+00 0.  1.
</event>
<event>
12    1  0.2609167E-002  0.2377158E+03  0.7818608E-02  0.1121324E+00
          2   -1    0    0  502    0  0.00000000000E+00  0.00000000000E+00  0.22161498471E+03  0.22161498471E+03  0.00000000000E+00 0.  1.
         -2   -1    0    0    0  501 -0.00000000000E+00 -0.00000000000E+00 -0.27131866970E+03  0.27131866970E+03  0.00000000000E+00 0. -1.
          6    2    1    2  502    0 -0.74613725997E+02 -0.14314591424E+03 -0.85511070335E+02  0.25497069023E+03  0.17787621779E+03 0.  0.
         24    2    3    3    0    0 -0.52825217683E+02 -0.20614295999E+02  0.85859867386E+01  0.98877504235E+02  0.80545570038E+02 0.  0.
         -6    2    1    2    0  501  0.74613725997E+02  0.14314591424E+03  0.35807385345E+02  0.23796296418E+03  0.17113223719E+03 0.  0.
        -24    2    5    5    0    0  0.89809353620E+01  0.25820391385E+02 -0.27908119905E+02  0.89118424041E+02  0.80099191854E+02 0.  0.
          5    1    3    3  502    0 -0.21788508314E+02 -0.12253161824E+03 -0.94097057074E+02  0.15609318599E+03  0.47000000000E+01 0. -1.
        -11    1    4    4    0    0  0.14034673033E+02  0.61488936448E+01  0.20797087572E+02  0.25832146478E+02  0.00000000000E+00 0.  1.
         12    1    4    4    0    0 -0.66859890715E+02 -0.26763189643E+02 -0.12211100833E+02  0.73045357758E+02  0.00000000000E+00 0. -1.
         -5    1    5    5    0  501  0.65632790635E+02  0.11732552286E+03  0.63715505251E+02  0.14884454014E+03  0.47000000000E+01 0.  1.
         11    1    6    6    0    0  0.17181442235E+02 -0.25407059938E+02 -0.10274452147E+01  0.30688373949E+02  0.00000000000E+00 0. -1.
        -12    1    6    6    0    0 -0.82005068728E+01  0.51227451322E+02 -0.26880674691E+02  0.58430050092E+02  0.00000000000E+00 0.  1.
</event>
<event>
12    1  0.2609167E-002  0.1796118E+03  0.7818608E-02  0.1168179E+00
         -2   -1    0    0    0  501 -0.00000000000E+00  0.00000000000E+00  0.33957109163E+02  0.33957109163E+02  0.00000000000E+00 0.  1.
          2   -1    0    0  502    0  0.00000000000E+00 -0.00000000000E+00 -0.10345783678E+04  0.10345783678E+04  0.00000000000E+00 0. -1.
          6    2    1    2  502    0  0.75998372250E+01 -0.46351807888E+02 -0.65177217160E+03  0.67593704226E+03  0.17285159476E+03 0.  0.
         24    2    3    3    0    0 -0.94252404874E+00  0.40481990232E+02 -0.35494824645E+03  0.36651885764E+03  0.81903207904E+02 0.  0.
         -6    2    1    2    0  501 -0.75998372250E+01  0.46351807888E+02 -0.34884908707E+03  0.39259843474E+03  0.17387236062E+03 0.  0.
        -24    2    5    5    0    0 -0.56200273277E+01  0.79411272962E+02 -0.33649033254E+03  0.35693785858E+03  0.88550302175E+02 0.  0.
          5    1    3    3  502    0  0.85423612737E+01 -0.86833798120E+02 -0.29682392515E+03  0.30941818462E+03  0.47000000000E+01 0. -1.
        -13    1    4    4    0    0  0.14419676277E+02  0.22773183023E+01 -0.70848399207E+01  0.16226774149E+02  0.00000000000E+00 0.  1.
         14    1    4    4    0    0 -0.15362200326E+02  0.38204671929E+02 -0.34786340653E+03  0.35029208349E+03  0.00000000000E+00 0. -1.
         -5    1    5    5    0  501 -0.19798098973E+01 -0.33059465074E+02 -0.12358754535E+02  0.35660576157E+02  0.47000000000E+01 0.  1.
         13    1    6    6    0    0 -0.45735496959E+02  0.33308117354E+02 -0.18902215351E+03  0.19730823825E+03  0.00000000000E+00 0. -1.
        -14    1    6    6    0    0  0.40115469631E+02  0.46103155609E+02 -0.14746817902E+03  0.15962962032E+03  0.00000000000E+00 0.  1.
</event>
<event>
12    1  0.2609167E-002  0.1909587E+03  0.7818608E-02  0.1157599E+00
          2   -1    0    0  502    0  0.00000000000E+00  0.00000000000E+00  0.65694361416E+03  0.65694361416E+03  0.00000000000E+00 0. -1.
         -2   -1    0    0    0  501 -0.00000000000E+00 -0.00000000000E+00 -0.55619978284E+02  0.55619978284E+02  0.00000000000E+00 0.  1.
          6    2    1    2  502    0 -0.46621645403E+02  0.66919925825E+02  0.28518502304E+03  0.34340487096E+03  0.17304494716E+03 0.  0.
         24    2    3    3    0    0 -0.92208494935E+02  0.72909312168E+02  0.20363093821E+03  0.24966484562E+03  0.83957142637E+02 0.  0.
         -6    2    1    2    0  501  0.46621645403E+02 -0.66919925825E+02  0.31613861283E+03  0.36915872148E+03  0.17228663567E+03 0.  0.
        -24    2    5    5    0    0 -0.14535138990E+02 -0.49440663599E+02  0.27380041900E+03  0.29260619349E+03  0.89420722095E+02 0.  0.
          5    1    3    3  502    0  0.45586849532E+02 -0.59893863428E+01  0.81554084827E+02  0.93740025342E+02  0.47000000000E+01 0. -1.
        -13    1    4    4    0    0 -0.71920706721E+02  0.96139324494E+01  0.72085607885E+02  0.10228074411E+03  0.00000000000E+00 0.  1.
         14    1    4    4    0    0 -0.20287788214E+02  0.63295379719E+02  0.13154533033E+03  0.14738410150E+03  0.00000000000E+00 0. -1.
         -5    1    5    5    0  501  0.61156784393E+02 -0.17479262226E+02  0.42338193828E+02  0.76552527991E+02  0.47000000000E+01 0.  1.
         11    1    6    6    0    0 -0.28399941073E+02  0.51706852623E+01  0.18637560083E+03  0.18859787174E+03  0.00000000000E+00 0. -1.
        -12    1    6    6    0    0  0.13864802083E+02 -0.54611348861E+02  0.87424818173E+02  0.10400832175E+03  0.00000000000E+00 0.  1.
</event>
<event>
12    1  0.2609167E-002  0.2111368E+03  0.7818608E-02  0.1140669E+00
         -2   -1    0    0    0  501 -0.00000000000E+00  0.00000000000E+00  0.38097372773E+02  0.38097372773E+02  0.00000000000E+00 0. -1.
          2   -1    0    0  502    0  0.00000000000E+00 -0.00000000000E+00 -0.11707239265E+04  0.11707239265E+04  0.00000000000E+00 0.  1.
          6    2    1    2  502    0  0.80990735155E+00  0.12260109120E+03 -0.58057878804E+03  0.61785841085E+03  0.17217898602E+03 0.  0.
         24    2    3    3    0    0  0.38851471146E+02  0.59754906947E+02 -0.17893897990E+03  0.20952836183E+03  0.82479634878E+02 0.  0.
         -6    2    1    2    0  501 -0.80990735155E+00 -0.12260109120E+03 -0.55204776566E+03  0.59096288839E+03  0.17160628303E+03 0.  0.
        -24    2    5    5    0    0 -0.65662199793E+02 -0.72829063962E+02 -0.37068271454E+03  0.39196930483E+03  0.81355172136E+02 0.  0.
          5    1    3    3  502    0 -0.38041563795E+02  0.62846184253E+02 -0.40163980814E+03  0.40833004902E+03  0.47000000000E+01 0. -1.
        -11    1    4    4    0    0  0.31796329242E+02 -0.13008873938E+02 -0.74568484151E+02  0.82101742874E+02  0.00000000000E+00 0.  1.
         12    1    4    4    0    0  0.70551419044E+01  0.72763780885E+02 -0.10437049575E+03  0.12742661896E+03  0.00000000000E+00 0. -1.
         -5    1    5    5    0  501  0.64852292441E+02 -0.49772027238E+02 -0.18136505112E+03  0.19899358356E+03  0.47000000000E+01 0.  1.
         11    1    6    6    0    0 -0.75381449499E+02 -0.43810583751E+02 -0.32838107514E+03  0.33975853291E+03  0.00000000000E+00 0. -1.
        -12    1    6    6    0    0  0.97192497066E+01 -0.29018480210E+02 -0.42301639403E+02  0.52210771922E+02  0.00000000000E+00 0.  1.
</event>
<event>
12    1  0.2609167E-002  0.1847342E+03  0.7818608E-02  0.1163298E+00
          2   -1    0    0  502    0  0.00000000000E+00  0.00000000000E+00  0.14720820500E+04  0.14720820500E+04  0.00000000000E+00 0. -1.
         -2   -1    0    0    0  501 -0.00000000000E+00 -0.00000000000E+00 -0.23228971566E+02  0.23228971566E+02  0.00000000000E+00 0.  1.
          6    2    1    2  502    0  0.44669224942E+02 -0.48941884901E+02  0.69198590115E+03  0.71628202145E+03  0.17269857873E+03 0.  0.
         24    2    3    3    0    0 -0.26315390758E+02 -0.17232803731E+02  0.19300413017E+03  0.21125808215E+03  0.79936935722E+02 0.  0.
         -6    2    1    2    0  501 -0.44669224942E+02  0.48941884901E+02  0.75686717725E+03  0.77902900010E+03  0.17218481707E+03 0.  0.
        -24    2    5    5    0    0 -0.18680458516E+02  0.53127831906E+02  0.21175993675E+03  0.23326629362E+03  0.79996042851E+02 0.  0.
          5    1    3    3  502    0  0.70984615700E+02 -0.31709081171E+02  0.49898177098E+03  0.50502393930E+03  0.47000000000E+01 0. -1.
        -13    1    4    4    0    0 -0.49858478703E+01 -0.41402486469E+02  0.52205390211E+02  0.66816370239E+02  0.00000000000E+00 0.  1.
         14    1    4    4    0    0 -0.21329542888E+02  0.24169682739E+02  0.14079873996E+03  0.14444171191E+03  0.00000000000E+00 0. -1.
         -5    1    5    5    0  501 -0.25988766425E+02 -0.41859470052E+01  0.54510724050E+03  0.54576270648E+03  0.47000000000E+01 0.  1.
         11    1    6    6    0    0 -0.37927637240E+02  0.45401558948E+02  0.20173517607E+03  0.21023056030E+03  0.00000000000E+00 0. -1.
        -12    1    6    6    0    0  0.19247178724E+02  0.77262729581E+01  0.10024760684E+02  0.23035733316E+02  0.00000000000E+00 0.  1.
</event>
<event>
12    1  0.2609167E-002  0.2222148E+03  0.7818608E-02  0.1132243E+00
          2   -1    0    0  502    0  0.00000000000E+00  0.00000000000E+00  0.46916749247E+03  0.46916749247E+03  0.00000000000E+00 0.  1.
         -2   -1    0    0    0  501 -0.00000000000E+00 -0.00000000000E+00 -0.12656267478E+03  0.12656267478E+03  0.00000000000E+00 0. -1.
          6    2    1    2  502    0  0.36038465896E+02  0.13638981462E+03  0.49067724435E+02  0.22756840555E+03  0.17169387021E+03 0.  0.
         24    2    3    3    0    0  0.24640296702E+02  0.16296678282E+03  0.18965386657E+02  0.18556252216E+03  0.83117069331E+02 0.  0.
         -6    2    1    2    0  501 -0.36038465896E+02 -0.13638981462E+03  0.29353709325E+03  0.36816176171E+03  0.17169189005E+03 0.  0.
        -24    2    5    5    0    0  0.30339676677E+02 -0.57167483768E+02  0.71351668008E+02  0.12306853718E+03  0.76591038216E+02 0.  0.
          5    1    3    3  502    0  0.11398169194E+02 -0.26576968204E+02  0.30102337778E+02  0.42005883393E+02  0.47000000000E+01 0. -1.
        -13    1    4    4    0    0 -0.12612503415E+02  0.22058583149E+02  0.30096682628E+02  0.39388661289E+02  0.00000000000E+00 0.  1.
         14    1    4    4    0    0  0.37252800116E+02  0.14090819967E+03 -0.11131295971E+02  0.14617386087E+03  0.00000000000E+00 0. -1.
         -5    1    5    5    0  501 -0.66378142572E+02 -0.79222330851E+02  0.22218542524E+03  0.24509322452E+03  0.47000000000E+01 0.  1.
         11    1    6    6    0    0 -0.89707664911E+01  0.16818480048E+00 -0.11711482082E+02  0.14753364027E+02  0.00000000000E+00 0. -1.
        -12    1    6    6    0    0  0.39310443168E+02 -0.57335668568E+02  0.83063150090E+02  0.10831517315E+03  0.00000000000E+00 0.  1.
</event>
<event>
12    1  0.2609167E-002  0.1771243E+03  0.7818608E-02  0.1170615E+00
         -1   -1    0    0    0  501 -0.00000000000E+00  0.00000000000E+00  0.49538429887E+03  0.49538429887E+03  0.00000000000E+00 0. -1.
          1   -1    0    0  502    0  0.00000000000E+00 -0.00000000000E+00 -0.66127012757E+02  0.66127012757E+02  0.00000000000E+00 0.  1.
          6    2    1    2  502    0 -0.10138292364E+01 -0.29378191548E+02  0.26989697288E+03  0.32171554197E+03  0.17260477395E+03 0.  0.
         24    2    3    3    0    0  0.13673494239E+02 -0.54970281771E+02  0.27530449452E+03  0.29135102579E+03  0.76708273365E+02 0.  0.
         -6    2    1    2    0  501  0.10138292364E+01  0.29378191548E+02  0.15936031323E+03  0.23979576965E+03  0.17675462008E+03 0.  0.
        -24    2    5    5    0    0  0.54723144397E+02  0.60544051233E+02  0.83254435404E+02  0.14145861500E+03  0.80118874619E+02 0.  0.
          5    1    3    3  502    0 -0.14687323475E+02  0.25592090223E+02 -0.54075216441E+01  0.30364516186E+02  0.47000000000E+01 0. -1.
        -13    1    4    4    0    0  0.34384463947E+02 -0.31392154800E+02  0.72704333728E+02  0.86334691097E+02  0.00000000000E+00 0.  1.
         14    1    4    4    0    0 -0.20710969708E+02 -0.23578126971E+02  0.20260016079E+03  0.20501633469E+03  0.00000000000E+00 0. -1.
         -5    1    5    5    0  501 -0.53709315160E+02 -0.31165859685E+02  0.76105877830E+02  0.98337154652E+02  0.47000000000E+01 0.  1.
         13    1    6    6    0    0  0.23570638759E+02 -0.12892233694E+02  0.46330963086E+02  0.53556912173E+02  0.00000000000E+00 0. -1.
        -14    1    6    6    0    0  0.31152505638E+02  0.73436284926E+02  0.36923472318E+02  0.87901702824E+02  0.00000000000E+00 0.  1.
</event>
<event>
12    1  0.2609167E-002  0.1926561E+03  0.7818608E-02  0.1156087E+00
          2   -1    0    0  502    0  0.00000000000E+00  0.00000000000E+00  0.50205269456E+03  0.50205269456E+03  0.00000000000E+00 0. -1.
         -2   -1    0    0    0  501 -0.00000000000E+00 -0.00000000000E+00 -0.82374465540E+02  0.82374465540E+02  0.00000000000E+00 0.  1.
          6    2    1    2  502    0 -0.56784298563E+02  0.65927966978E+02  0.11646028954E+03  0.22528295572E+03  0.17210013860E+03 0.  0.
         24    2    3    3    0    0 -0.99914437513E+02  0.24455465866E+02  0.62840752258E+02  0.14480114403E+03  0.80233699491E+02 0.  0.
         -6    2    1    2    0  501  0.56784298563E+02 -0.65927966978E+02  0.30321793947E+03  0.35914420438E+03  0.17167552919E+03 0.  0.
        -24    2    5    5    0    0  0.55779314817E+02  0.14648503826E+02  0.23009339198E+03  0.25022741464E+03  0.79654751143E+02 0.  0.
          5    1    3    3  502    0  0.43130138950E+02  0.41472501112E+02  0.53619537285E+02  0.80481811690E+02  0.47000000000E+01 0. -1.
        -11    1    4    4    0    0 -0.20788435939E+02  0.18238126021E+02 -0.16804611279E+02  0.32360211214E+02  0.00000000000E+00 0.  1.
         12    1    4    4    0    0 -0.79126001574E+02  0.62173398448E+01  0.79645363537E+02  0.11244093282E+03  0.00000000000E+00 0. -1.
         -5    1    5    5    0  501  0.10049837459E+01 -0.80576470804E+02  0.73124547493E+02  0.10891678973E+03  0.47000000000E+01 0.  1.
         13    1    6    6    0    0  0.26192992286E+02  0.37579489901E+02  0.56961490700E+02  0.73095159408E+02  0.00000000000E+00 0. -1.
        -14    1    6    6    0    0  0.29586322531E+02 -0.22930986075E+02  0.17313190128E+03  0.17713225523E+03  0.00000000000E+00 0.  1.
</event>
<event>
12    1  0.2609167E-002  0.1731816E+03  0.7818608E-02  0.1174570E+00
          2   -1    0    0  502    0  0.00000000000E+00  0.00000000000E+00  0.14019882508E+03  0.14019882508E+03  0.00000000000E+00 0. -1.
         -2   -1    0    0    0  501 -0.00000000000E+00 -0.00000000000E+00 -0.34241095629E+03  0.34241095629E+03  0.00000000000E+00 0.  1.
          6    2    1    2  502    0 -0.33677515532E+02  0.13562977255E+02  0.45686503529E+02  0.18173278627E+03  0.17210874352E+03 0.  0.
         24    2    3    3    0    0 -0.22625030140E+02  0.59712700661E+02 -0.10671849335E+02  0.10790658265E+03  0.86327536748E+02 0.  0.
         -6    2    1    2    0  501  0.33677515532E+02 -0.13562977255E+02 -0.24789863474E+03  0.30087699510E+03  0.16659863045E+03 0.  0.
        -24    2    5    5    0    0  0.39460860953E+02  0.26518883658E+02 -0.66571108760E+02  0.11502284708E+03  0.80858716849E+02 0.  0.
          5    1    3    3  502    0 -0.11052485392E+02 -0.46149723407E+02  0.56358352863E+02  0.73826203623E+02  0.47000000000E+01 0. -1.
        -11    1    4    4    0    0 -0.21097164277E+02  0.64617438428E+02 -0.39504380137E+02  0.78619970361E+02  0.00000000000E+00 0.  1.
         12    1    4    4    0    0 -0.15278658623E+01 -0.49047377664E+01  0.28832530803E+02  0.29286612285E+02  0.00000000000E+00 0. -1.
         -5    1    5    5    0  501 -0.57833454211E+01 -0.40081860913E+02 -0.18132752598E+03  0.18585414802E+03  0.47000000000E+01 0.  1.
         13    1    6    6    0    0  0.33029945775E+02 -0.15856682798E+02 -0.95840059526E+00  0.36651469806E+02  0.00000000000E+00 0. -1.
        -14    1    6    6    0    0  0.64309151775E+01  0.42375566456E+02 -0.65612708165E+02  0.78371377270E+02  0.00000000000E+00 0.  1.
</event>
<event>
12    1  0.2609167E-002  0.2250100E+03  0.7818608E-02  0.1130202E+00
          2   -1    0    0  502    0  0.00000000000E+00  0.00000000000E+00  0.28150127919E+04  0.28150127919E+04  0.00000000000E+00 0.  1.
         -2   -1    0    0    0  501 -0.00000000000E+00 -0.00000000000E+00 -0.27654271022E+02  0.27654271022E+02  0.00000000000E+00 0. -1.
          6    2    1    2  502    0 -0.14483628139E+03  0.11041452768E+02  0.54977288056E+03  0.59370929406E+03  0.17070747953E+03 0.  0.
         24    2    3    3    0    0 -0.14211977603E+03  0.14802591735E+02  0.55887573992E+03  0.58246306730E+03  0.80647285309E+02 0.  0.
         -6    2    1    2    0  501  0.14483628139E+03 -0.11041452768E+02  0.22375856403E+04  0.22489577688E+04  0.17298001699E+03 0.  0.
        -24    2    5    5    0    0  0.10642578578E+03 -0.24071170923E+01  0.83703817394E+03  0.84784920294E+03  0.82964596049E+02 0.  0.
          5    1    3    3  502    0 -0.27165053511E+01 -0.37611389674E+01 -0.91028593676E+01  0.11246226759E+02  0.47000000000E+01 0. -1.
        -11    1    4    4    0    0 -0.92064521459E+02  0.21850187423E+02  0.21511803121E+03  0.23500866825E+03  0.00000000000E+00 0.  1.
         12    1    4    4    0    0 -0.50055254576E+02 -0.70475956877E+01  0.34375770872E+03  0.34745439905E+03  0.00000000000E+00 0. -1.
         -5    1    5    5    0  501  0.38410495602E+02 -0.86343356755E+01  0.14005474664E+04  0.14011085659E+04  0.47000000000E+01 0.  1.
         13    1    6    6    0    0  0.89353370642E+02  0.11893788952E+02  0.79660070386E+03  0.80168458165E+03  0.00000000000E+00 0. -1.
        -14    1    6    6    0    0  0.17072415141E+02 -0.14300906045E+02  0.40437470081E+02  0.46164621292E+02  0.00000000000E+00 0.  1.
</event>
<event>
12    1  0.2609167E-002  0.1817237E+03  0.7818608E-02  0.1166145E+00
         -2   -1    0    0    0  501 -0.00000000000E+00  0.00000000000E+00  0.72302949701E+03  0.72302949701E+03  0.00000000000E+00 0. -1.
          2   -1    0    0  502    0  0.00000000000E+00 -0.00000000000E+00 -0.17542856845E+03  0.17542856845E+03  0.00000000000E+00 0.  1.
          6    2    1    2  502    0  0.59221680051E+02  0.13204212105E+02 -0.11269474584E+03  0.21351242985E+03  0.17089731816E+03 0.  0.
         24    2    3    3    0    0 -0.61314543559E+01 -0.25301839891E+01 -0.12169121095E+03  0.14552986016E+03  0.79537367390E+02 0.  0.
         -6    2    1    2    0  501 -0.59221680051E+02 -0.13204212105E+02  0.66029567441E+03  0.68494563561E+03  0.17169329484E+03 0.  0.
        -24    2    5    5    0    0 -0.85335613515E+02  0.25070580703E+02  0.34761315257E+03  0.36881378535E+03  0.85311215410E+02 0.  0.
          5    1    3    3  502    0  0.65353134407E+02  0.15734396094E+02  0.89964651074E+01  0.67982569690E+02  0.47000000000E+01 0. -1.
        -13    1    4    4    0    0  0.14387827578E+02 -0.24512825732E+02 -0.10430159587E+02  0.30276664889E+02  0.00000000000E+00 0.  1.
         14    1    4    4    0    0 -0.20519281933E+02  0.21982641743E+02 -0.11126105136E+03  0.11525319527E+03  0.00000000000E+00 0. -1.
         -5    1    5    5    0  501  0.26113933463E+02 -0.38274792808E+02  0.31268252184E+03  0.31613185026E+03  0.47000000000E+01 0.  1.
         13    1    6    6    0    0 -0.30915376716E+02  0.50098797856E+02  0.12317802899E+03  0.13652280722E+03  0.00000000000E+00 0. -1.
        -14    1    6    6    0    0 -0.54420236798E+02 -0.25028217152E+02  0.22443512358E+03  0.23229097814E+03  0.00000000000E+00 0.  1.
</event>
<event>
12    1  0.2609167E-002  0.1908244E+03  0.7818608E-02  0.1157720E+00
         -1   -1    0    0    0  501 -0.00000000000E+00  0.00000000000E+00  0.19019857451E+03  0.19019857451E+03  0.00000000000E+00 0.  1.
          1   -1    0    0  502    0  0.00000000000E+00 -0.00000000000E+00 -0.20892759215E+03  0.20892759215E+03  0.00000000000E+00 0. -1.
          6    2    1    2  502    0 -0.76379480230E+02  0.32934703761E+02  0.48346625363E+02  0.19695088646E+03  0.17185382097E+03 0.  0.
         24    2    3    3    0    0 -0.10924680509E+03  0.23868996701E+02  0.72633687868E+02  0.15482726491E+03  0.78684407099E+02 0.  0.
         -6    2    1    2    0  501  0.76379480230E+02 -0.32934703761E+02 -0.67075643002E+02  0.20217528019E+03  0.17163094804E+03 0.  0.
        -24    2    5    5    0    0  0.17642911354E+02 -0.68600725671E+02  0.17889506109E-01  0.10602081203E+03  0.78886503160E+02 0.  0.
          5    1    3    3  502    0  0.32867324856E+02  0.90657070598E+01 -0.24287062504E+02  0.42123621554E+02  0.47000000000E+01 0. -1.
        -13    1    4    4    0    0 -0.35004387856E+02  0.36335739987E+02  0.60164403776E+02  0.78519734152E+02  0.00000000000E+00 0.  1.
         14    1    4    4    0    0 -0.74242417231E+02 -0.12466743285E+02  0.12469284092E+02  0.76307530756E+02  0.00000000000E+00 0. -1.
         -5    1    5    5    0  501  0.58736568876E+02  0.35666021910E+02 -0.67093532508E+02  0.96154468157E+02  0.47000000000E+01 0.  1.
         11    1    6    6    0    0  0.73909936485E+01 -0.71717598171E+02 -0.26975301322E+02  0.76978617525E+02  0.00000000000E+00 0. -1.
        -12    1    6    6    0    0  0.10251917706E+02  0.31168725007E+01  0.26993190829E+02  0.29042194510E+02  0.00000000000E+00 0.  1.
</event>
<event>
12    1  0.2609167E-002  0.3185814E+03  0.7818608E-02  0.1076304E+00
          2   -1    0    0  502    0  0.00000000000E+00  0.00000000000E+00  0.28470040347E+04  0.28470040347E+04  0.00000000000E+00 0.  1.
         -2   -1    0    0    0  501 -0.00000000000E+00 -0.00000000000E+00 -0.40417707755E+02  0.40417707755E+02  0.00000000000E+00 0. -1.
          6    2    1    2  502    0 -0.15473572077E+03 -0.21798973652E+03  0.90834368494E+03  0.96267052433E+03  0.17373433725E+03 0.  0.
         24    2    3    3    0    0 -0.54874455334E+02 -0.18943643023E+03  0.66336851781E+03  0.69654557972E+03  0.78870699621E+02 0.  0.
         -6    2    1    2    0  501  0.15473572077E+03  0.21798973652E+03  0.18982426420E+04  0.19247512182E+04  0.17285674773E+03 0.  0.
        -24    2    5    5    0    0  0.86533033601E+02  0.13148576089E+03  0.71294497007E+03  0.73433649820E+03  0.78632633221E+02 0.  0.
          5    1    3    3  502    0 -0.99861265436E+02 -0.28553306282E+02  0.24497516713E+03  0.26612494461E+03  0.47000000000E+01 0. -1.
        -13    1    4    4    0    0 -0.22511343992E+02 -0.22448811443E+02  0.20858860195E+03  0.21099742797E+03  0.00000000000E+00 0.  1.
         14    1    4    4    0    0 -0.32363111342E+02 -0.16698761879E+03  0.45477991586E+03  0.48554815176E+03  0.00000000000E+00 0. -1.
         -5    1    5    5    0  501  0.68202687169E+02  0.86503975628E+02  0.11852976720E+04  0.11904147200E+04  0.47000000000E+01 0.  1.
         11    1    6    6    0    0 -0.51594881178E+00  0.66987089977E+02  0.30302386624E+03  0.31034013588E+03  0.00000000000E+00 0. -1.
        -12    1    6    6    0    0  0.87048982413E+02  0.64498670912E+02  0.40992110384E+03  0.42399636232E+03  0.00000000000E+00 0.  1.
</event>
<event>
12    1  0.2609167E-002  0.2006947E+03  0.7818608E-02  0.1149154E+00
         -1   -1    0    0    0  501 -0.00000000000E+00  0.00000000000E+00  0.79761969717E+02  0.79761969717E+02  0.00000000000E+00 0.  1.
          1   -1    0    0  502    0  0.00000000000E+00 -0.00000000000E+00 -0.83382272440E+03  0.83382272440E+03  0.00000000000E+00 0. -1.
          6    2    1    2  502    0  0.87750228154E+02 -0.55753894153E+02 -0.66432708499E+03  0.69409110063E+03  0.17211444120E+03 0.  0.
         24    2    3    3    0    0 -0.38820074954E+01 -0.61160727884E+02 -0.45307244383E+03  0.46370812845E+03  0.77426638896E+02 0.  0.
         -6    2    1    2    0  501 -0.87750228154E+02  0.55753894153E+02 -0.89733669687E+02  0.21949359348E+03  0.17122122196E+03 0.  0.
        -24    2    5    5    0    0 -0.73514696612E+02 -0.14165665038E+02 -0.99563762713E+02  0.14731246129E+03  0.78631683955E+02 0.  0.
          5    1    3    3  502    0  0.91632235649E+02  0.54068337302E+01 -0.21125464116E+03  0.23038297218E+03  0.47000000000E+01 0. -1.
        -13    1    4    4    0    0  0.74523388847E+01  0.44283965214E+01 -0.36874513232E+01  0.94204749277E+01  0.00000000000E+00 0.  1.
         14    1    4    4    0    0 -0.11334346380E+02 -0.65589124405E+02 -0.44938499251E+03  0.45428765352E+03  0.00000000000E+00 0. -1.
         -5    1    5    5    0  501 -0.14235531543E+02  0.69919559191E+02  0.98300930258E+01  0.72181132193E+02  0.47000000000E+01 0.  1.
         13    1    6    6    0    0 -0.27171169941E+02 -0.42656978570E+02 -0.66873770476E+02  0.83845044424E+02  0.00000000000E+00 0. -1.
        -14    1    6    6    0    0 -0.46343526671E+02  0.28491313532E+02 -0.32689992237E+02  0.63467416865E+02  0.00000000000E+00 0.  1.
</event>
<event>
12    1  0.2609167E-002  0.2471383E+03  0.7818608E-02  0.1115127E+00
         -2   -1    0    0    0  501 -0.00000000000E+00  0.00000000000E+00  0.57205272493E+02  0.57205272493E+02  0.00000000000E+00 0.  1.
          2   -1    0    0  502    0  0.00000000000E+00 -0.00000000000E+00 -0.14706170336E+04  0.14706170336E+04  0.00000000000E+00 0. -1.
          6    2    1    2  502    0 -0.13300027786E+03 -0.11968259135E+03 -0.11092093969E+04  0.11366881217E+04  0.17234095109E+03 0.  0.
         24    2    3    3    0    0 -0.13279236257E+03 -0.12045322972E+03 -0.68134658828E+03  0.70879875510E+03  0.77586788577E+02 0.  0.
         -6    2    1    2    0  501  0.13300027786E+03  0.11968259135E+03 -0.30420236428E+03  0.39113418439E+03  0.16862347163E+03 0.  0.
        -24    2    5    5    0    0  0.12799686872E+03  0.14658047192E+03 -0.29330001889E+03  0.36131001269E+03  0.81553608367E+02 0.  0.
          5    1    3    3  502    0 -0.20791529592E+00  0.77063837849E+00 -0.42786280857E+03  0.42788936663E+03  0.47000000000E+01 0. -1.
        -11    1    4    4    0    0 -0.33014685976E+02 -0.64012803199E+02 -0.16764930534E+03  0.18246615589E+03  0.00000000000E+00 0.  1.
         12    1    4    4    0    0 -0.99777676592E+02 -0.56440426526E+02 -0.51369728294E+03  0.52633259921E+03  0.00000000000E+00 0. -1.
         -5    1    5    5    0  501  0.50034091408E+01 -0.26897880578E+02 -0.10902345388E+02  0.29824171700E+02  0.47000000000E+01 0.  1.
         11    1    6    6    0    0  0.27041600113E+01  0.46012354065E+01 -0.62698844575E+02  0.62925582712E+02  0.00000000000E+00 0. -1.
        -12    1    6    6    0    0  0.12529270871E+03  0.14197923652E+03 -0.23060117431E+03  0.29838442998E+03  0.00000000000E+00 0.  1.
</event>
<event>
12    1  0.2609167E-002  0.2359015E+03  0.7818608E-02  0.1122554E+00
          1   -1    0    0  502    0  0.00000000000E+00  0.00000000000E+00  0.57259159061E+02  0.57259159061E+02  0.00000000000E+00 0.  1.
         -1   -1    0    0    0  501 -0.00000000000E+00 -0.00000000000E+00 -0.97677347897E+03  0.97677347897E+03  0.00000000000E+00 0. -1.
          6    2    1    2  502    0 -0.51892402003E+02  0.15216901042E+03 -0.42156573728E+03  0.48265972398E+03  0.17144826970E+03 0.  0.
         24    2    3    3    0    0 -0.68947824561E+02  0.12010028806E+03 -0.41581525585E+03  0.44558616967E+03  0.80416577239E+02 0.  0.
         -6    2    1    2    0  501  0.51892402003E+02 -0.15216901042E+03 -0.49794858263E+03  0.55137291406E+03  0.17381332024E+03 0.  0.
        -24    2    5    5    0    0  0.98224536272E+02 -0.10553193719E+03 -0.40988400806E+03  0.44137681158E+03  0.77611471095E+02 0.  0.
          5    1    3    3  502    0  0.17055422558E+02  0.32068722361E+02 -0.57504814276E+01  0.37073554309E+02  0.47000000000E+01 0. -1.
        -13    1    4    4    0    0 -0.37931120885E+02  0.83336562043E+02 -0.15220488730E+03  0.17762342250E+03  0.00000000000E+00 0.  1.
         14    1    4    4    0    0 -0.31016703676E+02  0.36763726020E+02 -0.26361036856E+03  0.26796274716E+03  0.00000000000E+00 0. -1.
         -5    1    5    5    0  501 -0.46332134269E+02 -0.46637073229E+02 -0.88064574575E+02  0.10999610248E+03  0.47000000000E+01 0.  1.
         13    1    6    6    0    0  0.12166645211E+02 -0.13787731923E+02 -0.16551113292E+03  0.16652946865E+03  0.00000000000E+00 0. -1.
        -14    1    6    6    0    0  0.86057891060E+02 -0.91744205271E+02 -0.24437287514E+03  0.27484734293E+03  0.00000000000E+00 0.  1.
</event>
<event>
12    1  0.2609167E-002  0.2495009E+03  0.7818608E-02  0.1113621E+00
          2   -1    0    0  502    0  0.00000000000E+00  0.00000000000E+00  0.68009263627E+03  0.68009263627E+03  0.00000000000E+00 0. -1.
         -2   -1    0    0    0  501 -0.00000000000E+00 -0.00000000000E+00 -0.97619727914E+02  0.97619727914E+02  0.00000000000E+00 0.  1.
          6    2    1    2  502    0 -0.12506767669E+03  0.13253214250E+03  0.38779890130E+03  0.46086344148E+03  0.16970689819E+03 0.  0.
         24    2    3    3    0    0 -0.38964477509E+02 -0.80919298648E+00  0.12390434161E+03  0.15287626432E+03  0.80622459790E+02 0.  0.
         -6    2    1    2    0  501  0.12506767669E+03 -0.13253214250E+03  0.19467400705E+03  0.31684892270E+03  0.17113906114E+03 0.  0.
        -24    2    5    5    0    0  0.14342466409E+03 -0.10599497895E+03  0.10501292986E+03  0.22144243027E+03  0.78762076236E+02 0.  0.
          5    1    3    3  502    0 -0.86103199181E+02  0.13334133549E+03  0.26389455969E+03  0.30798717716E+03  0.47000000000E+01 0. -1.
        -11    1    4    4    0    0 -0.56913507451E+02  0.37552558091E+00  0.46752438421E+02  0.73655134567E+02  0.00000000000E+00 0.  1.
         12    1    4    4    0    0  0.17949029942E+02 -0.11847185674E+01  0.77151903192E+02  0.79221129758E+02  0.00000000000E+00 0. -1.
         -5    1    5    5    0  501 -0.18356987397E+02 -0.26537163548E+02  0.89661077190E+02  0.95406492433E+02  0.47000000000E+01 0.  1.
         13    1    6    6    0    0  0.78111064979E+01 -0.43745381485E+02  0.13695817074E+02  0.46499969800E+02  0.00000000000E+00 0. -1.
        -14    1    6    6    0    0  0.13561355759E+03 -0.62249597469E+02  0.91317112789E+02  0.17494246047E+03  0.00000000000E+00 0.  1.
</event>
<event>
12    1  0.2609167E-002  0.1931988E+03  0.7818608E-02  0.1155607E+00
         -1   -1    0    0    0  501 -0.00000000000E+00  0.00000000000E+00  0.29228420133E+02  0.29228420133E+02  0.00000000000E+00 0.  1.
          1   -1    0    0  502    0  0.00000000000E+00 -0.00000000000E+00 -0.12816178409E+04  0.12816178409E+04  0.00000000000E+00 0. -1.
          6    2    1    2  502    0  0.73858632737E+02  0.52212806360E+02 -0.59233482774E+03  0.62352723554E+03  0.17246562132E+03 0.  0.
         24    2    3    3    0    0 -0.29587090452E+02  0.43270501021E+02 -0.31144287101E+03  0.32402203722E+03  0.72428492456E+02 0.  0.
         -6    2    1    2    0  501 -0.73858632737E+02 -0.52212806360E+02 -0.66005459307E+03  0.68731902553E+03  0.16897959120E+03 0.  0.
        -24    2    5    5    0    0 -0.31278478670E+02 -0.96218806695E+02 -0.48581603192E+03  0.50257389359E+03  0.79541810709E+02 0.  0.
          5    1    3    3  502    0  0.10344572319E+03  0.89423053390E+01 -0.28089195673E+03  0.29950519833E+03  0.47000000000E+01 0. -1.
        -11    1    4    4    0    0 -0.29374355089E+01  0.17482948644E+01  0.37017227864E+01  0.50386321447E+01  0.00000000000E+00 0.  1.
         12    1    4    4    0    0 -0.26649654943E+02  0.41522206157E+02 -0.31514459379E+03  0.31898340507E+03  0.00000000000E+00 0. -1.
         -5    1    5    5    0  501 -0.42580154067E+02  0.44006000335E+02 -0.17423856115E+03  0.18474513194E+03  0.47000000000E+01 0.  1.
         11    1    6    6    0    0 -0.41403293278E+02 -0.14347432469E+02 -0.21718629007E+03  0.22156255574E+03  0.00000000000E+00 0. -1.
        -12    1    6    6    0    0  0.10124814608E+02 -0.81871374226E+02 -0.26862974185E+03  0.28101133784E+03  0.00000000000E+00 0.  1.
</event>
<event>
12    1  0.2609167E-002  0.1746384E+03  0.7818608E-02  0.1173095E+00
          2   -1    0    0  502    0  0.00000000000E+00  0.00000000000E+00  0.27135592342E+03  0.27135592342E+03  0.00000000000E+00 0.  1.
         -2   -1    0    0    0  501 -0.00000000000E+00 -0.00000000000E+00 -0.37214814477E+03  0.37214814477E+03  0.00000000000E+00 0. -1.
          6    2    1    2  502    0 -0.24497877284E+02  0.80883059255E+01  0.21820381683E+03  0.28088884942E+03  0.17498592333E+03 0.  0.
         24    2    3    3    0    0 -0.63617590416E+02 -0.20516588380E+02  0.75997825288E+02  0.13057841743E+03  0.82504093484E+02 0.  0.
         -6    2    1    2    0  501  0.24497877284E+02 -0.80883059255E+01 -0.31899603818E+03  0.36261521877E+03  0.17048682595E+03 0.  0.
        -24    2    5    5    0    0 -0.20434759183E+02  0.11474664743E+02 -0.29650924696E+03  0.30849131073E+03  0.81852965456E+02 0.  0.
          5    1    3    3  502    0  0.39119713132E+02  0.28604894306E+02  0.14220599154E+03  0.15031043199E+03  0.47000000000E+01 0. -1.
        -11    1    4    4    0    0 -0.39615860909E+02  0.27840102788E+02  0.53316126442E+02  0.72021504411E+02  0.00000000000E+00 0.  1.
         12    1    4    4    0    0 -0.24001729507E+02 -0.48356691168E+02  0.22681698846E+02  0.58556913022E+02  0.00000000000E+00 0. -1.
         -5    1    5    5    0  501  0.44932636467E+02 -0.19562970669E+02 -0.22486791221E+02  0.54123908032E+02  0.47000000000E+01 0.  1.
         13    1    6    6    0    0  0.30518982599E+02  0.23468531658E+01 -0.74827330060E+02  0.80845812152E+02  0.00000000000E+00 0. -1.
        -14    1    6    6    0    0 -0.50953741782E+02  0.91278115776E+01 -0.22168191690E+03  0.22764549858E+03  0.00000000000E+00 0.  1.
</event>
<event>
12    1  0.2609167E-002  0.3200317E+03  0.7818608E-02  0.1075635E+00
         -1   -1    0    0    0  501 -0.00000000000E+00  0.00000000000E+00  0.97884342179E+02  0.97884342179E+02  0.00000000000E+00 0. -1.
          1   -1    0    0  502    0  0.00000000000E+00 -0.00000000000E+00 -0.11217417330E+04  0.11217417330E+04  0.00000000000E+00 0.  1.
          6    2    1    2  502    0  0.20398787698E+03  0.17334238420E+03 -0.35107563805E+03  0.47379819029E+03  0.17196507019E+03 0.  0.
         24    2    3    3    0    0  0.20404725782E+03  0.16856809468E+03 -0.24985366988E+03  0.37235473704E+03  0.78553853322E+02 0.  0.
         -6    2    1    2    0  501 -0.20398787698E+03 -0.17334238420E+03 -0.67278175279E+03  0.74582788491E+03  0.17878845296E+03 0.  0.
        -24    2    5    5    0    0 -0.13488436476E+03 -0.62770993986E+02 -0.50620270779E+03  0.53423394368E+03  0.83849482147E+02 0.  0.
          5    1    3    3  502    0 -0.59380841986E-01  0.47742895228E+01 -0.10122196817E+03  0.10144345325E+03  0.47000000000E+01 0. -1.
        -11    1    4    4    0    0  0.14861656298E+03  0.13805927940E+03 -0.22856688709E+03  0.30559788824E+03  0.00000000000E+00 0.  1.
         12    1    4    4    0    0  0.55430694842E+02  0.30508815281E+02 -0.21286782797E+02  0.66756848804E+02  0.00000000000E+00 0. -1.
         -5    1    5    5    0  501 -0.69103512220E+02 -0.11057139022E+03 -0.16657904499E+03  0.21159394123E+03  0.47000000000E+01 0.  1.
         13    1    6    6    0    0 -0.47785281096E+02  0.12531626900E+02 -0.93211840700E+02  0.10549370602E+03  0.00000000000E+00 0. -1.
        -14    1    6    6    0    0 -0.87099083666E+02 -0.75302620886E+02 -0.41299086709E+03  0.42874023766E+03  0.00000000000E+00 0.  1.
</event>
<event>
12    1  0.2609167E-002  0.4420023E+03  0.7818608E-02  0.1030134E+00
         -1   -1    0    0    0  501 -0.00000000000E+00  0.00000000000E+00  0.30767882953E+03  0.30767882953E+03  0.00000000000E+00 0.  1.
          1   -1    0    0  502    0  0.00000000000E+00 -0.00000000000E+00 -0.71264357955E+03  0.71264357955E+03  0.00000000000E+00 0. -1.
          6    2    1    2  502    0 -0.24707902420E+03 -0.32360437279E+03 -0.34071827037E+02  0.44335681168E+03  0.17215266124E+03 0.  0.
         24    2    3    3    0    0 -0.10428792576E+03 -0.67620019681E+02  0.49310462953E+01  0.14761942655E+03  0.79490511111E+02 0.  0.
         -6    2    1    2    0  501  0.24707902420E+03  0.32360437279E+03 -0.37089292297E+03  0.57696559741E+03  0.17192994500E+03 0.  0.
        -24    2    5    5    0    0  0.10691536825E+03  0.24826860532E+03 -0.25517458953E+03  0.38015566116E+03  0.79599366921E+02 0.  0.
          5    1    3    3  502    0 -0.14279109844E+03 -0.25598435311E+03 -0.39002873333E+02  0.29573738512E+03  0.47000000000E+01 0. -1.
        -11    1    4    4    0    0 -0.71139577301E+02 -0.82858468584E+02  0.13792634630E+02  0.11007543797E+03  0.00000000000E+00 0.  1.
         12    1    4    4    0    0 -0.33148348463E+02  0.15238448903E+02 -0.88615883343E+01  0.37543988581E+02  0.00000000000E+00 0. -1.
         -5    1    5    5    0  501  0.14016365595E+03  0.75335767473E+02 -0.11571833344E+03  0.19680993625E+03  0.47000000000E+01 0.  1.
         13    1    6    6    0    0  0.75584663268E+02  0.12937280201E+03 -0.91934952559E+02  0.17579078111E+03  0.00000000000E+00 0. -1.
        -14    1    6    6    0    0  0.31330704985E+02  0.11889580331E+03 -0.16323963697E+03  0.20436488005E+03  0.00000000000E+00 0.  1.
</event>
<event>
12    1  0.2609167E-002  0.2687343E+03  0.7818608E-02  0.1102006E+00
         -2   -1    0    0    0  501 -0.00000000000E+00  0.00000000000E+00  0.31236433832E+03  0.31236433832E+03  0.00000000000E+00 0. -1.
          2   -1    0    0  502    0  0.00000000000E+00 -0.00000000000E+00 -0.54084348709E+03  0.54084348709E+03  0.00000000000E+00 0.  1.
          6    2    1    2  502    0  0.13538654925E+03 -0.15605487149E+03 -0.43700233261E+03  0.51293913532E+03  0.17161840578E+03 0.  0.
         24    2    3    3    0    0  0.50058885435E+02 -0.82891485886E+02 -0.34589949626E+03  0.36817896125E+03  0.80823236455E+02 0.  0.
         -6    2    1    2    0  501 -0.13538654925E+03  0.15605487149E+03  0.20852318384E+03  0.34026869008E+03  0.17209945559E+03 0.  0.
        -24    2    5    5    0    0 -0.86854738125E+01  0.75869694431E+02  0.13123172759E+03  0.17151181067E+03  0.79767705780E+02 0.  0.
          5    1    3    3  502    0  0.85327663819E+02 -0.73163385601E+02 -0.91102836348E+02  0.14476017407E+03  0.47000000000E+01 0. -1.
        -11    1    4    4    0    0 -0.52050620134E+00 -0.99213268638E+01 -0.17775996132E+03  0.17803737670E+03  0.00000000000E+00 0.  1.
         12    1    4    4    0    0  0.50579391637E+02 -0.72970159022E+02 -0.16813953495E+03  0.19014158456E+03  0.00000000000E+00 0. -1.
         -5    1    5    5    0  501 -0.12670107544E+03  0.80185177055E+02  0.77291456254E+02  0.16875687941E+03  0.47000000000E+01 0.  1.
         13    1    6    6    0    0 -0.12186408979E+02  0.47501940186E+02  0.14220940735E+02  0.51060533102E+02  0.00000000000E+00 0. -1.
        -14    1    6    6    0    0  0.35009351665E+01  0.28367754245E+02  0.11701078685E+03  0.12045127757E+03  0.00000000000E+00 0.  1.
</event>
<event>
12    1  0.2609167E-002  0.2155628E+03  0.7818608E-02  0.1137235E+00
         -2   -1    0    0    0  501 -0.00000000000E+00  0.00000000000E+00  0.49051462023E+02  0.49051462023E+02  0.00000000000E+00 0.  1.
          2   -1    0    0  502    0  0.00000000000E+00 -0.00000000000E+00 -0.96683308846E+03  0.96683308846E+03  0.00000000000E+00 0. -1.
          6    2    1    2  502    0 -0.76784659902E+02  0.10573900966E+03 -0.38540104413E+03  0.44127668550E+03  0.17062979280E+03 0.  0.
         24    2    3    3    0    0 -0.53157076185E+02  0.25857299463E+02 -0.87534533283E+02  0.13194531202E+03  0.79075888632E+02 0.  0.
         -6    2    1    2    0  501  0.76784659902E+02 -0.10573900966E+03 -0.53238058231E+03  0.57460786498E+03  0.17224544092E+03 0.  0.
        -24    2    5    5    0    0 -0.70104677093E+01 -0.64152658807E+00 -0.20005289413E+03  0.21609581959E+03  0.81404450620E+02 0.  0.
          5    1    3    3  502    0 -0.23627583717E+02  0.79881710201E+02 -0.29786651084E+03  0.30933137348E+03  0.47000000000E+01 0. -1.
        -11    1    4    4    0    0 -0.57428469351E+02  0.20524586066E+02 -0.10034651580E+03  0.11742534206E+03  0.00000000000E+00 0.  1.
         12    1    4    4    0    0  0.42713931662E+01  0.53327133970E+01  0.12811982513E+02  0.14519969961E+02  0.00000000000E+00 0. -1.
         -5    1    5    5    0  501  0.83795127611E+02 -0.10509748308E+03 -0.33232768818E+03  0.35851204539E+03  0.47000000000E+01 0.  1.
         11    1    6    6    0    0 -0.22756250100E+02 -0.27112457587E+02 -0.41347171802E+02  0.54429044554E+02  0.00000000000E+00 0. -1.
        -12    1    6    6    0    0  0.15745782391E+02  0.26470930999E+02 -0.15870572232E+03  0.16166677503E+03  0.00000000000E+00 0.  1.
</event>
<event>
12    1  0.2609167E-002  0.2196533E+03  0.7818608E-02  0.1134142E+00
         -1   -1    0    0    0  501 -0.00000000000E+00  0.00000000000E+00  0.39863278678E+03  0.39863278678E+03  0.00000000000E+00 0. -1.
          1   -1    0    0  502    0  0.00000000000E+00 -0.00000000000E+00 -0.17157649747E+03  0.17157649747E+03  0.00000000000E+00 0.  1.
          6    2    1    2  502    0  0.66743799955E+02 -0.12093667571E+03 -0.41451468340E+02  0.22288647523E+03  0.16994040793E+03 0.  0.
         24    2    3    3    0    0 -0.26014319554E+02 -0.79633164170E+02 -0.30217576477E+02  0.12062045386E+03  0.81351129701E+02 0.  0.
         -6    2    1    2    0  501 -0.66743799955E+02  0.12093667571E+03  0.26850775765E+03  0.34732280902E+03  0.17162838746E+03 0.  0.
        -24    2    5    5    0    0 -0.97969435970E+02  0.13851856378E+03  0.21612410772E+03  0.28368084242E+03  0.70567609576E+02 0.  0.
          5    1    3    3  502    0  0.92758119509E+02 -0.41303511541E+02 -0.11233891863E+02  0.10226602137E+03  0.47000000000E+01 0. -1.
        -13    1    4    4    0    0 -0.31599930792E+02 -0.46160196975E+02  0.20515598526E+02  0.59583631927E+02  0.00000000000E+00 0.  1.
         14    1    4    4    0    0  0.55856112383E+01 -0.33472967195E+02 -0.50733175003E+02  0.61036821933E+02  0.00000000000E+00 0. -1.
         -5    1    5    5    0  501  0.31225636015E+02 -0.17581888072E+02  0.52383649929E+02  0.63641966599E+02  0.47000000000E+01 0.  1.
         11    1    6    6    0    0 -0.10924452865E+03  0.12216890662E+03  0.19330996091E+03  0.25343312682E+03  0.00000000000E+00 0. -1.
        -12    1    6    6    0    0  0.11275092676E+02  0.16349657162E+02  0.22814146809E+02  0.30247715596E+02  0.00000000000E+00 0.  1.
</event>
<event>
12    1  0.2609167E-002  0.3697954E+03  0.7818608E-02  0.1054771E+00
         -2   -1    0    0    0  501 -0.00000000000E+00  0.00000000000E+00  0.56162600710E+02  0.56162600710E+02  0.00000000000E+00 0.  1.
          2   -1    0    0  502    0  0.00000000000E+00 -0.00000000000E+00 -0.27138640790E+04  0.27138640790E+04  0.00000000000E+00 0. -1.
          6    2    1    2  502    0 -0.18800632848E+03 -0.26812376347E+03 -0.88487690995E+03  0.95905122669E+03  0.17185859758E+03 0.  0.
         24    2    3    3    0    0 -0.18501328249E+03 -0.20875875950E+03 -0.58037050867E+03  0.64876200606E+03  0.79070087907E+02 0.  0.
         -6    2    1    2    0  501  0.18800632848E+03  0.26812376347E+03 -0.17728245683E+04  0.18109754530E+04  0.17172189508E+03 0.  0.
        -24    2    5    5    0    0  0.12276181330E+03  0.20230692414E+03 -0.93905398396E+03  0.97205699425E+03  0.84106247743E+02 0.  0.
          5    1    3    3  502    0 -0.29930459968E+01 -0.59365003967E+02 -0.30450640128E+03  0.31028922063E+03  0.47000000000E+01 0. -1.
        -13    1    4    4    0    0 -0.17029312343E+03 -0.19053108864E+03 -0.56666192455E+03  0.62161690803E+03  0.00000000000E+00 0.  1.
         14    1    4    4    0    0 -0.14720159060E+02 -0.18227670864E+02 -0.13708584124E+02  0.27145098021E+02  0.00000000000E+00 0. -1.
         -5    1    5    5    0  501  0.65244515183E+02  0.65816839332E+02 -0.83377058435E+03  0.83891845875E+03  0.47000000000E+01 0.  1.
         13    1    6    6    0    0  0.10952299884E+03  0.16841725857E+03 -0.88043537739E+03  0.90306484486E+03  0.00000000000E+00 0. -1.
        -14    1    6    6    0    0  0.13238814457E+02  0.33889665570E+02 -0.58618606568E+02  0.68992149384E+02  0.00000000000E+00 0.  1.
</event>
<event>
12    1  0.2609167E-002  0.1728527E+03  0.7818608E-02  0.1174905E+00
          1   -1    0    0  502    0  0.00000000000E+00  0.00000000000E+00  0.23254284961E+03  0.23254284961E+03  0.00000000000E+00 0. -1.
         -1   -1    0    0    0  501 -0.00000000000E+00 -0.00000000000E+00 -0.12886383289E+03  0.12886383289E+03  0.00000000000E+00 0.  1.
          6    2    1    2  502    0 -0.25458747933E+01  0.78621197778E+01  0.61990994407E+02  0.18521350911E+03  0.17433549887E+03 0.  0.
         24    2    3    3    0    0  0.53486163580E+01  0.53222033476E+02 -0.14071429772E+02  0.96177408945E+02  0.78682249023E+02 0.  0.
         -6    2    1    2    0  501  0.25458747933E+01 -0.78621197778E+01  0.41688022309E+02  0.17619317338E+03  0.17099078553E+03 0.  0.
        -24    2    5    5    0    0  0.56552546468E+02  0.12986135309E+02  0.59078708579E+02  0.11556400306E+03  0.80609644417E+02 0.  0.
          5    1    3    3  502    0 -0.78944911513E+01 -0.45359913698E+02  0.76062424179E+02  0.89036100169E+02  0.47000000000E+01 0. -1.
        -13    1    4    4    0    0  0.77258030057E+01 -0.18442346313E+02  0.74114222155E+01  0.21324571481E+02  0.00000000000E+00 0.  1.
         14    1    4    4    0    0 -0.23771866477E+01  0.71664379789E+02 -0.21482851988E+02  0.74852837464E+02  0.00000000000E+00 0. -1.
         -5    1    5    5    0  501 -0.54006671674E+02 -0.20848255087E+02 -0.17390686270E+02  0.60629170326E+02  0.47000000000E+01 0.  1.
         13    1    6    6    0    0 -0.49659625828E+01  0.30198329575E+02  0.36906219615E+02  0.47944435962E+02  0.00000000000E+00 0. -1.
        -14    1    6    6    0    0  0.61518509050E+02 -0.17212194266E+02  0.22172488964E+02  0.67619567095E+02  0.00000000000E+00 0.  1.
</event>
<event>
12    1  0.2609167E-002  0.1787612E+03  0.7818608E-02  0.1169007E+00
         -3   -1    0    0    0  501 -0.00000000000E+00  0.00000000000E+00  0.17344254196E+04  0.17344254196E+04  0.00000000000E+00 0. -1.
          3   -1    0    0  502    0  0.00000000000E+00 -0.00000000000E+00 -0.19921317521E+02  0.19921317521E+02  0.00000000000E+00 0.  1.
          6    2    1    2  502    0 -0.38089714671E+02 -0.37466345416E+02  0.63163138007E+03  0.65733465142E+03  0.17400025938E+03 0.  0.
         24    2    3    3    0    0  0.28525454853E+02 -0.26030498590E+02  0.17704466427E+03  0.19772663193E+03  0.79118388469E+02 0.  0.
         -6    2    1    2    0  501  0.38089714671E+02  0.37466345416E+02  0.10828727220E+04  0.10970120857E+04  0.16723525556E+03 0.  0.
        -24    2    5    5    0    0 -0.26988973434E+02  0.12026834620E+02  0.84059471070E+03  0.84481547764E+03  0.78997937726E+02 0.  0.
          5    1    3    3  502    0 -0.66615169524E+02 -0.11435846826E+02  0.45458671580E+03  0.45960801949E+03  0.47000000000E+01 0. -1.
        -11    1    4    4    0    0 -0.19623632353E+02  0.12175753031E+02  0.76234378021E+02  0.79655610605E+02  0.00000000000E+00 0.  1.
         12    1    4    4    0    0  0.48149087206E+02 -0.38206251621E+02  0.10081028625E+03  0.11807102132E+03  0.00000000000E+00 0. -1.
         -5    1    5    5    0  501  0.65078688105E+02  0.25439510796E+02  0.24227801134E+03  0.25219660810E+03  0.47000000000E+01 0.  1.
         13    1    6    6    0    0  0.27416369270E+02 -0.22277571418E+01  0.32518026180E+03  0.32634157392E+03  0.00000000000E+00 0. -1.
        -14    1    6    6    0    0 -0.54405342704E+02  0.14254591761E+02  0.51541444890E+03  0.51847390372E+03  0.00000000000E+00 0.  1.
</event>
<event>
12    1  0.2609167E-002  0.2145722E+03  0.7818608E-02  0.1137996E+00
          2   -1    0    0  502    0  0.00000000000E+00  0.00000000000E+00  0.12947486742E+04  0.12947486742E+04  0.00000000000E+00 0.  1.
         -2   -1    0    0    0  501 -0.00000000000E+00 -0.00000000000E+00 -0.38863248443E+02  0.38863248443E+02  0.00000000000E+00 0. -1.
          6    2    1    2  502    0  0.60156891770E+02 -0.11546470048E+03  0.82356273517E+03  0.85117160999E+03  0.17113322942E+03 0.  0.
         24    2    3    3    0    0  0.83006488934E+02 -0.13172808327E+03  0.77704921025E+03  0.79665372567E+03  0.81297714303E+02 0.  0.
         -6    2    1    2    0  501 -0.60156891770E+02  0.11546470048E+03  0.43232269056E+03  0.48244031262E+03  0.16998469869E+03 0.  0.
        -24    2    5    5    0    0 -0.33247289580E+02  0.13805092776E+03  0.25862651108E+03  0.30516449047E+03  0.77937494781E+02 0.  0.
          5    1    3    3  502    0 -0.22849597164E+02  0.16263382788E+02  0.46513524925E+02  0.54517884324E+02  0.47000000000E+01 0. -1.
        -13    1    4    4    0    0  0.26109791874E+02 -0.11086516078E+03  0.46233935040E+03  0.47616224129E+03  0.00000000000E+00 0.  1.
         14    1    4    4    0    0  0.56896697060E+02 -0.20862922480E+02  0.31470985985E+03  0.32049148438E+03  0.00000000000E+00 0. -1.
         -5    1    5    5    0  501 -0.26909602190E+02 -0.22586227283E+02  0.17369617948E+03  0.17727582215E+03  0.47000000000E+01 0.  1.
         11    1    6    6    0    0 -0.50379360436E+01  0.81528352041E+02  0.21036647370E+03  0.22566857610E+03  0.00000000000E+00 0. -1.
        -12    1    6    6    0    0 -0.28209353536E+02  0.56522575719E+02  0.48260037381E+02  0.79495914366E+02  0.00000000000E+00 0.  1.
</event>
<event>
12    1  0.2609167E-002  0.1842107E+03  0.7818608E-02  0.1163789E+00
         -1   -1    0    0    0  501 -0.00000000000E+00  0.00000000000E+00  0.13490074798E+03  0.13490074798E+03  0.00000000000E+00 0.  1.
          1   -1    0    0  502    0  0.00000000000E+00 -0.00000000000E+00 -0.26258932029E+03  0.26258932029E+03  0.00000000000E+00 0. -1.
          6    2    1    2  502    0  0.65869343290E+02 -0.18183114452E+02 -0.24126708100E+02  0.18858272327E+03  0.17410327232E+03 0.  0.
         24    2    3    3    0    0  0.59937240443E+02 -0.73752879066E+02 -0.36358299150E+02  0.13118158736E+03  0.82793254455E+02 0.  0.
         -6    2    1    2    0  501 -0.65869343290E+02  0.18183114452E+02 -0.10356186421E+03  0.20890734500E+03  0.16807088695E+03 0.  0.
        -24    2    5    5    0    0  0.17662535639E+02  0.20082689880E+02 -0.91726935293E+02  0.12438907049E+03  0.79646284291E+02 0.  0.
          5    1    3    3  502    0  0.59321028462E+01  0.55569764614E+02  0.12231591050E+02  0.57401135904E+02  0.47000000000E+01 0. -1.
        -13    1    4    4    0    0 -0.17634400705E+01  0.10751613797E+02  0.11745745220E+02  0.16020906682E+02  0.00000000000E+00 0.  1.
         14    1    4    4    0    0  0.61700680514E+02 -0.84504492863E+02 -0.48104044370E+02  0.11516068068E+03  0.00000000000E+00 0. -1.
         -5    1    5    5    0  501 -0.83531878928E+02 -0.18995754280E+01 -0.11834928917E+02  0.84518274512E+02  0.47000000000E+01 0.  1.
         13    1    6    6    0    0  0.43660971914E+02 -0.64860075634E+01 -0.33946924072E+02  0.55684310326E+02  0.00000000000E+00 0. -1.
        -14    1    6    6    0    0 -0.25998436275E+02  0.26568697443E+02 -0.57780011221E+02  0.68704760165E+02  0.00000000000E+00 0.  1.
</event>
<event>
12    1  0.2609167E-002  0.3092301E+03  0.7818608E-02  0.1080715E+00
         -2   -1    0    0    0  501 -0.00000000000E+00  0.00000000000E+00  0.22173102685E+03  0.22173102685E+03  0.00000000000E+00 0.  1.
          2   -1    0    0  502    0  0.00000000000E+00 -0.00000000000E+00 -0.14458786310E+04  0.14458786310E+04  0.00000000000E+00 0. -1.
          6    2    1    2  502    0 -0.24981901940E+03 -0.56379321993E+02 -0.13105701727E+04  0.13465662462E+04  0.17337331791E+03 0.  0.
         24    2    3    3    0    0 -0.23347592810E+03 -0.89946488127E+02 -0.10072460550E+04  0.10409170000E+04  0.79763437486E+02 0.  0.
         -6    2    1    2    0  501  0.24981901940E+03  0.56379321993E+02  0.86422568556E+02  0.32104341166E+03  0.17323926061E+03 0.  0.
        -24    2    5    5    0    0  0.23082564114E+03  0.49830764876E+01  0.37357987901E+02  0.24734303484E+03  0.80483849072E+02 0.  0.
          5    1    3    3  502    0 -0.16343091298E+02  0.33567166134E+02 -0.30332411772E+03  0.30564924614E+03  0.47000000000E+01 0. -1.
        -13    1    4    4    0    0 -0.19236599151E+03 -0.57436164167E+02 -0.89200392795E+03  0.91431646334E+03  0.00000000000E+00 0.  1.
         14    1    4    4    0    0 -0.41109936594E+02 -0.32510323960E+02 -0.11524212702E+03  0.12660053669E+03  0.00000000000E+00 0. -1.
         -5    1    5    5    0  501  0.18993378255E+02  0.51396245505E+02  0.49064580655E+02  0.73700376827E+02  0.47000000000E+01 0.  1.
         11    1    6    6    0    0  0.22306543675E+03  0.17866962050E+02  0.20448161212E+02  0.22471213742E+03  0.00000000000E+00 0. -1.
        -12    1    6    6    0    0  0.77602043945E+01 -0.12883885562E+02  0.16909826689E+02  0.22630897421E+02  0.00000000000E+00 0.  1.
</event>
<event>
12    1  0.2609167E-002  0.2243593E+03  0.7818608E-02  0.1130674E+00
         -2   -1    0    0    0  501 -0.00000000000E+00  0.00000000000E+00  0.12160755830E+03  0.12160755830E+03  0.00000000000E+00 0. -1.
          2   -1    0    0  502    0  0.00000000000E+00 -0.00000000000E+00 -0.52471447727E+03  0.52471447727E+03  0.00000000000E+00 0.  1.
          6    2    1    2  502    0  0.13943719497E+03 -0.35231443534E+02 -0.52949438219E+02  0.23036522985E+03  0.17198985482E+03 0.  0.
         24    2    3    3    0    0  0.36259597920E+02 -0.44066496990E+02 -0.76059594647E+02  0.12415861973E+03  0.79835370090E+02 0.  0.
         -6    2    1    2    0  501 -0.13943719497E+03  0.35231443534E+02 -0.35015748076E+03  0.41595680572E+03  0.17241176568E+03 0.  0.
        -24    2    5    5    0    0 -0.13774216940E+03  0.48695680220E+02 -0.36136228662E+03  0.39774152489E+03  0.79192448710E+02 0.  0.
          5    1    3    3  502    0  0.10317759705E+03  0.88350534565E+01  0.23110156429E+02  0.10620661012E+03  0.47000000000E+01 0. -1.
        -13    1    4    4    0    0 -0.15966024187E+02 -0.37859440191E+02 -0.15413762149E+02  0.43884338932E+02  0.00000000000E+00 0.  1.
         14    1    4    4    0    0  0.52225622107E+02 -0.62070567995E+01 -0.60645832498E+02  0.80274280800E+02  0.00000000000E+00 0. -1.
         -5    1    5    5    0  501 -0.16950255709E+01 -0.13464236686E+02  0.11204805863E+02  0.18215280829E+02  0.47000000000E+01 0.  1.
         11    1    6    6    0    0 -0.40159122448E+02 -0.25220673180E+01 -0.35194797006E+02  0.53458298473E+02  0.00000000000E+00 0. -1.
        -12    1    6    6    0    0 -0.97583046950E+02  0.51217747538E+02 -0.32616748961E+03  0.34428322642E+03  0.00000000000E+00 0.  1.
</event>
<event>
12    1  0.2609167E-002  0.1774450E+03  0.7818608E-02  0.1170299E+00
         -2   -1    0    0    0  501 -0.00000000000E+00  0.00000000000E+00  0.25944586641E+03  0.25944586641E+03  0.00000000000E+00 0. -1.
          2   -1    0    0  502    0  0.00000000000E+00 -0.00000000000E+00 -0.12147540824E+03  0.12147540824E+03  0.00000000000E+00 0.  1.
          6    2    1    2  502    0  0.23142665704E+02  0.39770368362E+02  0.75042475992E+02  0.19331224623E+03  0.17210748434E+03 0.  0.
         24    2    3    3    0    0  0.77114337795E+01  0.29157159565E+02 -0.25966099756E+02  0.90474580497E+02  0.81251493615E+02 0.  0.
         -6    2    1    2    0  501 -0.23142665704E+02 -0.39770368362E+02  0.62927982178E+02  0.18760902842E+03  0.17064568974E+03 0.  0.
        -24    2    5    5    0    0  0.10759384007E+02  0.22335167692E+02  0.77776272322E+02  0.11515898836E+03  0.81226965995E+02 0.  0.
          5    1    3    3  502    0  0.15431231925E+02  0.10613208797E+02  0.10100857575E+03  0.10283766574E+03  0.47000000000E+01 0. -1.
        -11    1    4    4    0    0  0.35839639566E+02  0.20198019879E+02 -0.40360442111E+02  0.57631632448E+02  0.00000000000E+00 0.  1.
         12    1    4    4    0    0 -0.28128205787E+02  0.89591396866E+01  0.14394342355E+02  0.32842948049E+02  0.00000000000E+00 0. -1.
         -5    1    5    5    0  501 -0.33902049711E+02 -0.62105536055E+02 -0.14848290143E+02  0.72450040051E+02  0.47000000000E+01 0.  1.
         13    1    6    6    0    0 -0.27384475670E+02 -0.10844750528E+02  0.48487082331E+02  0.56731959906E+02  0.00000000000E+00 0. -1.
        -14    1    6    6    0    0  0.38143859677E+02  0.33179918220E+02  0.29289189991E+02  0.58427028459E+02  0.00000000000E+00 0.  1.
</event>
<event>
12    1  0.2609167E-002  0.1902196E+03  0.7818608E-02  0.1158263E+00
          1   -1    0    0  502    0  0.00000000000E+00  0.00000000000E+00  0.12201154341E+04  0.12201154341E+04  0.00000000000E+00 0. -1.
         -1   -1    0    0    0  501 -0.00000000000E+00 -0.00000000000E+00 -0.31543592332E+02  0.31543592332E+02  0.00000000000E+00 0.  1.
          6    2    1    2  502    0 -0.61985427876E+02 -0.19854727560E+02  0.42508394780E+03  0.46336245631E+03  0.17254564544E+03 0.  0.
         24    2    3    3    0    0 -0.53227936989E+02 -0.72567762891E+02  0.35752270246E+03  0.37709560513E+03  0.79242155099E+02 0.  0.
         -6    2    1    2    0  501  0.61985427876E+02  0.19854727560E+02  0.76348789394E+03  0.78829657010E+03  0.18509812198E+03 0.  0.
        -24    2    5    5    0    0  0.43552075590E+02 -0.32109659142E+02  0.68853941198E+03  0.69513299937E+03  0.78711825503E+02 0.  0.
          5    1    3    3  502    0 -0.87574908867E+01  0.52713035330E+02  0.67561245343E+02  0.86266851181E+02  0.47000000000E+01 0. -1.
        -13    1    4    4    0    0 -0.63616362646E+02 -0.81546681063E+02  0.33607119304E+03  0.35162586592E+03  0.00000000000E+00 0.  1.
         14    1    4    4    0    0  0.10388425657E+02  0.89789181723E+01  0.21451509420E+02  0.25469739213E+02  0.00000000000E+00 0. -1.
         -5    1    5    5    0  501  0.18433352286E+02  0.51964386703E+02  0.74948481964E+02  0.93163570727E+02  0.47000000000E+01 0.  1.
         11    1    6    6    0    0  0.11388529448E+02  0.17814907140E+02  0.56792651103E+02  0.60600946682E+02  0.00000000000E+00 0. -1.
        -12    1    6    6    0    0  0.32163546142E+02 -0.49924566282E+02  0.63174676087E+03  0.63453205269E+03  0.00000000000E+00 0.  1.
</event>
<event>
12    1  0.2609167E-002  0.1863921E+03  0.7818608E-02  0.1161756E+00
          2   -1    0    0  502    0  0.00000000000E+00  0.00000000000E+00  0.15459828476E+04  0.15459828476E+04  0.00000000000E+00 0.  1.
         -2   -1    0    0    0  501 -0.00000000000E+00 -0.00000000000E+00 -0.89676128085E+02  0.89676128085E+02  0.00000000000E+00 0. -1.
          6    2    1    2  502    0  0.60372341560E+02  0.34127375587E+02  0.14366713201E+04  0.14487831735E+04  0.17360502445E+03 0.  0.
         24    2    3    3    0    0  0.21058569743E+02  0.68637168879E+02  0.54229267974E+03  0.55286367892E+03  0.80139707133E+02 0.  0.
         -6    2    1    2    0  501 -0.60372341560E+02 -0.34127375587E+02  0.19635399369E+02  0.18687580211E+03  0.17241670196E+03 0.  0.
        -24    2    5    5    0    0 -0.99290888713E+02 -0.57798605912E+02  0.13716594801E+02  0.14070110444E+03  0.80058081353E+02 0.  0.
          5    1    3    3  502    0  0.39313771817E+02 -0.34509793292E+02  0.89437864038E+03  0.89591949463E+03  0.47000000000E+01 0. -1.
        -11    1    4    4    0    0  0.44401907380E+02  0.11719404363E+02  0.24656969036E+03  0.25080966094E+03  0.00000000000E+00 0.  1.
         12    1    4    4    0    0 -0.23343337637E+02  0.56917764516E+02  0.29572298938E+03  0.30205401798E+03  0.00000000000E+00 0. -1.
         -5    1    5    5    0  501  0.38918547153E+02  0.23671230325E+02  0.59188045682E+01  0.46174697672E+02  0.47000000000E+01 0.  1.
         13    1    6    6    0    0  0.48918611758E+01 -0.30048333343E+02  0.12414977096E+02  0.32878021515E+02  0.00000000000E+00 0. -1.
        -14    1    6    6    0    0 -0.10418274989E+03 -0.27750272569E+02  0.13016177041E+01  0.10782308292E+03  0.00000000000E+00 0.  1.
</event>
<event>
12    1  0.2609167E-002  0.3527402E+03  0.7818608E-02  0.1061496E+00
         -2   -1    0    0    0  501 -0.00000000000E+00  0.00000000000E+00  0.83542977042E+02  0.83542977042E+02  0.00000000000E+00 0.  1.
          2   -1    0    0  502    0  0.00000000000E+00 -0.00000000000E+00 -0.14952343510E+04  0.14952343510E+04  0.00000000000E+00 0. -1.
          6    2    1    2  502    0  0.30282745240E+03  0.56348900295E+02 -0.75560314889E+03  0.83394363292E+03  0.17218071835E+03 0.  0.
         24    2    3    3    0    0  0.26210301180E+03 -0.10323820955E+02 -0.57550104828E+03  0.63757003880E+03  0.80557605036E+02 0.  0.
         -6    2    1    2    0  501 -0.30282745240E+03 -0.56348900295E+02 -0.65608822503E+03  0.74483369509E+03  0.17159781416E+03 0.  0.
        -24    2    5    5    0    0 -0.10844448301E+03 -0.47314611130E+02 -0.17534006343E+03  0.22617461433E+03  0.80074590245E+02 0.  0.
          5    1    3    3  502    0  0.40724440608E+02  0.66672721250E+02 -0.18010210061E+03  0.19637359412E+03  0.47000000000E+01 0. -1.
        -13    1    4    4    0    0  0.12197659710E+03 -0.31435206026E+02 -0.34168616952E+03  0.36416466174E+03  0.00000000000E+00 0.  1.
         14    1    4    4    0    0  0.14012641470E+03  0.21111385070E+02 -0.23381487876E+03  0.27340537706E+03  0.00000000000E+00 0. -1.
         -5    1    5    5    0  501 -0.19438296940E+03 -0.90342891651E+01 -0.48074816160E+03  0.51865908076E+03  0.47000000000E+01 0.  1.
         11    1    6    6    0    0 -0.94691412304E+02 -0.14709037667E+02 -0.81201528150E+02  0.12560456810E+03  0.00000000000E+00 0. -1.
        -12    1    6    6    0    0 -0.13753070702E+02 -0.32605573463E+02 -0.94138535275E+02  0.10057004623E+03  0.00000000000E+00 0.  1.
</event>
<event>
12    1  0.2609167E-002  0.2216543E+03  0.7818608E-02  0.1132656E+00
         -2   -1    0    0    0  501 -0.00000000000E+00  0.00000000000E+00  0.39909235337E+03  0.39909235337E+03  0.00000000000E+00 0. -1.
          2   -1    0    0  502    0  0.00000000000E+00 -0.00000000000E+00 -0.12417801895E+03  0.12417801895E+03  0.00000000000E+00 0.  1.
          6    2    1    2  502    0 -0.32364729768E+02  0.13274306661E+03  0.16203339525E+03  0.27492175462E+03  0.17509698034E+03 0.  0.
         24    2    3    3    0    0 -0.81686804016E+02  0.81322700651E+02  0.57356279649E+02  0.14820904976E+03  0.73417055407E+02 0.  0.
         -6    2    1    2    0  501  0.32364729768E+02 -0.13274306661E+03  0.11288093917E+03  0.24834861769E+03  0.17397336582E+03 0.  0.
        -24    2    5    5    0    0  0.30783729263E+02 -0.14281777007E+03  0.14062404879E+03  0.21841921169E+03  0.81162032379E+02 0.  0.
          5    1    3    3  502    0  0.49322074248E+02  0.51420365955E+02  0.10467711560E+03  0.12671270486E+03  0.47000000000E+01 0. -1.
        -13    1    4    4    0    0 -0.38717594551E+02  0.38042820598E+02 -0.12269776796E+02  0.55649400262E+02  0.00000000000E+00 0.  1.
         14    1    4    4    0    0 -0.42969209466E+02  0.43279880053E+02  0.69626056445E+02  0.92559649500E+02  0.00000000000E+00 0. -1.
         -5    1    5    5    0  501  0.15810005050E+01  0.10074703463E+02 -0.27743109621E+02  0.29929406006E+02  0.47000000000E+01 0.  1.
         11    1    6    6    0    0  0.22928511904E+02 -0.99768619023E+01  0.54350980187E+02  0.59827113242E+02  0.00000000000E+00 0. -1.
        -12    1    6    6    0    0  0.78552173598E+01 -0.13284090817E+03  0.86273068605E+02  0.15859209844E+03  0.00000000000E+00 0.  1.
</event>
<event>
12    1  0.2609167E-002  0.2353044E+03  0.7818608E-02  0.1122961E+00
          2   -1    0    0  502    0  0.00000000000E+00  0.00000000000E+00  0.24106082407E+04  0.24106082407E+04  0.00000000000E+00 0.  1.
         -2   -1    0    0    0  501 -0.00000000000E+00 -0.00000000000E+00 -0.35180884423E+02  0.35180884423E+02  0.00000000000E+00 0. -1.
          6    2    1    2  502    0 -0.48993995479E+02 -0.15301223562E+03  0.46616464844E+03  0.52204218466E+03  0.17148004919E+03 0.  0.
         24    2    3    3    0    0 -0.35612679155E+02 -0.11481457062E+03  0.45821490895E+03  0.48052821597E+03  0.80596619143E+02 0.  0.
         -6    2    1    2    0  501  0.48993995479E+02  0.15301223562E+03  0.19092627078E+04  0.19237469405E+04  0.17235152318E+03 0.  0.
        -24    2    5    5    0    0 -0.32391198260E+02  0.69494561546E+02  0.68671962540E+03  0.69564579232E+03  0.80377488484E+02 0.  0.
          5    1    3    3  502    0 -0.13381316323E+02 -0.38197665006E+02  0.79497394853E+01  0.41513968689E+02  0.47000000000E+01 0. -1.
        -11    1    4    4    0    0 -0.57152458390E+02 -0.48669616488E+02  0.24663140110E+03  0.25780260487E+03  0.00000000000E+00 0.  1.
         12    1    4    4    0    0  0.21539779234E+02 -0.66144954130E+02  0.21158350785E+03  0.22272561110E+03  0.00000000000E+00 0. -1.
         -5    1    5    5    0  501  0.81385193739E+02  0.83517674078E+02  0.12225430824E+04  0.12281011481E+04  0.47000000000E+01 0.  1.
         11    1    6    6    0    0 -0.16394619465E+02  0.74892467805E+02  0.65706159960E+03  0.66151916899E+03  0.00000000000E+00 0. -1.
        -12    1    6    6    0    0 -0.15996578795E+02 -0.53979062597E+01  0.29658025800E+02  0.34126623324E+02  0.00000000000E+00 0.  1.
</event>
<event>
12    1  0.2609167E-002  0.3078585E+03  0.7818608E-02  0.1081377E+00
          1   -1    0    0  502    0  0.00000000000E+00  0.00000000000E+00  0.10081300265E+04  0.10081300265E+04  0.00000000000E+00 0.  1.
         -1   -1    0    0    0  501 -0.00000000000E+00 -0.00000000000E+00 -0.94102743512E+02  0.94102743512E+02  0.00000000000E+00 0. -1.
          6    2    1    2  502    0  0.63423662142E+02 -0.24672992825E+03  0.47360553703E+03  0.56470075006E+03  0.17229774810E+03 0.  0.
         24    2    3    3    0    0  0.23138857726E+01 -0.23479570830E+03  0.38300162993E+03  0.45466444534E+03  0.69965210138E+02 0.  0.
         -6    2    1    2    0  501 -0.63423662142E+02  0.24672992825E+03  0.44042174592E+03  0.53753201991E+03  0.17341032188E+03 0.  0.
        -24    2    5    5    0    0  0.12805294386E+00  0.20196262914E+03  0.24509747867E+03  0.32725460568E+03  0.78954942338E+02 0.  0.
          5    1    3    3  502    0  0.61109776370E+02 -0.11934219956E+02  0.90603907102E+02  0.11003630472E+03  0.47000000000E+01 0. -1.
        -11    1    4    4    0    0  0.93565863120E+01 -0.20020674714E+03  0.26987680369E+03  0.33616034341E+03  0.00000000000E+00 0.  1.
         12    1    4    4    0    0 -0.70427005394E+01 -0.34588961153E+02  0.11312482623E+03  0.11850410193E+03  0.00000000000E+00 0. -1.
         -5    1    5    5    0  501 -0.63551715086E+02  0.44767299110E+02  0.19532426725E+03  0.21027741423E+03  0.47000000000E+01 0.  1.
         13    1    6    6    0    0  0.26499275146E+02  0.16650768150E+03  0.16574260356E+03  0.23642679674E+03  0.00000000000E+00 0. -1.
        -14    1    6    6    0    0 -0.26371222202E+02  0.35454947642E+02  0.79354875113E+02  0.90827808940E+02  0.00000000000E+00 0.  1.
</event>
<event>
12    1  0.2609167E-002  0.4253067E+03  0.7818608E-02  0.1035353E+00
         -2   -1    0    0    0  501 -0.00000000000E+00  0.00000000000E+00  0.10996386390E+03  0.10996386390E+03  0.00000000000E+00 0. -1.
          2   -1    0    0  502    0  0.00000000000E+00 -0.00000000000E+00 -0.23035856961E+04  0.23035856961E+04  0.00000000000E+00 0.  1.
          6    2    1    2  502    0  0.15018370778E+03 -0.35926135949E+03 -0.45160152511E+03  0.62037065830E+03  0.17114889922E+03 0.  0.
         24    2    3    3    0    0  0.69139259787E+02 -0.85301751022E+02 -0.20668414437E+03  0.24403479367E+03  0.69123216202E+02 0.  0.
         -6    2    1    2    0  501 -0.15018370778E+03  0.35926135949E+03 -0.17420203071E+04  0.17931789017E+04  0.17097354378E+03 0.  0.
        -24    2    5    5    0    0 -0.28436078962E+02  0.57883127670E+02 -0.32708197351E+03  0.34137867385E+03  0.73469139848E+02 0.  0.
          5    1    3    3  502    0  0.81044447991E+02 -0.27395960846E+03 -0.24491738074E+03  0.37633586463E+03  0.47000000000E+01 0. -1.
        -13    1    4    4    0    0  0.21321869741E+02  0.96641324595E+01 -0.35952733012E+02  0.42902407817E+02  0.00000000000E+00 0.  1.
         14    1    4    4    0    0  0.47817390046E+02 -0.94965883482E+02 -0.17073141136E+03  0.20113238586E+03  0.00000000000E+00 0. -1.
         -5    1    5    5    0  501 -0.12174762882E+03  0.30137823181E+03 -0.14149383336E+04  0.14518002278E+04  0.47000000000E+01 0.  1.
         11    1    6    6    0    0 -0.49086893326E+02  0.43293848864E+02 -0.16799172052E+03  0.18029170421E+03  0.00000000000E+00 0. -1.
        -12    1    6    6    0    0  0.20650814364E+02  0.14589278806E+02 -0.15909025299E+03  0.16108696964E+03  0.00000000000E+00 0.  1.
</event>
<event>
12    1  0.2609167E-002  0.2178482E+03  0.7818608E-02  0.1135498E+00
          2   -1    0    0  502    0  0.00000000000E+00  0.00000000000E+00  0.21394156763E+04  0.21394156763E+04  0.00000000000E+00 0. -1.
         -2   -1    0    0    0  501 -0.00000000000E+00 -0.00000000000E+00 -0.24400352555E+02  0.24400352555E+02  0.00000000000E+00 0.  1.
          6    2    1    2  502    0 -0.62019355634E+02  0.11520599487E+03  0.74033098559E+03  0.77228823699E+03  0.17669275892E+03 0.  0.
         24    2    3    3    0    0 -0.96322726858E+02  0.39675948967E+02  0.36682885919E+03  0.38965598857E+03  0.80100741932E+02 0.  0.
         -6    2    1    2    0  501  0.62019355634E+02 -0.11520599487E+03  0.13746843382E+04  0.13915277919E+04  0.17167918981E+03 0.  0.
        -24    2    5    5    0    0  0.19458346542E+02 -0.11525960803E+03  0.12782744868E+04  0.12860365989E+04  0.79000413995E+02 0.  0.
          5    1    3    3  502    0  0.34303371224E+02  0.75530045903E+02  0.37350212640E+03  0.38263224843E+03  0.47000000000E+01 0. -1.
        -13    1    4    4    0    0 -0.50229115676E+01 -0.19446500285E+02  0.90240145765E+02  0.92448255373E+02  0.00000000000E+00 0.  1.
         14    1    4    4    0    0 -0.91299815291E+02  0.59122449252E+02  0.27658871342E+03  0.29720773319E+03  0.00000000000E+00 0. -1.
         -5    1    5    5    0  501  0.42561009092E+02  0.53613164365E-01  0.96409851338E+02  0.10549119302E+03  0.47000000000E+01 0.  1.
         11    1    6    6    0    0 -0.29213918706E+02 -0.59918546871E+02  0.54249443747E+03  0.54657469754E+03  0.00000000000E+00 0. -1.
        -12    1    6    6    0    0  0.48672265248E+02 -0.55341061163E+02  0.73578004937E+03  0.73946190132E+03  0.00000000000E+00 0.  1.
</event>
<event>
12    1  0.2609167E-002  0.2009484E+03  0.7818608E-02  0.1148941E+00
         -2   -1    0    0    0  501 -0.00000000000E+00  0.00000000000E+00  0.48486585368E+02  0.48486585368E+02  0.00000000000E+00 0. -1.
          2   -1    0    0  502    0  0.00000000000E+00 -0.00000000000E+00 -0.89738865716E+03  0.89738865716E+03  0.00000000000E+00 0.  1.
          6    2    1    2  502    0 -0.91697953980E+02  0.49041054861E+02 -0.29647955184E+03  0.35784502589E+03  0.17128747201E+03 0.  0.
         24    2    3    3    0    0 -0.10278002822E+03  0.80788069527E+02 -0.17910746528E+03  0.23566081245E+03  0.79787768657E+02 0.  0.
         -6    2    1    2    0  501  0.91697953980E+02 -0.49041054861E+02 -0.55242251995E+03  0.58803021664E+03  0.17261331150E+03 0.  0.
        -24    2    5    5    0    0  0.94258585120E+02  0.15390552691E+02 -0.25505338422E+03  0.28371379946E+03  0.79496800045E+02 0.  0.
          5    1    3    3  502    0  0.11082074240E+02 -0.31747014666E+02 -0.11737208657E+03  0.12218421344E+03  0.47000000000E+01 0. -1.
        -11    1    4    4    0    0 -0.83471540923E+01  0.39463590758E+02 -0.92919322197E+02  0.10129684306E+03  0.00000000000E+00 0.  1.
         12    1    4    4    0    0 -0.94432874127E+02  0.41324478770E+02 -0.86188143078E+02  0.13436396938E+03  0.00000000000E+00 0. -1.
         -5    1    5    5    0  501 -0.25606311405E+01 -0.64431607552E+02 -0.29736913573E+03  0.30431641718E+03  0.47000000000E+01 0.  1.
         11    1    6    6    0    0  0.61919961159E+02 -0.20377479265E+02 -0.85973066799E+02  0.10789203616E+03  0.00000000000E+00 0. -1.
        -12    1    6    6    0    0  0.32338623961E+02  0.35768031956E+02 -0.16908031742E+03  0.17582176330E+03  0.00000000000E+00 0.  1.
</event>
<event>
12    1  0.2609167E-002  0.1843530E+03  0.7818608E-02  0.1163655E+00
          2   -1    0    0  502    0  0.00000000000E+00  0.00000000000E+00  0.44967459453E+03  0.44967459453E+03  0.00000000000E+00 0. -1.
         -2   -1    0    0    0  501 -0.00000000000E+00 -0.00000000000E+00 -0.88023412644E+02  0.88023412644E+02  0.00000000000E+00 0.  1.
          6    2    1    2  502    0  0.51463829433E+02  0.46297051927E+02  0.79025406369E+02  0.19979189219E+03  0.16994070312E+03 0.  0.
         24    2    3    3    0    0  0.85323390208E+02  0.47779194683E+02  0.13876852230E+02  0.12620459227E+03  0.78562712035E+02 0.  0.
         -6    2    1    2    0  501 -0.51463829433E+02 -0.46297051927E+02  0.28262577552E+03  0.33790611499E+03  0.17178844780E+03 0.  0.
        -24    2    5    5    0    0 -0.46860974802E+02 -0.27153509542E+02  0.29750716572E+03  0.31278227650E+03  0.79931062795E+02 0.  0.
          5    1    3    3  502    0 -0.33859560775E+02 -0.14821427557E+01  0.65148554138E+02  0.73587299919E+02  0.47000000000E+01 0. -1.
        -11    1    4    4    0    0  0.46649805475E+02  0.14469081033E+01 -0.26424748600E+02  0.53633620356E+02  0.00000000000E+00 0.  1.
         12    1    4    4    0    0  0.38673584733E+02  0.46332286579E+02  0.40301600830E+02  0.72570971919E+02  0.00000000000E+00 0. -1.
         -5    1    5    5    0  501 -0.46028546301E+01 -0.19143542385E+02 -0.14881390199E+02  0.25123838481E+02  0.47000000000E+01 0.  1.
         13    1    6    6    0    0 -0.68189848305E+02 -0.17940518398E+02  0.25211829918E+03  0.26179257895E+03  0.00000000000E+00 0. -1.
        -14    1    6    6    0    0  0.21328873502E+02 -0.92129911436E+01  0.45388866544E+02  0.50989697556E+02  0.00000000000E+00 0.  1.
</event>
<event>
12    1  0.2609167E-002  0.1748692E+03  0.7818608E-02  0.1172863E+00
          1   -1    0    0  502    0  0.00000000000E+00  0.00000000000E+00  0.17706015261E+04  0.17706015261E+04  0.00000000000E+00 0.  1.
         -1   -1    0    0    0  501 -0.00000000000E+00 -0.00000000000E+00 -0.17316860009E+02  0.17316860009E+02  0.00000000000E+00 0. -1.
          6    2    1    2  502    0  0.20337132520E+02 -0.24375853578E+02  0.83310986042E+03  0.85137271848E+03  0.17249836243E+03 0.  0.
         24    2    3    3    0    0  0.20697978868E+02  0.42900963528E+02  0.63914222198E+03  0.64601489639E+03  0.81015846849E+02 0.  0.
         -6    2    1    2    0  501 -0.20337132520E+02  0.24375853578E+02  0.92017480564E+03  0.93654566760E+03  0.17143025803E+03 0.  0.
        -24    2    5    5    0    0  0.33421698436E+02 -0.33864063433E+02  0.55733014510E+03  0.56511567754E+03  0.80467717983E+02 0.  0.
          5    1    3    3  502    0 -0.36084634848E+00 -0.67276817106E+02  0.19396763844E+03  0.20535782209E+03  0.47000000000E+01 0. -1.
        -13    1    4    4    0    0 -0.15603982931E+02 -0.94929626352E+01  0.32271576604E+03  0.32323221726E+03  0.00000000000E+00 0.  1.
         14    1    4    4    0    0  0.36301961799E+02  0.52393926164E+02  0.31642645594E+03  0.32278267913E+03  0.00000000000E+00 0. -1.
         -5    1    5    5    0  501 -0.53758830956E+02  0.58239917011E+02  0.36284466054E+03  0.37142999007E+03  0.47000000000E+01 0.  1.
         11    1    6    6    0    0  0.40590867598E+02  0.41472819368E+00  0.12625161322E+03  0.13261696864E+03  0.00000000000E+00 0. -1.
        -12    1    6    6    0    0 -0.71691691616E+01 -0.34278791627E+02  0.43107853189E+03  0.43249870890E+03  0.00000000000E+00 0.  1.
</event>
<event>
12    1  0.2609167E-002  0.1885193E+03  0.7818608E-02  0.1159804E+00
         -1   -1    0    0    0  501 -0.00000000000E+00  0.00000000000E+00  0.13495126100E+03  0.13495126100E+03  0.00000000000E+00 0. -1.
          1   -1    0    0  502    0  0.00000000000E+00 -0.00000000000E+00 -0.53181684128E+03  0.53181684128E+03  0.00000000000E+00 0.  1.
          6    2    1    2  502    0  0.42762936674E+02 -0.65729685573E+02 -0.43531387810E+03  0.47439045843E+03  0.17146158248E+03 0.  0.
         24    2    3    3    0    0  0.26719462803E+02 -0.11268611531E+03 -0.32748038907E+03  0.35559462220E+03  0.76105452108E+02 0.  0.
         -6    2    1    2    0  501 -0.42762936674E+02  0.65729685573E+02  0.38448297818E+02  0.19237764386E+03  0.17141127714E+03 0.  0.
        -24    2    5    5    0    0 -0.21430387394E+02 -0.15243845232E+02  0.63886019344E+02  0.10473656886E+03  0.78719051494E+02 0.  0.
          5    1    3    3  502    0  0.16043473871E+02  0.46956429740E+02 -0.10783348903E+03  0.11879583622E+03  0.47000000000E+01 0. -1.
        -13    1    4    4    0    0 -0.19535648840E+02 -0.29044588911E+02 -0.14982933274E+03  0.15386376659E+03  0.00000000000E+00 0.  1.
         14    1    4    4    0    0  0.46255111643E+02 -0.83641526402E+02 -0.17765105632E+03  0.20173085561E+03  0.00000000000E+00 0. -1.
         -5    1    5    5    0  501 -0.21332549280E+02  0.80973530805E+02 -0.25437721526E+02  0.87641074995E+02  0.47000000000E+01 0.  1.
         11    1    6    6    0    0  0.22488638056E+02  0.12464983345E+02  0.40061203254E+02  0.47602674899E+02  0.00000000000E+00 0. -1.
        -12    1    6    6    0    0 -0.43919025450E+02 -0.27708828578E+02  0.23824816090E+02  0.57133893963E+02  0.00000000000E+00 0.  1.
</event>
<event>
12    1  0.2609167E-002  0.1992948E+03  0.7818608E-02  0.1150335E+00
          2   -1    0    0  502    0  0.00000000000E+00  0.00000000000E+00  0.90586609921E+03  0.90586609921E+03  0.00000000000E+00 0. -1.
         -2   -1    0    0    0  501 -0.00000000000E+00 -0.00000000000E+00 -0.91005140840E+02  0.91005140840E+02  0.00000000000E+00 0.  1.
          6    2    1    2  502    0  0.10345649462E+03 -0.12327609141E+02  0.47673581006E+02  0.20397536450E+03  0.16875414890E+03 0.  0.
         24    2    3    3    0    0  0.10306165194E+03  0.65364164706E+01 -0.22391597251E+02  0.13126204682E+03  0.77871127305E+02 0.  0.
         -6    2    1    2    0  501 -0.10345649462E+03  0.12327609141E+02  0.76718737737E+03  0.79289587556E+03  0.17103269062E+03 0.  0.
        -24    2    5    5    0    0 -0.14740467360E+02  0.30214867431E+02  0.19462077663E+03  0.21320191339E+03  0.80296884015E+02 0.  0.
          5    1    3    3  502    0  0.39484267824E+00 -0.18864025612E+02  0.70065178258E+02  0.72713317675E+02  0.47000000000E+01 0. -1.
        -11    1    4    4    0    0  0.24581421389E+02  0.33294984651E+02 -0.24915179369E+02  0.48307022713E+02  0.00000000000E+00 0.  1.
         12    1    4    4    0    0  0.78480230548E+02 -0.26758568180E+02  0.25235821177E+01  0.82955024107E+02  0.00000000000E+00 0. -1.
         -5    1    5    5    0  501 -0.88716027255E+02 -0.17887258290E+02  0.57256660073E+03  0.57969396217E+03  0.47000000000E+01 0.  1.
         11    1    6    6    0    0 -0.11047631013E+02  0.17402504164E+02  0.19830096757E+03  0.19936943356E+03  0.00000000000E+00 0. -1.
        -12    1    6    6    0    0 -0.36928363475E+01  0.12812363267E+02 -0.36801909314E+01  0.13832479824E+02  0.00000000000E+00 0.  1.
</event>
<event>
12    1  0.2609167E-002  0.2003795E+03  0.7818608E-02  0.1149419E+00
          1   -1    0    0  502    0  0.00000000000E+00  0.00000000000E+00  0.14075078552E+04  0.14075078552E+04  0.00000000000E+00 0. -1.
         -1   -1    0    0    0  501 -0.00000000000E+00 -0.00000000000E+00 -0.28890285936E+02  0.28890285936E+02  0.00000000000E+00 0.  1.
          6    2    1    2  502    0  0.36491664362E+02  0.96390938009E+02  0.60851572990E+03  0.64063521621E+03  0.17175340523E+03 0.  0.
         24    2    3    3    0    0 -0.31631187458E+02  0.92532454369E+02  0.32620600146E+03  0.35015891147E+03  0.81474663350E+02 0.  0.
         -6    2    1    2    0  501 -0.36491664362E+02 -0.96390938009E+02  0.77010183939E+03  0.79576292495E+03  0.17192712179E+03 0.  0.
        -24    2    5    5    0    0 -0.82090772260E+02 -0.83162461343E+02  0.67125663351E+03  0.68600530125E+03  0.79767884809E+02 0.  0.
          5    1    3    3  502    0  0.68122851820E+02  0.38584836399E+01  0.28230972845E+03  0.29047630473E+03  0.47000000000E+01 0. -1.
        -13    1    4    4    0    0  0.11597912094E+02  0.24223915873E+02  0.20064912218E+02  0.33524772445E+02  0.00000000000E+00 0.  1.
         14    1    4    4    0    0 -0.43229099551E+02  0.68308538496E+02  0.30614108924E+03  0.31663413903E+03  0.00000000000E+00 0. -1.
         -5    1    5    5    0  501  0.45599107898E+02 -0.13228476666E+02  0.98845205877E+02  0.10975762370E+03  0.47000000000E+01 0.  1.
         13    1    6    6    0    0 -0.31383144487E+02  0.62493116902E+01  0.85369908543E+02  0.91170044088E+02  0.00000000000E+00 0. -1.
        -14    1    6    6    0    0 -0.50707627774E+02 -0.89411773033E+02  0.58588672497E+03  0.59483525716E+03  0.00000000000E+00 0.  1.
</event>
<event>
12    1  0.2609167E-002  0.2450229E+03  0.7818608E-02  0.1116491E+00
         -2   -1    0    0    0  501 -0.00000000000E+00  0.00000000000E+00  0.14327154997E+03  0.14327154997E+03  0.00000000000E+00 0.  1.
          2   -1    0    0  502    0  0.00000000000E+00 -0.00000000000E+00 -0.57589892707E+03  0.57589892707E+03  0.00000000000E+00 0. -1.
          6    2    1    2  502    0 -0.72780453814E+02  0.15824698839E+03 -0.40404601012E+03  0.47258856230E+03  0.17247512032E+03 0.  0.
         24    2    3    3    0    0 -0.58244540142E+02  0.10724196397E+03 -0.13904744751E+03  0.20229403130E+03  0.81825528704E+02 0.  0.
         -6    2    1    2    0  501  0.72780453814E+02 -0.15824698839E+03 -0.28581366980E+02  0.24658191474E+03  0.17218200355E+03 0.  0.
        -24    2    5    5    0    0  0.31246342502E+02 -0.42748843203E+02 -0.68243873864E+02  0.11750787243E+03  0.79668539896E+02 0.  0.
          5    1    3    3  502    0 -0.14535913672E+02  0.51005024421E+02 -0.26499856261E+03  0.27029453100E+03  0.47000000000E+01 0. -1.
        -13    1    4    4    0    0 -0.70119662994E+02  0.68625569983E+02 -0.12629720497E+03  0.15992879659E+03  0.00000000000E+00 0.  1.
         14    1    4    4    0    0  0.11875122852E+02  0.38616393986E+02 -0.12750242534E+02  0.42365234709E+02  0.00000000000E+00 0. -1.
         -5    1    5    5    0  501  0.41534111312E+02 -0.11549814519E+03  0.39662506884E+02  0.12907404230E+03  0.47000000000E+01 0.  1.
         11    1    6    6    0    0 -0.22304725161E+02  0.52942221253E+01 -0.10301282399E+02  0.25132567944E+02  0.00000000000E+00 0. -1.
        -12    1    6    6    0    0  0.53551067663E+02 -0.48043065329E+02 -0.57942591465E+02  0.92375304490E+02  0.00000000000E+00 0.  1.
</event>
<event>
12    1  0.2609167E-002  0.2437115E+03  0.7818608E-02  0.1117345E+00
         -1   -1    0    0    0  501 -0.00000000000E+00  0.00000000000E+00  0.68263509970E+02  0.68263509970E+02  0.00000000000E+00 0. -1.
          1   -1    0    0  502    0  0.00000000000E+00 -0.00000000000E+00 -0.11145279376E+04  0.11145279376E+04  0.00000000000E+00 0.  1.
          6    2    1    2  502    0  0.16493546190E+03  0.43800663343E+02 -0.80437728857E+03  0.84124768098E+03  0.17763061024E+03 0.  0.
         24    2    3    3    0    0  0.51294637595E+02  0.70595356477E+02 -0.25738231253E+03  0.28191076432E+03  0.74921158794E+02 0.  0.
         -6    2    1    2    0  501 -0.16493546190E+03 -0.43800663343E+02 -0.24188713908E+03  0.34154376660E+03  0.17035419500E+03 0.  0.
        -24    2    5    5    0    0 -0.87484901228E+02 -0.47309355366E+02 -0.23068847957E+03  0.26306829118E+03  0.78076681351E+02 0.  0.
          5    1    3    3  502    0  0.11364082430E+03 -0.26794693134E+02 -0.54699497604E+03  0.55933691666E+03  0.47000000000E+01 0. -1.
        -13    1    4    4    0    0  0.71029555647E+02  0.55231290728E+02 -0.20386982639E+03  0.22284209514E+03  0.00000000000E+00 0.  1.
         14    1    4    4    0    0 -0.19734918052E+02  0.15364065749E+02 -0.53512486132E+02  0.59068669181E+02  0.00000000000E+00 0. -1.
         -5    1    5    5    0  501 -0.77450560672E+02  0.35086920225E+01 -0.11198659510E+02  0.78475475423E+02  0.47000000000E+01 0.  1.
         11    1    6    6    0    0  0.29259700802E+01 -0.35053785623E+02 -0.66750740083E+02  0.75451908452E+02  0.00000000000E+00 0. -1.
        -12    1    6    6    0    0 -0.90410871308E+02 -0.12255569743E+02 -0.16393773948E+03  0.18761638273E+03  0.00000000000E+00 0.  1.
</event>
<event>
12    1  0.2609167E-002  0.1688612E+03  0.7818608E-02  0.1179041E+00
          2   -1    0    0  502    0  0.00000000000E+00  0.00000000000E+00  0.31762191809E+03  0.31762191809E+03  0.00000000000E+00 0.  1.
         -2   -1    0    0    0  501 -0.00000000000E+00 -0.00000000000E+00 -0.91908541701E+02  0.91908541701E+02  0.00000000000E+00 0. -1.
          6    2    1    2  502    0 -0.29407280693E+02 -0.39492397939E+02  0.77558489784E+02  0.17708341946E+03  0.15138949916E+03 0.  0.
         24    2    3    3    0    0 -0.34490250043E+02 -0.78935488097E+02  0.45116246802E+02  0.12554524848E+03  0.79408721563E+02 0.  0.
         -6    2    1    2    0  501  0.29407280693E+02  0.39492397939E+02  0.14815488660E+03  0.23244704033E+03  0.17221300323E+03 0.  0.
        -24    2    5    5    0    0 -0.27287236642E+01 -0.14444460613E+02  0.14898505725E+02  0.85065696424E+02  0.82450705637E+02 0.  0.
          5    1    3    3  502    0  0.50829693499E+01  0.39443090158E+02  0.32442242982E+02  0.51538170983E+02  0.47000000000E+01 0. -1.
        -11    1    4    4    0    0 -0.41726717158E+02 -0.57345881570E+01  0.26168883937E+02  0.49586438797E+02  0.00000000000E+00 0.  1.
         12    1    4    4    0    0  0.72364671142E+01 -0.73200899940E+02  0.18947362865E+02  0.75958809679E+02  0.00000000000E+00 0. -1.
         -5    1    5    5    0  501  0.32136004358E+02  0.53936858552E+02  0.13325638088E+03  0.14738134391E+03  0.47000000000E+01 0.  1.
         11    1    6    6    0    0  0.22169034884E+02  0.26246911598E+02 -0.21072708445E+01  0.34421026518E+02  0.00000000000E+00 0. -1.
        -12    1    6    6    0    0 -0.24897758548E+02 -0.40691372211E+02  0.17005776569E+02  0.50644669906E+02  0.00000000000E+00 0.  1.
</event>
<event>
12    1  0.2609167E-002  0.2720233E+03  0.7818608E-02  0.1100127E+00
          2   -1    0    0  502    0  0.00000000000E+00  0.00000000000E+00  0.48978917610E+03  0.48978917610E+03  0.00000000000E+00 0. -1.
         -2   -1    0    0    0  501 -0.00000000000E+00 -0.00000000000E+00 -0.16436647677E+03  0.16436647677E+03  0.00000000000E+00 0.  1.
          6    2    1    2  502    0  0.20245695448E+03  0.56769779859E+02  0.25502182806E+03  0.37197762512E+03  0.17064464387E+03 0.  0.
         24    2    3    3    0    0  0.65214947139E+02 -0.24100363298E+02  0.12957046370E+03  0.16915878119E+03  0.83620400316E+02 0.  0.
         -6    2    1    2    0  501 -0.20245695448E+03 -0.56769779859E+02  0.70400871272E+02  0.28217802775E+03  0.17451799433E+03 0.  0.
        -24    2    5    5    0    0 -0.35208980832E+02 -0.45695004522E+02  0.53071525057E+02  0.11360480455E+03  0.82229915941E+02 0.  0.
          5    1    3    3  502    0  0.13724200734E+03  0.80870143157E+02  0.12545136436E+03  0.20281884393E+03  0.47000000000E+01 0. -1.
        -11    1    4    4    0    0  0.37988584893E+02 -0.16923562592E+01  0.34279788899E+01  0.38180462165E+02  0.00000000000E+00 0.  1.
         12    1    4    4    0    0  0.27226362246E+02 -0.22408007038E+02  0.12614248481E+03  0.13097831903E+03  0.00000000000E+00 0. -1.
         -5    1    5    5    0  501 -0.16724797365E+03 -0.11074775337E+02  0.17329346215E+02  0.16857322320E+03  0.47000000000E+01 0.  1.
         11    1    6    6    0    0  0.24763025524E+02 -0.87142226387E+00  0.72205304923E+01  0.25808968799E+02  0.00000000000E+00 0. -1.
        -12    1    6    6    0    0 -0.59972006356E+02 -0.44823582258E+02  0.45850994564E+02  0.87795835752E+02  0.00000000000E+00 0.  1.
</event>
<event>
12    1  0.2609167E-002  0.3085106E+03  0.7818608E-02  0.1081062E+00
         -2   -1    0    0    0  501 -0.00000000000E+00  0.00000000000E+00  0.15316087428E+03  0.15316087428E+03  0.00000000000E+00 0. -1.
          2   -1    0    0  502    0  0.00000000000E+00 -0.00000000000E+00 -0.69391705881E+03  0.69391705881E+03  0.00000000000E+00 0.  1.
          6    2    1    2  502    0  0.19443423243E+03  0.16696338904E+03 -0.13369997137E+03  0.33648193195E+03  0.17222939402E+03 0.  0.
         24    2    3    3    0    0  0.18805302641E+03  0.14657451918E+03 -0.58605547763E+02  0.25826627967E+03  0.80117604628E+02 0.  0.
         -6    2    1    2    0  501 -0.19443423243E+03 -0.16696338904E+03 -0.40705621315E+03  0.51059600113E+03  0.17126608447E+03 0.  0.
        -24    2    5    5    0    0 -0.14671735356E+03 -0.11394061738E+03 -0.38667915262E+03  0.43626142345E+03  0.79339878970E+02 0.  0.
          5    1    3    3  502    0  0.63812060123E+01  0.20388869869E+02 -0.75094423610E+02  0.78215652283E+02  0.47000000000E+01 0. -1.
        -13    1    4    4    0    0  0.56614107295E+02  0.23134993056E+02  0.15857477454E+02  0.63181046523E+02  0.00000000000E+00 0.  1.
         14    1    4    4    0    0  0.13143891912E+03  0.12343952612E+03 -0.74463025217E+02  0.19508523315E+03  0.00000000000E+00 0. -1.
         -5    1    5    5    0  501 -0.47716878862E+02 -0.53022771667E+02 -0.20377060531E+02  0.74334577684E+02  0.47000000000E+01 0.  1.
         11    1    6    6    0    0 -0.66108501557E+02 -0.84305737661E+02 -0.14881666005E+03  0.18336899871E+03  0.00000000000E+00 0. -1.
        -12    1    6    6    0    0 -0.80608852007E+02 -0.29634879716E+02 -0.23786249257E+03  0.25289242474E+03  0.00000000000E+00 0.  1.
</event>
<event>
12    1  0.2609167E-002  0.2679232E+03  0.7818608E-02  0.1102474E+00
          1   -1    0    0  502    0  0.00000000000E+00  0.00000000000E+00  0.23148065737E+03  0.23148065737E+03  0.00000000000E+00 0. -1.
         -1   -1    0    0    0  501 -0.00000000000E+00 -0.00000000000E+00 -0.31049823375E+03  0.31049823375E+03  0.00000000000E+00 0.  1.
          6    2    1    2  502    0  0.18700140218E+03  0.84899812093E+02 -0.49193171984E+02  0.27251816920E+03  0.17224599229E+03 0.  0.
         24    2    3    3    0    0  0.19111581915E+03  0.83653948019E+02 -0.69409968994E+00  0.22360262343E+03  0.80463731480E+02 0.  0.
         -6    2    1    2    0  501 -0.18700140218E+03 -0.84899812093E+02 -0.29824404402E+02  0.26946072192E+03  0.17187810521E+03 0.  0.
        -24    2    5    5    0    0 -0.48778234312E+02 -0.81411257058E+02 -0.33919971308E+02  0.13105307105E+03  0.83768932542E+02 0.  0.
          5    1    3    3  502    0 -0.41144169619E+01  0.12458640743E+01 -0.48499072294E+02  0.48915545766E+02  0.47000000000E+01 0. -1.
        -11    1    4    4    0    0  0.58433292327E+02 -0.11273914382E+02 -0.92933239349E+01  0.60232189628E+02  0.00000000000E+00 0.  1.
         12    1    4    4    0    0  0.13268252682E+03  0.94927862401E+02  0.85992242449E+01  0.16337043380E+03  0.00000000000E+00 0. -1.
         -5    1    5    5    0  501 -0.13822316787E+03 -0.34885550358E+01  0.40955669058E+01  0.13840765088E+03  0.47000000000E+01 0.  1.
         11    1    6    6    0    0 -0.31379718213E+02 -0.43454435924E+01  0.18075386999E+02  0.36473129977E+02  0.00000000000E+00 0. -1.
        -12    1    6    6    0    0 -0.17398516099E+02 -0.77065813465E+02 -0.51995358307E+02  0.94579941071E+02  0.00000000000E+00 0.  1.
</event>
<event>
12    1  0.2609167E-002  0.2322789E+03  0.7818608E-02  0.1125046E+00
          2   -1    0    0  502    0  0.00000000000E+00  0.00000000000E+00  0.49693779494E+03  0.49693779494E+03  0.00000000000E+00 0.  1.
         -2   -1    0    0    0  501 -0.00000000000E+00 -0.00000000000E+00 -0.13124049090E+03  0.13124049090E+03  0.00000000000E+00 0. -1.
          6    2    1    2  502    0 -0.13945982498E+03 -0.69382690345E+02  0.31357508476E+03  0.39040895708E+03  0.17270442809E+03 0.  0.
         24    2    3    3    0    0 -0.93880799657E+02 -0.38732136949E+02  0.31031985417E+03  0.33518585957E+03  0.75745399774E+02 0.  0.
         -6    2    1    2    0  501  0.13945982498E+03  0.69382690345E+02  0.52122219274E+02  0.23776932876E+03  0.17191430264E+03 0.  0.
        -24    2    5    5    0    0 -0.18519431188E+01  0.29740212103E+02  0.24024594936E+02  0.88263113576E+02  0.79531667574E+02 0.  0.
          5    1    3    3  502    0 -0.45579025325E+02 -0.30650553395E+02  0.32552305953E+01  0.55223097516E+02  0.47000000000E+01 0. -1.
        -13    1    4    4    0    0 -0.95090863159E+01 -0.23300444828E+02  0.19087700636E+02  0.31585974218E+02  0.00000000000E+00 0.  1.
         14    1    4    4    0    0 -0.84371713341E+02 -0.15431692121E+02  0.29123215353E+03  0.30359988535E+03  0.00000000000E+00 0. -1.
         -5    1    5    5    0  501  0.14131176810E+03  0.39642478242E+02  0.28097624338E+02  0.14950621518E+03  0.47000000000E+01 0.  1.
         13    1    6    6    0    0 -0.34450647903E+01  0.54310517268E+02  0.31055069687E+02  0.62657147322E+02  0.00000000000E+00 0. -1.
        -14    1    6    6    0    0  0.15931216716E+01 -0.24570305165E+02 -0.70304747506E+01  0.25605966254E+02  0.00000000000E+00 0.  1.
</event>
<event>
12    1  0.2609167E-002  0.2610725E+03  0.7818608E-02  0.1106501E+00
         -2   -1    0    0    0  501 -0.00000000000E+00  0.00000000000E+00  0.22553614682E+03  0.22553614682E+03  0.00000000000E+00 0.  1.
          2   -1    0    0  502    0  0.00000000000E+00 -0.00000000000E+00 -0.32948214773E+03  0.32948214773E+03  0.00000000000E+00 0. -1.
          6    2    1    2  502    0  0.19633339164E+03  0.20941214360E+01  0.27835566081E+02  0.26273709143E+03  0.17235073095E+03 0.  0.
         24    2    3    3    0    0  0.83915240427E+02 -0.21667836618E+02 -0.41309514856E+02  0.12855213106E+03  0.85486324421E+02 0.  0.
         -6    2    1    2    0  501 -0.19633339164E+03 -0.20941214360E+01 -0.13178156699E+03  0.29228120312E+03  0.17178688624E+03 0.  0.
        -24    2    5    5    0    0 -0.64557672377E+02 -0.36701526395E+02 -0.10349936117E+02  0.10971547896E+03  0.80097877889E+02 0.  0.
          5    1    3    3  502    0  0.11241815121E+03  0.23761958054E+02  0.69145080936E+02  0.13418496037E+03  0.47000000000E+01 0. -1.
        -13    1    4    4    0    0  0.12931542690E+02 -0.45144645684E+02 -0.16677833074E+02  0.49833863450E+02  0.00000000000E+00 0.  1.
         14    1    4    4    0    0  0.70983697737E+02  0.23476809066E+02 -0.24631681782E+02  0.78718267611E+02  0.00000000000E+00 0. -1.
         -5    1    5    5    0  501 -0.13177571926E+03  0.34607404959E+02 -0.12143163088E+03  0.18256572417E+03  0.47000000000E+01 0.  1.
         13    1    6    6    0    0 -0.79606934354E+02 -0.39599065801E+02 -0.20613781337E+02  0.91270356582E+02  0.00000000000E+00 0. -1.
        -14    1    6    6    0    0  0.15049261977E+02  0.28975394058E+01  0.10263845220E+02  0.18445122373E+02  0.00000000000E+00 0.  1.
</event>
<event>
12    1  0.2609167E-002  0.1859427E+03  0.7818608E-02  0.1162172E+00
          1   -1    0    0  502    0  0.00000000000E+00  0.00000000000E+00  0.18702778882E+04  0.18702778882E+04  0.00000000000E+00 0. -1.
         -1   -1    0    0    0  501 -0.00000000000E+00 -0.00000000000E+00 -0.19631272311E+02  0.19631272311E+02  0.00000000000E+00 0.  1.
          6    2    1    2  502    0 -0.59851896736E+02 -0.46455147944E+02  0.11580206847E+04  0.11730087992E+04  0.17087248642E+03 0.  0.
         24    2    3    3    0    0 -0.32092502975E+02  0.22703773153E+02  0.33437213400E+03  0.34598246027E+03  0.79710405548E+02 0.  0.
         -6    2    1    2    0  501  0.59851896736E+02  0.46455147944E+02  0.69262593127E+03  0.71690036134E+03  0.16874571730E+03 0.  0.
        -24    2    5    5    0    0  0.10382549430E+03  0.32354628616E+02  0.38574795068E+03  0.40653173068E+03  0.68117628669E+02 0.  0.
          5    1    3    3  502    0 -0.27759393761E+02 -0.69158921097E+02  0.82364855066E+03  0.82702633895E+03  0.47000000000E+01 0. -1.
        -13    1    4    4    0    0 -0.51226612581E+02  0.30488427990E+02  0.30012164427E+03  0.30598482224E+03  0.00000000000E+00 0.  1.
         14    1    4    4    0    0  0.19134109606E+02 -0.77846548366E+01  0.34250489728E+02  0.39997638030E+02  0.00000000000E+00 0. -1.
         -5    1    5    5    0  501 -0.43973597561E+02  0.14100519328E+02  0.30687798059E+03  0.31036863066E+03  0.47000000000E+01 0.  1.
         13    1    6    6    0    0  0.24346353818E+01 -0.84426143077E+01  0.10335258743E+03  0.10372541885E+03  0.00000000000E+00 0. -1.
        -14    1    6    6    0    0  0.10139085892E+03  0.40797242923E+02  0.28239536325E+03  0.30280631184E+03  0.00000000000E+00 0.  1.
</event>
<event>
12    1  0.2609167E-002  0.1789738E+03  0.7818608E-02  0.1168800E+00
          2   -1    0    0  502    0  0.00000000000E+00  0.00000000000E+00  0.22177949536E+04  0.22177949536E+04  0.00000000000E+00 0. -1.
         -2   -1    0    0    0  501 -0.00000000000E+00 -0.00000000000E+00 -0.14455715362E+02  0.14455715362E+02  0.00000000000E+00 0.  1.
          6    2    1    2  502    0  0.12634978072E+02  0.42756483974E+02  0.10747189954E+04  0.10896710118E+04  0.17428205657E+03 0.  0.
         24    2    3    3    0    0 -0.29911788884E+02  0.62241073200E+02  0.38683190164E+03  0.40017799487E+03  0.75728733964E+02 0.  0.
         -6    2    1    2    0  501 -0.12634978072E+02 -0.42756483974E+02  0.11286202428E+04  0.11425796572E+04  0.17238579082E+03 0.  0.
        -24    2    5    5    0    0 -0.23899355384E+02  0.30966244134E+01  0.10288864431E+04  0.10321336769E+04  0.78178296053E+02 0.  0.
          5    1    3    3  502    0  0.42546766956E+02 -0.19484589227E+02  0.68788709381E+03  0.68949301695E+03  0.47000000000E+01 0. -1.
        -13    1    4    4    0    0  0.67175159381E+01  0.34101060778E+02  0.54418566251E+02  0.64570796180E+02  0.00000000000E+00 0.  1.
         14    1    4    4    0    0 -0.36629304822E+02  0.28140012423E+02  0.33241333539E+03  0.33560719869E+03  0.00000000000E+00 0. -1.
         -5    1    5    5    0  501  0.11264377312E+02 -0.45853108387E+02  0.99733799698E+02  0.11044598022E+03  0.47000000000E+01 0.  1.
         13    1    6    6    0    0  0.63041338422E+01 -0.10374733301E+02  0.25919435525E+02  0.28621571105E+02  0.00000000000E+00 0. -1.
        -14    1    6    6    0    0 -0.30203489226E+02  0.13471357715E+02  0.10029670076E+04  0.10035121058E+04  0.00000000000E+00 0.  1.
</event>
<event>
12    1  0.2609167E-002  0.2089495E+03  0.7818608E-02  0.1142401E+00
         -2   -1    0    0    0  501 -0.00000000000E+00  0.00000000000E+00  0.21394358408E+02  0.21394358408E+02  0.00000000000E+00 0. -1.
          2   -1    0    0  502    0  0.00000000000E+00 -0.00000000000E+00 -0.21864130455E+04  0.21864130455E+04  0.00000000000E+00 0.  1.
          6    2    1    2  502    0  0.10625258069E+03  0.57945308218E+02 -0.13573224642E+04  0.13730016358E+04  0.16781522719E+03 0.  0.
         24    2    3    3    0    0  0.10837025893E+03  0.95131515014E+02 -0.99745911935E+03  0.10111853627E+04  0.82322686762E+02 0.  0.
         -6    2    1    2    0  501 -0.10625258069E+03 -0.57945308218E+02 -0.80769622288E+03  0.83480576808E+03  0.17285893764E+03 0.  0.
        -24    2    5    5    0    0 -0.31946222922E+02  0.14604074349E+02 -0.21749683652E+03  0.23552098322E+03  0.83255146939E+02 0.  0.
          5    1    3    3  502    0 -0.21176782445E+01 -0.37186206795E+02 -0.35986334484E+03  0.36181627312E+03  0.47000000000E+01 0. -1.
        -13    1    4    4    0    0  0.32529911671E+02 -0.98690141043E+01 -0.28801695605E+03  0.29001613673E+03  0.00000000000E+00 0.  1.
         14    1    4    4    0    0  0.75840347258E+02  0.10500052912E+03 -0.70944216330E+03  0.72116922595E+03  0.00000000000E+00 0. -1.
         -5    1    5    5    0  501 -0.74306357763E+02 -0.72549382568E+02 -0.59019938635E+03  0.59928478486E+03  0.47000000000E+01 0.  1.
         13    1    6    6    0    0 -0.51193699949E+02 -0.15808163593E+02 -0.14498636976E+03  0.15456953247E+03  0.00000000000E+00 0. -1.
        -14    1    6    6    0    0  0.19247477026E+02  0.30412237943E+02 -0.72510466757E+02  0.80951450746E+02  0.00000000000E+00 0.  1.
</event>
<event>
12    1  0.2609167E-002  0.1777132E+03  0.7818608E-02  0.1170035E+00
         -1   -1    0    0    0  501 -0.00000000000E+00  0.00000000000E+00  0.18376890695E+02  0.18376890695E+02  0.00000000000E+00 0.  1.
          1   -1    0    0  502    0  0.00000000000E+00 -0.00000000000E+00 -0.28182619153E+04  0.28182619153E+04  0.00000000000E+00 0. -1.
          6    2    1    2  502    0  0.31414809218E+02  0.31710304940E+02 -0.22865498378E+04  0.22934557706E+04  0.17215335351E+03 0.  0.
         24    2    3    3    0    0 -0.43466558100E+02  0.32677231377E+02 -0.14365604062E+04  0.14401608169E+04  0.86024617145E+02 0.  0.
         -6    2    1    2    0  501 -0.31414809218E+02 -0.31710304940E+02 -0.51333518681E+03  0.54318303544E+03  0.17187891752E+03 0.  0.
        -24    2    5    5    0    0 -0.42035353303E+01 -0.97640961127E+01 -0.10023950415E+03  0.12858416599E+03  0.79830584801E+02 0.  0.
          5    1    3    3  502    0  0.74881367318E+02 -0.96692643676E+00 -0.84998943163E+03  0.85329495370E+03  0.47000000000E+01 0. -1.
        -11    1    4    4    0    0 -0.55009110497E+02  0.35637904505E+01 -0.49149320663E+03  0.49457484267E+03  0.00000000000E+00 0.  1.
         12    1    4    4    0    0  0.11542552397E+02  0.29113440926E+02 -0.94506719958E+03  0.94558597424E+03  0.00000000000E+00 0. -1.
         -5    1    5    5    0  501 -0.27211273888E+02 -0.21946208827E+02 -0.41309568267E+03  0.41459886945E+03  0.47000000000E+01 0.  1.
         11    1    6    6    0    0 -0.78647141501E+01 -0.44710143078E+02 -0.56876032471E+02  0.72771791873E+02  0.00000000000E+00 0. -1.
        -12    1    6    6    0    0  0.36611788199E+01  0.34946046965E+02 -0.43363471675E+02  0.55812374117E+02  0.00000000000E+00 0.  1.
</event>
<event>
12    1  0.2609167E-002  0.1780567E+03  0.7818608E-02  0.1169697E+00
          2   -1    0    0  502    0  0.00000000000E+00  0.00000000000E+00  0.52905060087E+03  0.52905060087E+03  0.00000000000E+00 0.  1.
         -2   -1    0    0    0  501 -0.00000000000E+00 -0.00000000000E+00 -0.62498614081E+02  0.62498614081E+02  0.00000000000E+00 0. -1.
          6    2    1    2  502    0 -0.19711590713E+02 -0.40265820393E+02  0.29178168932E+03  0.34121561012E+03  0.17111883377E+03 0.  0.
         24    2    3    3    0    0 -0.61704397148E+01 -0.55571486698E+02  0.82021525034E+02  0.13040991117E+03  0.84575113963E+02 0.  0.
         -6    2    1    2    0  501  0.19711590713E+02  0.40265820393E+02  0.17477029747E+03  0.25033360483E+03  0.17352917256E+03 0.  0.
        -24    2    5    5    0    0 -0.43778836869E+00  0.37188335837E+02  0.15930277914E+02  0.90122150178E+02  0.80529896419E+02 0.  0.
          5    1    3    3  502    0 -0.13541150998E+02  0.15305666305E+02  0.20976016428E+03  0.21080569896E+03  0.47000000000E+01 0. -1.
        -11    1    4    4    0    0 -0.67569148251E+01 -0.76801666606E+02  0.76172778853E+02  0.10838101370E+03  0.00000000000E+00 0.  1.
         12    1    4    4    0    0  0.58647511036E+00  0.21230179908E+02  0.58487461811E+01  0.22028897473E+02  0.00000000000E+00 0. -1.
         -5    1    5    5    0  501  0.20149379082E+02  0.30774845558E+01  0.15884001956E+03  0.16021145465E+03  0.47000000000E+01 0.  1.
         11    1    6    6    0    0 -0.17177248059E+02  0.58167181331E+02  0.17827747869E+02  0.63216354125E+02  0.00000000000E+00 0. -1.
        -12    1    6    6    0    0  0.16739459691E+02 -0.20978845493E+02 -0.18974699549E+01  0.26905796052E+02  0.00000000000E+00 0.  1.
</event>
<event>
12    1  0.2609167E-002  0.1757813E+03  0.7818608E-02  0.1171950E+00
         -1   -1    0    0    0  501 -0.00000000000E+00  0.00000000000E+00  0.23178152750E+02  0.23178152750E+02  0.00000000000E+00 0. -1.
          1   -1    0    0  502    0  0.00000000000E+00 -0.00000000000E+00 -0.13339435362E+04  0.13339435362E+04  0.00000000000E+00 0.  1.
          6    2    1    2  502    0 -0.23834041070E+02  0.27711149298E+02 -0.63574354623E+03  0.65938586136E+03  0.17112535839E+03 0.  0.
         24    2    3    3    0    0 -0.36577990428E+02 -0.36135851710E+02 -0.49597913157E+03  0.50512948585E+03  0.80726385743E+02 0.  0.
         -6    2    1    2    0  501  0.23834041070E+02 -0.27711149298E+02 -0.67502183726E+03  0.69773582762E+03  0.17275657749E+03 0.  0.
        -24    2    5    5    0    0  0.52509810148E+02 -0.57813302714E+02 -0.29619585306E+03  0.31660638022E+03  0.80049725141E+02 0.  0.
          5    1    3    3  502    0  0.12743949358E+02  0.63847001008E+02 -0.13976441466E+03  0.15425637552E+03  0.47000000000E+01 0. -1.
        -11    1    4    4    0    0 -0.21969882215E+02  0.13290441775E+02 -0.50248022295E+02  0.56428497337E+02  0.00000000000E+00 0.  1.
         12    1    4    4    0    0 -0.14608108213E+02 -0.49426293485E+02 -0.44573110927E+03  0.44870098851E+03  0.00000000000E+00 0. -1.
         -5    1    5    5    0  501 -0.28675769078E+02  0.30102153417E+02 -0.37882598420E+03  0.38112944740E+03  0.47000000000E+01 0.  1.
         11    1    6    6    0    0  0.42570652421E+02  0.46687693402E+01 -0.73182272560E+02  0.84792115623E+02  0.00000000000E+00 0. -1.
        -12    1    6    6    0    0  0.99391577268E+01 -0.62482072055E+02 -0.22301358050E+03  0.23181426460E+03  0.00000000000E+00 0.  1.
</event>
<event>
12    1  0.2609167E-002  0.2292346E+03  0.7818608E-02  0.1127180E+00
          2   -1    0    0  502    0  0.00000000000E+00  0.00000000000E+00  0.24654929058E+03  0.24654929058E+03  0.00000000000E+00 0.  1.
         -2   -1    0    0    0  501 -0.00000000000E+00 -0.00000000000E+00 -0.23822857469E+03  0.23822857469E+03  0.00000000000E+00 0. -1.
          6    2    1    2  502    0 -0.14353593092E+03 -0.52973165525E+02 -0.74501724203E+02  0.24126822457E+03  0.17102961598E+03 0.  0.
         24    2    3    3    0    0 -0.30431540544E+02 -0.24465067110E+02  0.22356115580E+02  0.89581554333E+02  0.77462512251E+02 0.  0.
         -6    2    1    2    0  501  0.14353593092E+03  0.52973165525E+02  0.82822440088E+02  0.24350964071E+03  0.17037801737E+03 0.  0.
        -24    2    5    5    0    0  0.11399534849E+02 -0.11067979649E+02  0.40751592002E+02  0.90691638817E+02  0.79447036020E+02 0.  0.
          5    1    3    3  502    0 -0.11310439038E+03 -0.28508098415E+02 -0.96857839783E+02  0.15168667023E+03  0.47000000000E+01 0. -1.
        -11    1    4    4    0    0 -0.31291414995E+01 -0.46157779092E+02 -0.31607084054E+01  0.46371566448E+02  0.00000000000E+00 0.  1.
         12    1    4    4    0    0 -0.27302399044E+02  0.21692711982E+02  0.25516823986E+02  0.43209987885E+02  0.00000000000E+00 0. -1.
         -5    1    5    5    0  501  0.13213639608E+03  0.64041145174E+02  0.42070848086E+02  0.15281800189E+03  0.47000000000E+01 0.  1.
         13    1    6    6    0    0  0.13174367650E+01  0.33778926946E+02  0.95214746121E+01  0.35119937700E+02  0.00000000000E+00 0. -1.
        -14    1    6    6    0    0  0.10082098084E+02 -0.44846906595E+02  0.31230117390E+02  0.55571701118E+02  0.00000000000E+00 0.  1.
</event>
<event>
12    1  0.2609167E-002  0.1794489E+03  0.7818608E-02  0.1168337E+00
         -2   -1    0    0    0  501 -0.00000000000E+00  0.00000000000E+00  0.12889854800E+03  0.12889854800E+03  0.00000000000E+00 0. -1.
          2   -1    0    0  502    0  0.00000000000E+00 -0.00000000000E+00 -0.25779087363E+03  0.25779087363E+03  0.00000000000E+00 0.  1.
          6    2    1    2  502    0  0.41783074504E+02 -0.26766555980E+02 -0.30461403072E+02  0.18203045998E+03  0.17246714890E+03 0.  0.
         24    2    3    3    0    0  0.71222606969E+02 -0.46619737252E+02 -0.65016430936E+02  0.13226124431E+03  0.77587633094E+02 0.  0.
         -6    2    1    2    0  501 -0.41783074504E+02  0.26766555980E+02 -0.98430922565E+02  0.20465896164E+03  0.17243656872E+03 0.  0.
        -24    2    5    5    0    0 -0.93070604317E+02  0.26194374033E+02 -0.84690347090E+02  0.15135200599E+03  0.79916783026E+02 0.  0.
          5    1    3    3  502    0 -0.29439532465E+02  0.19853181272E+02  0.34555027864E+02  0.49769215676E+02  0.47000000000E+01 0. -1.
        -11    1    4    4    0    0  0.30186669102E+02 -0.62700131254E+02 -0.50040553627E+02  0.85712300506E+02  0.00000000000E+00 0.  1.
         12    1    4    4    0    0  0.41035937867E+02  0.16080394002E+02 -0.14975877309E+02  0.46548943801E+02  0.00000000000E+00 0. -1.
         -5    1    5    5    0  501  0.51287529812E+02  0.57218194748E+00 -0.13740575475E+02  0.53306955651E+02  0.47000000000E+01 0.  1.
         13    1    6    6    0    0  0.13726347736E+02  0.29950631567E+01 -0.17550758975E+01  0.14158506874E+02  0.00000000000E+00 0. -1.
        -14    1    6    6    0    0 -0.10679695205E+03  0.23199310876E+02 -0.82935271192E+02  0.13719349912E+03  0.00000000000E+00 0.  1.
</event>
<event>
12    1  0.2609167E-002  0.1719247E+03  0.7818608E-02  0.1175855E+00
          2   -1    0    0  502    0  0.00000000000E+00  0.00000000000E+00  0.30021139328E+03  0.30021139328E+03  0.00000000000E+00 0. -1.
         -2   -1    0    0    0  501 -0.00000000000E+00 -0.00000000000E+00 -0.13617370442E+03  0.13617370442E+03  0.00000000000E+00 0.  1.
          6    2    1    2  502    0  0.78396774345E+01  0.14211594561E+02 -0.32690220714E+02  0.17534833273E+03  0.17150789282E+03 0.  0.
         24    2    3    3    0    0 -0.23672774981E+02 -0.46542071779E+02  0.65552533529E+01  0.96314543343E+02  0.80665700220E+02 0.  0.
         -6    2    1    2    0  501 -0.78396774345E+01 -0.14211594561E+02  0.19672790957E+03  0.26103676497E+03  0.17080659325E+03 0.  0.
        -24    2    5    5    0    0  0.42746586566E+02 -0.50467207259E+02  0.14703571200E+03  0.18125679219E+03  0.82827015151E+02 0.  0.
          5    1    3    3  502    0  0.31512452416E+02  0.60753666340E+02 -0.39245474067E+02  0.79033789392E+02  0.47000000000E+01 0. -1.
        -13    1    4    4    0    0  0.24010634623E+01  0.12619387878E+01 -0.30390540236E+02  0.30511350857E+02  0.00000000000E+00 0.  1.
         14    1    4    4    0    0 -0.26073838443E+02 -0.47804010567E+02  0.36945793589E+02  0.65803192486E+02  0.00000000000E+00 0. -1.
         -5    1    5    5    0  501 -0.50586264000E+02  0.36255612698E+02  0.49692197570E+02  0.79779972781E+02  0.47000000000E+01 0.  1.
         11    1    6    6    0    0  0.29052510638E+02  0.90144296204E+01  0.99048468596E+02  0.10361422415E+03  0.00000000000E+00 0. -1.
        -12    1    6    6    0    0  0.13694075928E+02 -0.59481636879E+02  0.47987243408E+02  0.77642568036E+02  0.00000000000E+00 0.  1.
</event>
<event>
12    1  0.2609167E-002  0.1920399E+03  0.7818608E-02  0.1156634E+00
         -2   -1    0    0    0  501 -0.00000000000E+00  0.00000000000E+00  0.24840182164E+03  0.24840182164E+03  0.00000000000E+00 0.  1.
          2   -1    0    0  502    0  0.00000000000E+00 -0.00000000000E+00 -0.15615277778E+03  0.15615277778E+03  0.00000000000E+00 0. -1.
          6    2    1    2  502    0 -0.81024021711E+02  0.28982162010E+02  0.90629071043E+02  0.21098958266E+03  0.16999446363E+03 0.  0.
         24    2    3    3    0    0 -0.59143619394E+02  0.84212002750E+02  0.72794413546E+02  0.14878626827E+03  0.79048705610E+02 0.  0.
         -6    2    1    2    0  501  0.81024021711E+02 -0.28982162010E+02  0.16199728204E+01  0.19356501676E+03  0.17337800781E+03 0.  0.
        -24    2    5    5    0    0  0.68797962942E+02 -0.11971702807E+02 -0.64251094539E+02  0.12428356361E+03  0.80260324330E+02 0.  0.
          5    1    3    3  502    0 -0.21880402317E+02 -0.55229840740E+02  0.17834657497E+02  0.62203314395E+02  0.47000000000E+01 0. -1.
        -13    1    4    4    0    0  0.18444135622E+02  0.60577608579E+01  0.14107908970E+02  0.23998243706E+02  0.00000000000E+00 0.  1.
         14    1    4    4    0    0 -0.77587755016E+02  0.78154241892E+02  0.58686504576E+02  0.12478802456E+03  0.00000000000E+00 0. -1.
         -5    1    5    5    0  501  0.12226058768E+02 -0.17010459203E+02  0.65871067360E+02  0.69281453149E+02  0.47000000000E+01 0.  1.
         13    1    6    6    0    0  0.36008101414E+01  0.25125098378E+02  0.20471743493E+00  0.25382637991E+02  0.00000000000E+00 0. -1.
        -14    1    6    6    0    0  0.65197152801E+02 -0.37096801185E+02 -0.64455811974E+02  0.98900925621E+02  0.00000000000E+00 0.  1.
</event>
<event>
12    1  0.2609167E-002  0.3357743E+03  0.7818608E-02  0.1068610E+00
         -2   -1    0    0    0  501 -0.00000000000E+00  0.00000000000E+00  0.29211823861E+02  0.29211823861E+02  0.00000000000E+00 0.  1.
          2   -1    0    0  502    0  0.00000000000E+00 -0.00000000000E+00 -0.39577551379E+04  0.39577551379E+04  0.00000000000E+00 0. -1.
          6    2    1    2  502    0 -0.24967825929E+03  0.14534404207E+03 -0.16518521171E+04  0.16856892628E+04  0.17166464429E+03 0.  0.
         24    2    3    3    0    0 -0.25703044426E+03  0.95438464941E+02 -0.14262770824E+04  0.14544949559E+04  0.78205569187E+02 0.  0.
         -6    2    1    2    0  501  0.24967825929E+03 -0.14534404207E+03 -0.22766911969E+04  0.23012776989E+04  0.17056411687E+03 0.  0.
        -24    2    5    5    0    0  0.18232461554E+03 -0.16881882931E+03 -0.16545728862E+04  0.16750661840E+04  0.80580534037E+02 0.  0.
          5    1    3    3  502    0  0.73521849714E+01  0.49905577131E+02 -0.22557503478E+03  0.23119430695E+03  0.47000000000E+01 0. -1.
        -13    1    4    4    0    0 -0.96108297970E+02  0.11518836664E+02 -0.35531789295E+03  0.36826660667E+03  0.00000000000E+00 0.  1.
         14    1    4    4    0    0 -0.16092214629E+03  0.83919628276E+02 -0.10709591894E+04  0.10862283492E+04  0.00000000000E+00 0. -1.
         -5    1    5    5    0  501  0.67353643750E+02  0.23474787241E+02 -0.62211831065E+03  0.62621151491E+03  0.47000000000E+01 0.  1.
         13    1    6    6    0    0 -0.22708535069E+01 -0.22811454580E+02 -0.89194784209E+02  0.92093586996E+02  0.00000000000E+00 0. -1.
        -14    1    6    6    0    0  0.18459546904E+03 -0.14600737473E+03 -0.15653781020E+04  0.15829725970E+04  0.00000000000E+00 0.  1.
</event>
<event>
12    1  0.2609167E-002  0.1819009E+03  0.7818608E-02  0.1165976E+00
         -1   -1    0    0    0  501 -0.00000000000E+00  0.00000000000E+00  0.19821057161E+03  0.19821057161E+03  0.00000000000E+00 0. -1.
          1   -1    0    0  502    0  0.00000000000E+00 -0.00000000000E+00 -0.19772853080E+03  0.19772853080E+03  0.00000000000E+00 0.  1.
          6    2    1    2  502    0 -0.14533814530E+02  0.60703794321E+02  0.78368171496E+02  0.19784655342E+03  0.17060335866E+03 0.  0.
         24    2    3    3    0    0 -0.15737472536E+02  0.35279793388E+02 -0.24119793620E+02  0.92140822214E+02  0.80098906427E+02 0.  0.
         -6    2    1    2    0  501  0.14533814530E+02 -0.60703794321E+02 -0.77886130690E+02  0.19809254899E+03  0.17110881393E+03 0.  0.
        -24    2    5    5    0    0  0.60059583992E+02 -0.34497845010E+02 -0.26429645395E+01  0.10620690530E+03  0.80471526223E+02 0.  0.
          5    1    3    3  502    0  0.12036580052E+01  0.25424000933E+02  0.10248796512E+03  0.10570573120E+03  0.47000000000E+01 0. -1.
        -13    1    4    4    0    0 -0.13248991535E+01  0.51191443438E+02 -0.40376317428E+02  0.65211703306E+02  0.00000000000E+00 0.  1.
         14    1    4    4    0    0 -0.14412573382E+02 -0.15911650050E+02  0.16256523809E+02  0.26929118908E+02  0.00000000000E+00 0. -1.
         -5    1    5    5    0  501 -0.45525769462E+02 -0.26205949311E+02 -0.75243166151E+02  0.91885643692E+02  0.47000000000E+01 0.  1.
         11    1    6    6    0    0  0.63102663952E+00  0.94195393427E+01 -0.26839240266E+02  0.28451199168E+02  0.00000000000E+00 0. -1.
        -12    1    6    6    0    0  0.59428557352E+02 -0.43917384353E+02  0.24196275727E+02  0.77755706134E+02  0.00000000000E+00 0.  1.
</event>
<event>
12    1  0.2609167E-002  0.2255436E+03  0.7818608E-02  0.1129816E+00
          2   -1    0    0  502    0  0.00000000000E+00  0.00000000000E+00  0.14982896839E+04  0.14982896839E+04  0.00000000000E+00 0.  1.
         -2   -1    0    0    0  501 -0.00000000000E+00 -0.00000000000E+00 -0.39223660964E+02  0.39223660964E+02  0.00000000000E+00 0. -1.
          6    2    1    2  502    0 -0.77478205819E+02 -0.12335555229E+03  0.10129237716E+04  0.10378522861E+04  0.17292581072E+03 0.  0.
         24    2    3    3    0    0 -0.35463939254E+02 -0.14142150201E+03  0.91134422889E+03  0.92635309044E+03  0.79523659516E+02 0.  0.
         -6    2    1    2    0  501  0.77478205819E+02  0.12335555229E+03  0.44614225126E+03  0.49966105869E+03  0.17146078432E+03 0.  0.
        -24    2    5    5    0    0  0.10767413071E+02  0.13125811768E+03  0.29078634370E+03  0.33033791077E+03  0.84981215398E+02 0.  0.
          5    1    3    3  502    0 -0.42014266565E+02  0.18065949715E+02  0.10157954276E+03  0.11149919570E+03  0.47000000000E+01 0. -1.
        -11    1    4    4    0    0 -0.28319037423E+02 -0.27198757018E+02  0.42114056456E+03  0.42296703817E+03  0.00000000000E+00 0.  1.
         12    1    4    4    0    0 -0.71449018316E+01 -0.11422274499E+03  0.49020366433E+03  0.50338605227E+03  0.00000000000E+00 0. -1.
         -5    1    5    5    0  501  0.66710792748E+02 -0.79025653882E+01  0.15535590756E+03  0.16932314792E+03  0.47000000000E+01 0.  1.
         11    1    6    6    0    0 -0.10772909037E+02  0.98233259838E+02  0.12197566891E+03  0.15698373392E+03  0.00000000000E+00 0. -1.
        -12    1    6    6    0    0  0.21540322108E+02  0.33024857844E+02  0.16881067478E+03  0.17335417686E+03  0.00000000000E+00 0.  1.
</event>
<event>
12    1  0.2609167E-002  0.1750264E+03  0.7818608E-02  0.1172705E+00
         -2   -1    0    0    0  501 -0.00000000000E+00  0.00000000000E+00  0.16407832498E+02  0.16407832498E+02  0.00000000000E+00 0. -1.
          2   -1    0    0  502    0  0.00000000000E+00 -0.00000000000E+00 -0.19961917767E+04  0.19961917767E+04  0.00000000000E+00 0.  1.
          6    2    1    2  502    0  0.12691394876E+01  0.29964886247E+02 -0.73245614138E+03  0.75301254838E+03  0.17215224033E+03 0.  0.
         24    2    3    3    0    0 -0.65871406154E+02 -0.51429023744E+01 -0.43916109172E+03  0.45005300348E+03  0.72936615413E+02 0.  0.
         -6    2    1    2    0  501 -0.12691394876E+01 -0.29964886247E+02 -0.12473278028E+04  0.12595870608E+04  0.17272351016E+03 0.  0.
        -24    2    5    5    0    0  0.64161905138E+02  0.29394509853E+01 -0.78147782862E+03  0.78799167760E+03  0.78089031855E+02 0.  0.
          5    1    3    3  502    0  0.67140545641E+02  0.35107788621E+02 -0.29329504966E+03  0.30295954490E+03  0.47000000000E+01 0. -1.
        -11    1    4    4    0    0 -0.61766248210E+02 -0.25020275589E+02 -0.40395580432E+03  0.40941589546E+03  0.00000000000E+00 0.  1.
         12    1    4    4    0    0 -0.41051579435E+01  0.19877373214E+02 -0.35205287396E+02  0.40637108020E+02  0.00000000000E+00 0. -1.
         -5    1    5    5    0  501 -0.65431044626E+02 -0.32904337232E+02 -0.46584997416E+03  0.47159538318E+03  0.47000000000E+01 0.  1.
         11    1    6    6    0    0  0.50427937645E+02  0.29742069489E+02 -0.30532147453E+03  0.31088385355E+03  0.00000000000E+00 0. -1.
        -12    1    6    6    0    0  0.13733967493E+02 -0.26802618504E+02 -0.47615635410E+03  0.47710782405E+03  0.00000000000E+00 0.  1.
</event>
<event>
12    1  0.2609167E-002  0.1839051E+03  0.7818608E-02  0.1164076E+00
          2   -1    0    0  502    0  0.00000000000E+00  0.00000000000E+00  0.38670271069E+03  0.38670271069E+03  0.00000000000E+00 0. -1.
         -2   -1    0    0    0  501 -0.00000000000E+00 -0.00000000000E+00 -0.12445552083E+03  0.12445552083E+03  0.00000000000E+00 0.  1.
          6    2    1    2  502    0  0.41585551362E+02 -0.48925631102E+02 -0.83386852104E+01  0.18385987178E+03  0.17208092084E+03 0.  0.
         24    2    3    3    0    0  0.92059822509E+02 -0.50785151257E+02  0.56140559691E+00  0.13235830404E+03  0.80400640319E+02 0.  0.
         -6    2    1    2    0  501 -0.41585551362E+02  0.48925631102E+02  0.27058587506E+03  0.32729835974E+03  0.17258164748E+03 0.  0.
        -24    2    5    5    0    0  0.17069550825E+02  0.81753118204E+02  0.15077161607E+03  0.18983705035E+03  0.79568106503E+02 0.  0.
          5    1    3    3  502    0 -0.50474271146E+02  0.18595201550E+01 -0.89000908073E+01  0.51501567737E+02  0.47000000000E+01 0. -1.
        -11    1    4    4    0    0  0.38664960273E+01  0.18674473991E+02 -0.57521163053E+01  0.19919151899E+02  0.00000000000E+00 0.  1.
         12    1    4    4    0    0  0.88193326481E+02 -0.69459625248E+02  0.63135219022E+01  0.11243915214E+03  0.00000000000E+00 0. -1.
         -5    1    5    5    0  501 -0.58655102187E+02 -0.32827487102E+02  0.11981425899E+03  0.13746130939E+03  0.47000000000E+01 0.  1.
         11    1    6    6    0    0  0.19868172071E+02  0.65917852488E+02  0.15789295198E+03  0.17225008511E+03  0.00000000000E+00 0. -1.
        -12    1    6    6    0    0 -0.27986212462E+01  0.15835265716E+02 -0.71213359063E+01  0.17586965238E+02  0.00000000000E+00 0.  1.
</event>
<event>
12    1  0.2609167E-002  0.1894865E+03  0.7818608E-02  0.1158925E+00
         -2   -1    0    0    0  501 -0.00000000000E+00  0.00000000000E+00  0.10726961175E+03  0.10726961175E+03  0.00000000000E+00 0. -1.
          2   -1    0    0  502    0  0.00000000000E+00 -0.00000000000E+00 -0.39150512549E+03  0.39150512549E+03  0.00000000000E+00 0.  1.
          6    2    1    2  502    0 -0.34347107993E+02  0.73022051275E+02 -0.23635567674E+03  0.30222570039E+03  0.17018937759E+03 0.  0.
         24    2    3    3    0    0 -0.83150552283E+02  0.31688332809E+02 -0.11608403096E+03  0.16592598932E+03  0.78343901533E+02 0.  0.
         -6    2    1    2    0  501  0.34347107993E+02 -0.73022051275E+02 -0.47879837002E+02  0.19654903685E+03  0.17270524398E+03 0.  0.
        -24    2    5    5    0    0  0.79713351667E+02 -0.28410555534E+02  0.14204825629E-01  0.11677303257E+03  0.80464668232E+02 0.  0.
          5    1    3    3  502    0  0.48803444290E+02  0.41333718465E+02 -0.12027164578E+03  0.13629971106E+03  0.47000000000E+01 0. -1.
        -11    1    4    4    0    0 -0.20521757896E+02  0.71565071946E+01 -0.91921135869E+02  0.94455562895E+02  0.00000000000E+00 0.  1.
         12    1    4    4    0    0 -0.62628794388E+02  0.24531825615E+02 -0.24162895089E+02  0.71470426426E+02  0.00000000000E+00 0. -1.
         -5    1    5    5    0  501 -0.45366243674E+02 -0.44611495740E+02 -0.47894041828E+02  0.79776004286E+02  0.47000000000E+01 0.  1.
         11    1    6    6    0    0  0.70391727600E+02 -0.37013322540E+01 -0.30163433179E+02  0.76671558457E+02  0.00000000000E+00 0. -1.
        -12    1    6    6    0    0  0.93216240666E+01 -0.24709223280E+02  0.30177638005E+02  0.40101474111E+02  0.00000000000E+00 0.  1.
</event>
<event>
12    1  0.2609167E-002  0.1784517E+03  0.7818608E-02  0.1169310E+00
          2   -1    0    0  502    0  0.00000000000E+00  0.00000000000E+00  0.13026766845E+04  0.13026766845E+04  0.00000000000E+00 0.  1.
         -2   -1    0    0    0  501 -0.00000000000E+00 -0.00000000000E+00 -0.24812933005E+02  0.24812933005E+02  0.00000000000E+00 0. -1.
          6    2    1    2  502    0  0.47192514303E+02  0.19792962875E+02  0.56196746955E+03  0.58993774496E+03  0.17204711943E+03 0.  0.
         24    2    3    3    0    0  0.77954776875E+02  0.50534087457E+02  0.29351156928E+03  0.31794143261E+03  0.79417076482E+02 0.  0.
         -6    2    1    2    0  501 -0.47192514303E+02 -0.19792962875E+02  0.71589628190E+03  0.73755187250E+03  0.16987166748E+03 0.  0.
        -24    2    5    5    0    0  0.17567647908E+02  0.21679746546E+02  0.36569095010E+03  0.37897171597E+03  0.95451856243E+02 0.  0.
          5    1    3    3  502    0 -0.30762262572E+02 -0.30741124582E+02  0.26845590028E+03  0.27199631235E+03  0.47000000000E+01 0. -1.
        -13    1    4    4    0    0  0.76199594946E+02  0.57101112086E+02  0.29581623336E+03  0.31076383185E+03  0.00000000000E+00 0.  1.
         14    1    4    4    0    0  0.17551819290E+01 -0.65670246296E+01 -0.23046640784E+01  0.71776007554E+01  0.00000000000E+00 0. -1.
         -5    1    5    5    0  501 -0.64760162211E+02 -0.41472709421E+02  0.35020533180E+03  0.35858015653E+03  0.47000000000E+01 0.  1.
         11    1    6    6    0    0  0.39373029470E+02 -0.25882808231E+02  0.17529256317E+03  0.18151484213E+03  0.00000000000E+00 0. -1.
        -12    1    6    6    0    0 -0.21805381562E+02  0.47562554777E+02  0.19039838693E+03  0.19745687384E+03  0.00000000000E+00 0.  1.
</event>
<event>
12    1  0.2609167E-002  0.1807962E+03  0.7818608E-02  0.1167035E+00
         -1   -1    0    0    0  501 -0.00000000000E+00  0.00000000000E+00  0.25810230990E+03  0.25810230990E+03  0.00000000000E+00 0.  1.
          1   -1    0    0  502    0  0.00000000000E+00 -0.00000000000E+00 -0.22009863185E+03  0.22009863185E+03  0.00000000000E+00 0. -1.
          6    2    1    2  502    0 -0.17793716675E+02 -0.51301779785E+02 -0.13677616826E+03  0.22700201772E+03  0.17284011943E+03 0.  0.
         24    2    3    3    0    0  0.24370158898E+02 -0.14788499049E+02 -0.60363929503E+01  0.84783907339E+02  0.79619523705E+02 0.  0.
         -6    2    1    2    0  501  0.17793716675E+02  0.51301779785E+02  0.17477984630E+03  0.25119892403E+03  0.17205933802E+03 0.  0.
        -24    2    5    5    0    0  0.43983339874E+02  0.73042793618E+02  0.90967929707E+02  0.16061694233E+03  0.10125637779E+03 0.  0.
          5    1    3    3  502    0 -0.42163875573E+02 -0.36513280735E+02 -0.13073977531E+03  0.14221811038E+03  0.47000000000E+01 0. -1.
        -13    1    4    4    0    0  0.94231102884E+01 -0.36551931630E+02  0.24048588570E+02  0.44756824346E+02  0.00000000000E+00 0.  1.
         14    1    4    4    0    0  0.14947048610E+02  0.21763432581E+02 -0.30084981520E+02  0.40027082992E+02  0.00000000000E+00 0. -1.
         -5    1    5    5    0  501 -0.26189623199E+02 -0.21741013833E+02  0.83811916592E+02  0.90581981700E+02  0.47000000000E+01 0.  1.
         13    1    6    6    0    0  0.51155363094E+02  0.93518798750E+02  0.88939184062E+02  0.13882656574E+03  0.00000000000E+00 0. -1.
        -14    1    6    6    0    0 -0.71720232203E+01 -0.20476005133E+02  0.20287456451E+01  0.21790376595E+02  0.00000000000E+00 0.  1.
</event>
<event>
12    1  0.2609167E-002  0.1898848E+03  0.7818608E-02  0.1158565E+00
          2   -1    0    0  502    0  0.00000000000E+00  0.00000000000E+00  0.37260081907E+03  0.37260081907E+03  0.00000000000E+00 0. -1.
         -2   -1    0    0    0  501 -0.00000000000E+00 -0.00000000000E+00 -0.20073464619E+03  0.20073464619E+03  0.00000000000E+00 0.  1.
          6    2    1    2  502    0 -0.63508104150E+02  0.48300301201E+02 -0.12041346756E+03  0.22468928019E+03  0.17210366374E+03 0.  0.
         24    2    3    3    0    0 -0.19142437388E+02  0.50877815716E+02  0.77381998978E+01  0.88969363299E+02  0.70004877166E+02 0.  0.
         -6    2    1    2    0  501  0.63508104150E+02 -0.48300301201E+02  0.29227964044E+03  0.34864618508E+03  0.17251253800E+03 0.  0.
        -24    2    5    5    0    0 -0.30557173334E+02 -0.18949344849E+01  0.13211246778E+03  0.15713287566E+03  0.79370680045E+02 0.  0.
          5    1    3    3  502    0 -0.44365666761E+02 -0.25775145143E+01 -0.12815166745E+03  0.13571991689E+03  0.47000000000E+01 0. -1.
        -11    1    4    4    0    0  0.62764017480E+01  0.30639548771E+02 -0.27062256579E+02  0.41358685894E+02  0.00000000000E+00 0.  1.
         12    1    4    4    0    0 -0.25418839136E+02  0.20238266945E+02  0.34800456477E+02  0.47610677405E+02  0.00000000000E+00 0. -1.
         -5    1    5    5    0  501  0.94065277484E+02 -0.46405366717E+02  0.16016717266E+03  0.19151330942E+03  0.47000000000E+01 0.  1.
         13    1    6    6    0    0  0.60031327902E+01 -0.78654339275E+01  0.11652186243E+03  0.11694121206E+03  0.00000000000E+00 0. -1.
        -14    1    6    6    0    0 -0.36560306125E+02  0.59704994426E+01  0.15590605350E+02  0.40191663597E+02  0.00000000000E+00 0.  1.
</event>
<event>
12    1  0.2609167E-002  0.1743568E+03  0.7818608E-02  0.1173379E+00
          1   -1    0    0  502    0  0.00000000000E+00  0.00000000000E+00  0.93863947630E+03  0.93863947630E+03  0.00000000000E+00 0. -1.
         -1   -1    0    0    0  501 -0.00000000000E+00 -0.00000000000E+00 -0.32618370037E+02  0.32618370037E+02  0.00000000000E+00 0.  1.
          6    2    1    2  502    0  0.25455537472E+02  0.23001199290E+02  0.49661011197E+03  0.52669949333E+03  0.17208635449E+03 0.  0.
         24    2    3    3    0    0 -0.48761092028E+02  0.13906383424E+02  0.22368686928E+03  0.24368004140E+03  0.82298939797E+02 0.  0.
         -6    2    1    2    0  501 -0.25455537472E+02 -0.23001199290E+02  0.40941099429E+03  0.44455835301E+03  0.16981674660E+03 0.  0.
        -24    2    5    5    0    0  0.36501008792E+02 -0.56104697745E+01  0.13951319671E+03  0.16705526791E+03  0.84141128277E+02 0.  0.
          5    1    3    3  502    0  0.74216629499E+02  0.90948158663E+01  0.27292324269E+03  0.28301945193E+03  0.47000000000E+01 0. -1.
        -11    1    4    4    0    0  0.13829575749E+02 -0.64403762440E+01  0.62248173360E+01  0.16476770388E+02  0.00000000000E+00 0.  1.
         12    1    4    4    0    0 -0.62590667776E+02  0.20346759668E+02  0.21746205195E+03  0.22720327101E+03  0.00000000000E+00 0. -1.
         -5    1    5    5    0  501 -0.61956546263E+02 -0.17390729516E+02  0.26989779758E+03  0.27750308509E+03  0.47000000000E+01 0.  1.
         13    1    6    6    0    0 -0.14323449461E+02 -0.25215669378E+02  0.85737231492E+02  0.90508916967E+02  0.00000000000E+00 0. -1.
        -14    1    6    6    0    0  0.50824458253E+02  0.19605199604E+02  0.53775965218E+02  0.76546350947E+02  0.00000000000E+00 0.  1.
</event>
<event>
12    1  0.2609167E-002  0.1919947E+03  0.7818608E-02  0.1156674E+00
          4   -1    0    0  502    0  0.00000000000E+00  0.00000000000E+00  0.23998375265E+03  0.23998375265E+03  0.00000000000E+00 0. -1.
         -4   -1    0    0    0  501 -0.00000000000E+00 -0.00000000000E+00 -0.16737569062E+03  0.16737569062E+03  0.00000000000E+00 0.  1.
          6    2    1    2  502    0  0.65883156063E+02  0.57910479642E+02  0.94785641090E+02  0.21439422694E+03  0.17113255939E+03 0.  0.
         24    2    3    3    0    0 -0.38011633029E+01  0.26220008926E+02  0.10675496139E+03  0.13676984335E+03  0.81286103101E+02 0.  0.
         -6    2    1    2    0  501 -0.65883156063E+02 -0.57910479642E+02 -0.22177579052E+02  0.19296521633E+03  0.17043918504E+03 0.  0.
        -24    2    5    5    0    0 -0.50790760137E+02 -0.22316496077E+02  0.50798847911E+02  0.11024665147E+03  0.80598225160E+02 0.  0.
          5    1    3    3  502    0  0.69684319366E+02  0.31690470716E+02 -0.11969320299E+02  0.77624383592E+02  0.47000000000E+01 0. -1.
        -11    1    4    4    0    0 -0.35347673036E+02  0.61816383106E+01  0.17330321730E+02  0.39849851851E+02  0.00000000000E+00 0.  1.
         12    1    4    4    0    0  0.31546509734E+02  0.20038370615E+02  0.89424639659E+02  0.96919991495E+02  0.00000000000E+00 0. -1.
         -5    1    5    5    0  501 -0.15092395926E+02 -0.35593983564E+02 -0.72976426962E+02  0.82718564863E+02  0.47000000000E+01 0.  1.
         13    1    6    6    0    0 -0.17104878523E+02  0.21402939118E+02  0.47649820990E+02  0.54965153621E+02  0.00000000000E+00 0. -1.
        -14    1    6    6    0    0 -0.33685881614E+02 -0.43719435196E+02  0.31490269208E+01  0.55281497850E+02  0.00000000000E+00 0.  1.
</event>
<event>
12    1  0.2609167E-002  0.1875724E+03  0.7818608E-02  0.1160669E+00
         -1   -1    0    0    0  501 -0.00000000000E+00  0.00000000000E+00  0.24743047559E+03  0.24743047559E+03  0.00000000000E+00 0.  1.
          1   -1    0    0  502    0  0.00000000000E+00 -0.00000000000E+00 -0.15234595510E+03  0.15234595510E+03  0.00000000000E+00 0. -1.
          6    2    1    2  502    0 -0.25063263281E+02 -0.64146418724E+02  0.98574609303E+02  0.20999110271E+03  0.17215219841E+03 0.  0.
         24    2    3    3    0    0  0.29653731811E+01 -0.52693475727E+02 -0.10902644583E+02  0.96306743703E+02  0.79816824050E+02 0.  0.
         -6    2    1    2    0  501  0.25063263281E+02  0.64146418724E+02 -0.34900888082E+01  0.18978532798E+03  0.17681447847E+03 0.  0.
        -24    2    5    5    0    0 -0.23687343845E+02 -0.54191704561E+01  0.42647791712E+02  0.93003165821E+02  0.78995550811E+02 0.  0.
          5    1    3    3  502    0 -0.28028636462E+02 -0.11452942997E+02  0.10947725389E+03  0.11368435901E+03  0.47000000000E+01 0. -1.
        -13    1    4    4    0    0  0.14614195517E+02  0.15308078737E+02 -0.16858974129E+02  0.27058030119E+02  0.00000000000E+00 0.  1.
         14    1    4    4    0    0 -0.11648822336E+02 -0.68001554464E+02  0.59563295463E+01  0.69248713584E+02  0.00000000000E+00 0. -1.
         -5    1    5    5    0  501  0.48750607126E+02  0.69565589180E+02 -0.46137880520E+02  0.96782162159E+02  0.47000000000E+01 0.  1.
         11    1    6    6    0    0  0.25435310341E+02  0.95086345523E+01  0.14790206669E+01  0.27194790776E+02  0.00000000000E+00 0. -1.
        -12    1    6    6    0    0 -0.49122654187E+02 -0.14927805008E+02  0.41168771045E+02  0.65808375045E+02  0.00000000000E+00 0.  1.
</event>
<event>
12    1  0.2609167E-002  0.3320376E+03  0.7818608E-02  0.1070239E+00
          2   -1    0    0  502    0  0.00000000000E+00  0.00000000000E+00  0.13692961187E+04  0.13692961187E+04  0.00000000000E+00 0.  1.
         -2   -1    0    0    0  501 -0.00000000000E+00 -0.00000000000E+00 -0.80586937540E+02  0.80586937540E+02  0.00000000000E+00 0. -1.
          6    2    1    2  502    0 -0.27830097766E+03  0.64417336832E+02  0.66278885672E+03  0.74062844428E+03  0.16625401176E+03 0.  0.
         24    2    3    3    0    0 -0.24516951004E+03  0.54651245298E+02  0.42362155517E+03  0.49893409428E+03  0.79907203441E+02 0.  0.
         -6    2    1    2    0  501  0.27830097766E+03 -0.64417336832E+02  0.62592032445E+03  0.70925461198E+03  0.17223479496E+03 0.  0.
        -24    2    5    5    0    0  0.24904013647E+03 -0.14949175677E+02  0.42275446335E+03  0.49806334106E+03  0.84269140242E+02 0.  0.
          5    1    3    3  502    0 -0.33131467620E+02  0.97660915340E+01  0.23916730155E+03  0.24169435000E+03  0.47000000000E+01 0. -1.
        -13    1    4    4    0    0 -0.24612241701E+03  0.49567983266E+02  0.42496795569E+03  0.49358990314E+03  0.00000000000E+00 0.  1.
         14    1    4    4    0    0  0.95290696436E+00  0.50832620320E+01 -0.13464005197E+01  0.53441911388E+01  0.00000000000E+00 0. -1.
         -5    1    5    5    0  501  0.29260841193E+02 -0.49468161155E+02  0.20316586110E+03  0.21119127092E+03  0.47000000000E+01 0.  1.
         11    1    6    6    0    0  0.14025018081E+03 -0.40217726381E+02  0.28954868653E+03  0.32423143062E+03  0.00000000000E+00 0. -1.
        -12    1    6    6    0    0  0.10878995566E+03  0.25268550704E+02  0.13320577682E+03  0.17383191043E+03  0.00000000000E+00 0.  1.
</event>
<event>
12    1  0.2609167E-002  0.1789026E+03  0.7818608E-02  0.1168869E+00
         -2   -1    0    0    0  501 -0.00000000000E+00  0.00000000000E+00  0.85645371101E+02  0.85645371101E+02  0.00000000000E+00 0. -1.
          2   -1    0    0  502    0  0.00000000000E+00 -0.00000000000E+00 -0.40859739573E+03  0.40859739573E+03  0.00000000000E+00 0.  1.
          6    2    1    2  502    0  0.48406665964E+02 -0.71096436284E+01 -0.89709942273E+02  0.20061751783E+03  0.17264345448E+03 0.  0.
         24    2    3    3    0    0 -0.42358122495E+02 -0.24908878579E+02 -0.25058850728E+02  0.87671011789E+02  0.68143947163E+02 0.  0.
         -6    2    1    2    0  501 -0.48406665964E+02  0.71096436284E+01 -0.23324208236E+03  0.29362524900E+03  0.17152307579E+03 0.  0.
        -24    2    5    5    0    0 -0.32974898825E+02 -0.58523608364E+02 -0.10153492063E+03  0.14558900461E+03  0.79840224617E+02 0.  0.
          5    1    3    3  502    0  0.90764788460E+02  0.17799234951E+02 -0.64651091545E+02  0.11294650604E+03  0.47000000000E+01 0. -1.
        -11    1    4    4    0    0 -0.36872668501E+02 -0.26022789023E+02 -0.46921588070E+02  0.65103107898E+02  0.00000000000E+00 0.  1.
         12    1    4    4    0    0 -0.54854539941E+01  0.11139104436E+01  0.21862737342E+02  0.22567903892E+02  0.00000000000E+00 0. -1.
         -5    1    5    5    0  501 -0.15431767140E+02  0.65633251993E+02 -0.13170716173E+03  0.14803624440E+03  0.47000000000E+01 0.  1.
         11    1    6    6    0    0  0.17858809005E+02 -0.45197912266E+02 -0.66753426456E+02  0.82570020443E+02  0.00000000000E+00 0. -1.
        -12    1    6    6    0    0 -0.50833707829E+02 -0.13325696098E+02 -0.34781494172E+02  0.63018984164E+02  0.00000000000E+00 0.  1.
</event>
<event>
12    1  0.2609167E-002  0.1745588E+03  0.7818608E-02  0.1173175E+00
          2   -1    0    0  502    0  0.00000000000E+00  0.00000000000E+00  0.10189322837E+04  0.10189322837E+04  0.00000000000E+00 0.  1.
         -2   -1    0    0    0  501 -0.00000000000E+00 -0.00000000000E+00 -0.30100318569E+02  0.30100318569E+02  0.00000000000E+00 0. -1.
          6    2    1    2  502    0 -0.18668983586E+02  0.26952963199E+02  0.45124034311E+03  0.48371262017E+03  0.17112877751E+03 0.  0.
         24    2    3    3    0    0 -0.67140604638E+02  0.25858534382E+01  0.37708021836E+03  0.39170681498E+03  0.82037737653E+02 0.  0.
         -6    2    1    2    0  501  0.18668983586E+02 -0.26952963199E+02  0.53759162199E+03  0.56531998206E+03  0.17177583332E+03 0.  0.
        -24    2    5    5    0    0  0.34457702826E+02  0.61757100528E+01  0.51406667376E+03  0.52147587372E+03  0.80293643158E+02 0.  0.
          5    1    3    3  502    0  0.48471621052E+02  0.24367109761E+02  0.74160124752E+02  0.92005805190E+02  0.47000000000E+01 0. -1.
        -11    1    4    4    0    0 -0.18540333692E+02 -0.26954243914E+02  0.25427841134E+03  0.25637430782E+03  0.00000000000E+00 0.  1.
         12    1    4    4    0    0 -0.48600270946E+02  0.29540097352E+02  0.12280180702E+03  0.13533250716E+03  0.00000000000E+00 0. -1.
         -5    1    5    5    0  501 -0.15788719240E+02 -0.33128673252E+02  0.23524948235E+02  0.43844108340E+02  0.47000000000E+01 0.  1.
         13    1    6    6    0    0  0.16067477602E+02  0.28794254977E+02  0.81354173085E+02  0.87782540602E+02  0.00000000000E+00 0. -1.
        -14    1    6    6    0    0  0.18390225224E+02 -0.22618544924E+02  0.43271250067E+03  0.43369333312E+03  0.00000000000E+00 0.  1.
</event>
<event>
12    1  0.2743390E-002  0.2102330E+03  0.7818608E-02  0.1141382E+00
         -2   -1    0    0    0  501 -0.00000000000E+00  0.00000000000E+00  0.51244886425E+02  0.51244886425E+02  0.00000000000E+00 0. -1.
          2   -1    0    0  502    0  0.00000000000E+00 -0.00000000000E+00 -0.10506309356E+04  0.10506309356E+04  0.00000000000E+00 0.  1.
          6    2    1    2  502    0 -0.49386068810E+02 -0.11102801815E+03 -0.26646117047E+03  0.33938287643E+03  0.17150211905E+03 0.  0.
         24    2    3    3    0    0 -0.46472219629E+02  0.27313974691E+00 -0.16146886433E+03  0.18627535665E+03  0.80415001972E+02 0.  0.
         -6    2    1    2    0  501  0.49386068810E+02  0.11102801815E+03 -0.73292487872E+03  0.76249294561E+03  0.17161121657E+03 0.  0.
        -24    2    5    5    0    0  0.81065873340E+01  0.64110880550E+00 -0.23629150214E+03  0.25204601783E+03  0.87334949149E+02 0.  0.
          5    1    3    3  502    0 -0.29138491814E+01 -0.11130115790E+03 -0.10499230614E+03  0.15310751978E+03  0.47000000000E+01 0. -1.
        -11    1    4    4    0    0  0.20819543192E+02 -0.74348234666E+01 -0.62955190071E+02  0.66723953237E+02  0.00000000000E+00 0.  1.
         12    1    4    4    0    0 -0.67291762821E+02  0.77079632135E+01 -0.98513674261E+02  0.11955140341E+03  0.00000000000E+00 0. -1.
         -5    1    5    5    0  501  0.41279481476E+02  0.11038690934E+03 -0.49663337658E+03  0.51044692778E+03  0.47000000000E+01 0.  1.
         13    1    6    6    0    0 -0.27003827391E+02  0.31130902016E+02 -0.11058468286E+03  0.11801403238E+03  0.00000000000E+00 0. -1.
        -14    1    6    6    0    0  0.35110414725E+02 -0.30489793210E+02 -0.12570681928E+03  0.13403198546E+03  0.00000000000E+00 0.  1.
</event>
<event>
12    1  0.2609167E-002  0.2147653E+03  0.7818608E-02  0.1137847E+00
          1   -1    0    0  502    0  0.00000000000E+00  0.00000000000E+00  0.93809863788E+02  0.93809863788E+02  0.00000000000E+00 0. -1.
         -1   -1    0    0    0  501 -0.00000000000E+00 -0.00000000000E+00 -0.54344125457E+03  0.54344125457E+03  0.00000000000E+00 0.  1.
          6    2    1    2  502    0 -0.12881408934E+03 -0.80820057724E+01 -0.12689140523E+03  0.24982495584E+03  0.17219956856E+03 0.  0.
         24    2    3    3    0    0  0.50449770784E+01  0.51063045980E+01 -0.55731835750E+02  0.97581875474E+02  0.79778811502E+02 0.  0.
         -6    2    1    2    0  501  0.12881408934E+03  0.80820057724E+01 -0.32273998556E+03  0.38742616252E+03  0.17111266668E+03 0.  0.
        -24    2    5    5    0    0  0.14731400358E+02 -0.39484135964E+02 -0.14875725042E+03  0.17395607119E+03  0.79724425388E+02 0.  0.
          5    1    3    3  502    0 -0.13385906641E+03 -0.13188310370E+02 -0.71159569477E+02  0.15224308037E+03  0.47000000000E+01 0. -1.
        -13    1    4    4    0    0 -0.28067748306E+02 -0.20153131942E+02 -0.40498691361E+02  0.53236183409E+02  0.00000000000E+00 0.  1.
         14    1    4    4    0    0  0.33112725385E+02  0.25259436540E+02 -0.15233144389E+02  0.44345692065E+02  0.00000000000E+00 0. -1.
         -5    1    5    5    0  501  0.11408268898E+03  0.47566141736E+02 -0.17398273513E+03  0.21347009132E+03  0.47000000000E+01 0.  1.
         13    1    6    6    0    0  0.50916298199E+01  0.24713015276E+02 -0.39688965880E+02  0.47030541470E+02  0.00000000000E+00 0. -1.
        -14    1    6    6    0    0  0.96397705382E+01 -0.64197151240E+02 -0.10906828454E+03  0.12692552972E+03  0.00000000000E+00 0.  1.
</event>
<event>
12    1  0.2609167E-002  0.2073624E+03  0.7818608E-02  0.1143672E+00
         -2   -1    0    0    0  501 -0.00000000000E+00  0.00000000000E+00  0.22336688664E+02  0.22336688664E+02  0.00000000000E+00 0. -1.
          2   -1    0    0  502    0  0.00000000000E+00 -0.00000000000E+00 -0.24537847789E+04  0.24537847789E+04  0.00000000000E+00 0.  1.
          6    2    1    2  502    0  0.10292348966E+03 -0.52499957158E+02 -0.63757250490E+03  0.67021385048E+03  0.17128460569E+03 0.  0.
         24    2    3    3    0    0  0.11405931226E+03 -0.73898418679E+02 -0.38069126554E+03  0.41215966656E+03  0.80493776708E+02 0.  0.
         -6    2    1    2    0  501 -0.10292348966E+03  0.52499957158E+02 -0.17938755853E+04  0.18059076171E+04  0.17309886061E+03 0.  0.
        -24    2    5    5    0    0 -0.55498945733E+02  0.43214566992E+01 -0.15424275242E+04  0.15454878162E+04  0.79693879702E+02 0.  0.
          5    1    3    3  502    0 -0.11135822604E+02  0.21398461521E+02 -0.25688123936E+03  0.25805418392E+03  0.47000000000E+01 0. -1.
        -11    1    4    4    0    0  0.41981681586E+02 -0.33594116474E+02 -0.26266438571E+03  0.26811118173E+03  0.00000000000E+00 0.  1.
         12    1    4    4    0    0  0.72077630677E+02 -0.40304302205E+02 -0.11802687983E+03  0.14404848483E+03  0.00000000000E+00 0. -1.
         -5    1    5    5    0  501 -0.47424543926E+02  0.48178500459E+02 -0.25144806110E+03  0.26041980090E+03  0.47000000000E+01 0.  1.
         11    1    6    6    0    0 -0.45357021232E+02 -0.33807159958E+02 -0.78687713085E+03  0.78890798101E+03  0.00000000000E+00 0. -1.
        -12    1    6    6    0    0 -0.10141924501E+02  0.38128616657E+02 -0.75555039336E+03  0.75657983515E+03  0.00000000000E+00 0.  1.
</event>
<event>
12    1  0.2609167E-002  0.2100874E+03  0.7818608E-02  0.1141497E+00
          1   -1    0    0  502    0  0.00000000000E+00  0.00000000000E+00  0.97732539802E+03  0.97732539802E+03  0.00000000000E+00 0. -1.
         -1   -1    0    0    0  501 -0.00000000000E+00 -0.00000000000E+00 -0.71913731621E+02  0.71913731621E+02  0.00000000000E+00 0.  1.
          6    2    1    2  502    0  0.94626461829E+02  0.77190016499E+02  0.13191623575E+03  0.24756313391E+03  0.17021499961E+03 0.  0.
         24    2    3    3    0    0  0.11591988523E+03  0.22961552923E+02  0.12277435581E+03  0.18840402547E+03  0.80360946145E+02 0.  0.
         -6    2    1    2    0  501 -0.94626461829E+02 -0.77190016499E+02  0.77349543065E+03  0.80167599574E+03  0.17168795815E+03 0.  0.
        -24    2    5    5    0    0 -0.10008150748E+03 -0.34940027541E+02  0.72470332656E+03  0.73673310920E+03  0.79647027573E+02 0.  0.
          5    1    3    3  502    0 -0.21293423404E+02  0.54228463576E+02  0.91418799429E+01  0.59159108436E+02  0.47000000000E+01 0. -1.
        -13    1    4    4    0    0  0.58973712731E+02  0.50702845014E+02  0.52719315832E+02  0.93957456051E+02  0.00000000000E+00 0.  1.
         14    1    4    4    0    0  0.56946172501E+02 -0.27741292091E+02  0.70055039975E+02  0.94446569421E+02  0.00000000000E+00 0. -1.
         -5    1    5    5    0  501  0.54550456480E+01 -0.42249988958E+02  0.48792104096E+02  0.64942886540E+02  0.47000000000E+01 0.  1.
         13    1    6    6    0    0 -0.96950148305E+02 -0.21091023050E+02  0.41466463120E+03  0.42636946288E+03  0.00000000000E+00 0. -1.
        -14    1    6    6    0    0 -0.31313591720E+01 -0.13849004491E+02  0.31003869536E+03  0.31036364632E+03  0.00000000000E+00 0.  1.
</event>
<event>
12    1  0.2609167E-002  0.2095381E+03  0.7818608E-02  0.1141932E+00
          1   -1    0    0  502    0  0.00000000000E+00  0.00000000000E+00  0.14273427596E+03  0.14273427596E+03  0.00000000000E+00 0. -1.
         -1   -1    0    0    0  501 -0.00000000000E+00 -0.00000000000E+00 -0.30777287311E+03  0.30777287311E+03  0.00000000000E+00 0.  1.
          6    2    1    2  502    0  0.99350744420E+02  0.61923306611E+02 -0.77017491146E+02  0.22226259836E+03  0.17252217935E+03 0.  0.
         24    2    3    3    0    0  0.18008139085E+02 -0.19100196153E+02  0.12728029796E+01  0.83219843793E+02  0.78960824509E+02 0.  0.
         -6    2    1    2    0  501 -0.99350744420E+02 -0.61923306611E+02 -0.88021105997E+02  0.22824455071E+03  0.17505083121E+03 0.  0.
        -24    2    5    5    0    0 -0.13770940937E+03 -0.39328635407E+02 -0.80267024885E+02  0.18281193998E+03  0.80416336186E+02 0.  0.
          5    1    3    3  502    0  0.81342605335E+02  0.81023502764E+02 -0.78290294126E+02  0.13904275457E+03  0.47000000000E+01 0. -1.
        -11    1    4    4    0    0  0.49437439847E+02 -0.13891631121E+02  0.82765130133E+00  0.51358766346E+02  0.00000000000E+00 0.  1.
         12    1    4    4    0    0 -0.31429300762E+02 -0.52085650321E+01  0.44515167827E+00  0.31861077448E+02  0.00000000000E+00 0. -1.
         -5    1    5    5    0  501  0.38358664947E+02 -0.22594671204E+02 -0.77540811119E+01  0.45432610724E+02  0.47000000000E+01 0.  1.
         11    1    6    6    0    0 -0.31613693135E+02 -0.29086129992E+02  0.88688775206E+01  0.43864399460E+02  0.00000000000E+00 0. -1.
        -12    1    6    6    0    0 -0.10609571623E+03 -0.10242505416E+02 -0.89135902405E+02  0.13894754052E+03  0.00000000000E+00 0.  1.
</event>
<event>
12    1  0.2609167E-002  0.2821265E+03  0.7818608E-02  0.1094533E+00
          1   -1    0    0  502    0  0.00000000000E+00  0.00000000000E+00  0.40404909839E+03  0.40404909839E+03  0.00000000000E+00 0.  1.
         -1   -1    0    0    0  501 -0.00000000000E+00 -0.00000000000E+00 -0.21121666290E+03  0.21121666290E+03  0.00000000000E+00 0. -1.
          6    2    1    2  502    0 -0.85693932126E+02  0.20680763601E+03  0.17637501762E+03  0.33307313008E+03  0.17238536719E+03 0.  0.
         24    2    3    3    0    0 -0.12055948653E+02  0.18402483329E+03  0.99733064905E+02  0.22427199210E+03  0.79628870625E+02 0.  0.
         -6    2    1    2    0  501  0.85693932126E+02 -0.20680763601E+03  0.16457417869E+02  0.28219263121E+03  0.17102334983E+03 0.  0.
        -24    2    5    5    0    0  0.16157432152E+02 -0.25393021355E+02  0.24566994095E+02  0.87681853955E+02  0.78604721021E+02 0.  0.
          5    1    3    3  502    0 -0.73637983473E+02  0.22782802720E+02  0.76641952720E+02  0.10880113798E+03  0.47000000000E+01 0. -1.
        -13    1    4    4    0    0  0.27755066797E+02  0.82153420799E+02  0.68554510440E+02  0.11054071279E+03  0.00000000000E+00 0.  1.
         14    1    4    4    0    0 -0.39811015450E+02  0.10187141249E+03  0.31178554465E+02  0.11373127931E+03  0.00000000000E+00 0. -1.
         -5    1    5    5    0  501  0.69536499974E+02 -0.18141461466E+03 -0.81095762265E+01  0.19451077725E+03  0.47000000000E+01 0.  1.
         13    1    6    6    0    0  0.85959597466E+01 -0.49186193999E+02 -0.35779076021E+01  0.50059700627E+02  0.00000000000E+00 0. -1.
        -14    1    6    6    0    0  0.75614724056E+01  0.23793172644E+02  0.28144901697E+02  0.37622153327E+02  0.00000000000E+00 0.  1.
</event>
<event>
12    1  0.2609167E-002  0.2498444E+03  0.7818608E-02  0.1113403E+00
          1   -1    0    0  502    0  0.00000000000E+00  0.00000000000E+00  0.11321727997E+04  0.11321727997E+04  0.00000000000E+00 0. -1.
         -1   -1    0    0    0  501 -0.00000000000E+00 -0.00000000000E+00 -0.58302583904E+02  0.58302583904E+02  0.00000000000E+00 0.  1.
          6    2    1    2  502    0  0.14575262212E+03  0.10540159865E+03  0.67417178093E+03  0.71872289185E+03  0.17234175705E+03 0.  0.
         24    2    3    3    0    0  0.16928376039E+03  0.84068333246E+02  0.48221107503E+03  0.52409549067E+03  0.80150397857E+02 0.  0.
         -6    2    1    2    0  501 -0.14575262212E+03 -0.10540159865E+03  0.39969843486E+03  0.47175249175E+03  0.17446561491E+03 0.  0.
        -24    2    5    5    0    0 -0.19719894003E+02 -0.31220403940E+02  0.73720634931E+02  0.11444210251E+03  0.79364191998E+02 0.  0.
          5    1    3    3  502    0 -0.23531138274E+02  0.21333265405E+02  0.19196070590E+03  0.19462740118E+03  0.47000000000E+01 0. -1.
        -13    1    4    4    0    0 -0.87504853769E+01  0.71649841060E+01  0.23853717997E+02  0.26399012365E+02  0.00000000000E+00 0.  1.
         14    1    4    4    0    0  0.17803424577E+03  0.76903349140E+02  0.45835735703E+03  0.49769647831E+03  0.00000000000E+00 0. -1.
         -5    1    5    5    0  501 -0.12603272811E+03 -0.74181194711E+02  0.32597779993E+03  0.35731038923E+03  0.47000000000E+01 0.  1.
         13    1    6    6    0    0 -0.49448531873E+01 -0.50451675739E+00  0.79684667574E+02  0.79839541310E+02  0.00000000000E+00 0. -1.
        -14    1    6    6    0    0 -0.14775040816E+02 -0.30715887182E+02 -0.59640326429E+01  0.34602561204E+02  0.00000000000E+00 0.  1.
</event>
<event>
12    1  0.2609167E-002  0.1740456E+03  0.7818608E-02  0.1173693E+00
          2   -1    0    0  502    0  0.00000000000E+00  0.00000000000E+00  0.41737801992E+03  0.41737801992E+03  0.00000000000E+00 0. -1.
         -2   -1    0    0    0  501 -0.00000000000E+00 -0.00000000000E+00 -0.96252798914E+02  0.96252798914E+02  0.00000000000E+00 0.  1.
          6    2    1    2  502    0  0.84910824026E+01  0.31947439505E+02  0.28804009278E+03  0.33661917570E+03  0.17103402303E+03 0.  0.
         24    2    3    3    0    0  0.51323616087E+02  0.13277154131E+01  0.83801423270E+02  0.12565065301E+03  0.78291325595E+02 0.  0.
         -6    2    1    2    0  501 -0.84910824026E+01 -0.31947439505E+02  0.33085128227E+02  0.17701164313E+03  0.17072128960E+03 0.  0.
        -24    2    5    5    0    0  0.18896785151E+02  0.41594353053E+02  0.24463207556E+00  0.91811415846E+02  0.79637287371E+02 0.  0.
          5    1    3    3  502    0 -0.42832533684E+02  0.30619724092E+02  0.20423866951E+03  0.21096852269E+03  0.47000000000E+01 0. -1.
        -11    1    4    4    0    0  0.57413879125E+02 -0.27790854640E+02  0.54570270720E+02  0.83944026376E+02  0.00000000000E+00 0.  1.
         12    1    4    4    0    0 -0.60902630379E+01  0.29118570053E+02  0.29231152551E+02  0.41706626635E+02  0.00000000000E+00 0. -1.
         -5    1    5    5    0  501 -0.27387867554E+02 -0.73541792558E+02  0.32840496151E+02  0.85200227284E+02  0.47000000000E+01 0.  1.
         11    1    6    6    0    0 -0.25590079160E+02  0.86883743985E+01  0.19387089679E+02  0.33259573769E+02  0.00000000000E+00 0. -1.
        -12    1    6    6    0    0  0.44486864311E+02  0.32905978654E+02 -0.19142457603E+02  0.58551842076E+02  0.00000000000E+00 0.  1.
</event>
<event>
12    1  0.2609167E-002  0.1744897E+03  0.7818608E-02  0.1173245E+00
          1   -1    0    0  502    0  0.00000000000E+00  0.00000000000E+00  0.20461218794E+04  0.20461218794E+04  0.00000000000E+00 0. -1.
         -1   -1    0    0    0  501 -0.00000000000E+00 -0.00000000000E+00 -0.29727094288E+02  0.29727094288E+02  0.00000000000E+00 0.  1.
          6    2    1    2  502    0  0.31576159934E+02  0.38486616365E+01  0.17408217532E+04  0.17495142842E+04  0.17125416233E+03 0.  0.
         24    2    3    3    0    0 -0.37245982024E+02 -0.26805211727E+02  0.64990983469E+03  0.65599379919E+03  0.76415239305E+02 0.  0.
         -6    2    1    2    0  501 -0.31576159934E+02 -0.38486616365E+01  0.27557303187E+03  0.32633468945E+03  0.17187776928E+03 0.  0.
        -24    2    5    5    0    0 -0.11895909701E+02  0.17324743516E+02  0.28362203323E+03  0.29596197542E+03  0.81916870995E+02 0.  0.
          5    1    3    3  502    0  0.68822141959E+02  0.30653873364E+02  0.10909119185E+04  0.10935204850E+04  0.47000000000E+01 0. -1.
        -11    1    4    4    0    0 -0.36599735555E+02  0.15111573934E+02  0.44982400873E+03  0.45156343867E+03  0.00000000000E+00 0.  1.
         12    1    4    4    0    0 -0.64624646974E+00 -0.41916785661E+02  0.20008582595E+03  0.20443036052E+03  0.00000000000E+00 0. -1.
         -5    1    5    5    0  501 -0.19680250234E+02 -0.21173405153E+02 -0.80490013580E+01  0.30372714036E+02  0.47000000000E+01 0.  1.
         13    1    6    6    0    0 -0.40948905089E+02  0.24955746455E+02  0.11359927852E+03  0.12330611578E+03  0.00000000000E+00 0. -1.
        -14    1    6    6    0    0  0.29052995388E+02 -0.76310029388E+01  0.17002275471E+03  0.17265585963E+03  0.00000000000E+00 0.  1.
</event>
<event>
12    1  0.2609167E-002  0.2440657E+03  0.7818608E-02  0.1117114E+00
          2   -1    0    0  502    0  0.00000000000E+00  0.00000000000E+00  0.64281975657E+03  0.64281975657E+03  0.00000000000E+00 0. -1.
         -2   -1    0    0    0  501 -0.00000000000E+00 -0.00000000000E+00 -0.99310842256E+02  0.99310842256E+02  0.00000000000E+00 0.  1.
          6    2    1    2  502    0 -0.16168490892E+03  0.30480957818E+02  0.18151193874E+03  0.30839965259E+03  0.18733035858E+03 0.  0.
         24    2    3    3    0    0 -0.19618603216E+03  0.29705264121E+02  0.16211494780E+03  0.26853409774E+03  0.80361330352E+02 0.  0.
         -6    2    1    2    0  501  0.16168490892E+03 -0.30480957818E+02  0.36199697558E+03  0.43373094624E+03  0.17323286305E+03 0.  0.
        -24    2    5    5    0    0  0.12481903207E+03 -0.72802612192E+01  0.36211145805E+03  0.38991920917E+03  0.72660089900E+02 0.  0.
          5    1    3    3  502    0  0.34501123240E+02  0.77569369744E+00  0.19396990942E+02  0.39865554846E+02  0.47000000000E+01 0. -1.
        -11    1    4    4    0    0 -0.13413774267E+03 -0.18748265449E+01  0.65073399340E+02  0.14910062470E+03  0.00000000000E+00 0.  1.
         12    1    4    4    0    0 -0.62048289493E+02  0.31580090665E+02  0.97041548460E+02  0.11943347304E+03  0.00000000000E+00 0. -1.
         -5    1    5    5    0  501  0.36865876852E+02 -0.23200696599E+02 -0.11448246975E+00  0.43811737069E+02  0.47000000000E+01 0.  1.
         11    1    6    6    0    0  0.71020197886E+02 -0.32537227650E+02  0.26297464502E+03  0.27433228686E+03  0.00000000000E+00 0. -1.
        -12    1    6    6    0    0  0.53798834187E+02  0.25256966431E+02  0.99136813029E+02  0.11558692232E+03  0.00000000000E+00 0.  1.
</event>
<event>
12    1  0.2609167E-002  0.3875906E+03  0.7818608E-02  0.1048163E+00
         -1   -1    0    0    0  501 -0.00000000000E+00  0.00000000000E+00  0.26575252603E+03  0.26575252603E+03  0.00000000000E+00 0. -1.
          1   -1    0    0  502    0  0.00000000000E+00 -0.00000000000E+00 -0.56843332992E+03  0.56843332992E+03  0.00000000000E+00 0.  1.
          6    2    1    2  502    0 -0.21907239551E+03  0.26992144596E+03 -0.12041861991E+03  0.40613141005E+03  0.17202260533E+03 0.  0.
         24    2    3    3    0    0 -0.16129124176E+03  0.23782502196E+03 -0.14953221028E+03  0.33375369728E+03  0.80349504032E+02 0.  0.
         -6    2    1    2    0  501  0.21907239551E+03 -0.26992144596E+03 -0.18226218398E+03  0.42805444590E+03  0.17076534626E+03 0.  0.
        -24    2    5    5    0    0  0.58645444644E+02 -0.10288242896E+03 -0.12255916242E+03  0.18883617623E+03  0.81328167265E+02 0.  0.
          5    1    3    3  502    0 -0.57781153744E+02  0.32096423997E+02  0.29113590366E+02  0.72377712767E+02  0.47000000000E+01 0. -1.
        -11    1    4    4    0    0 -0.33218316211E+02  0.94461778480E+02 -0.83850815895E+02  0.13060414791E+03  0.00000000000E+00 0.  1.
         12    1    4    4    0    0 -0.12807292555E+03  0.14336324348E+03 -0.65681394383E+02  0.20314954937E+03  0.00000000000E+00 0. -1.
         -5    1    5    5    0  501  0.16042695086E+03 -0.16703901699E+03 -0.59703021559E+02  0.23921826967E+03  0.47000000000E+01 0.  1.
         13    1    6    6    0    0 -0.65811189006E+01 -0.46816054028E+02 -0.12028216420E+02  0.48782497178E+02  0.00000000000E+00 0. -1.
        -14    1    6    6    0    0  0.65226563544E+02 -0.56066374936E+02 -0.11053094600E+03  0.14005367905E+03  0.00000000000E+00 0.  1.
</event>
<event>
12    1  0.2609167E-002  0.2261904E+03  0.7818608E-02  0.1129350E+00
          2   -1    0    0  502    0  0.00000000000E+00  0.00000000000E+00  0.11961877197E+04  0.11961877197E+04  0.00000000000E+00 0. -1.
         -2   -1    0    0    0  501 -0.00000000000E+00 -0.00000000000E+00 -0.10928644951E+03  0.10928644951E+03  0.00000000000E+00 0.  1.
          6    2    1    2  502    0  0.11609085544E+03 -0.84112028553E+02  0.36268437529E+02  0.23121834050E+03  0.17774870283E+03 0.  0.
         24    2    3    3    0    0  0.13107312498E+03 -0.68891746676E+02  0.76797173103E+02  0.18516626358E+03  0.80389691628E+02 0.  0.
         -6    2    1    2    0  501 -0.11609085544E+03  0.84112028553E+02  0.10506328326E+04  0.10742558287E+04  0.17217524913E+03 0.  0.
        -24    2    5    5    0    0 -0.36362100252E+02  0.10260334909E+03  0.78507516652E+03  0.79633215685E+03  0.77150744451E+02 0.  0.
          5    1    3    3  502    0 -0.14982269539E+02 -0.15220281877E+02 -0.40528735574E+02  0.46052076915E+02  0.47000000000E+01 0. -1.
        -11    1    4    4    0    0  0.95894514388E+02 -0.62695839872E+02  0.17441118149E+02  0.11589097820E+03  0.00000000000E+00 0.  1.
         12    1    4    4    0    0  0.35178610591E+02 -0.61959068047E+01  0.59356054954E+02  0.69275285376E+02  0.00000000000E+00 0. -1.
         -5    1    5    5    0  501 -0.79728755188E+02 -0.18491320539E+02  0.26555766613E+03  0.27792367186E+03  0.47000000000E+01 0.  1.
         13    1    6    6    0    0  0.15106945438E+01  0.88743500816E+01  0.33174784440E+03  0.33186995729E+03  0.00000000000E+00 0. -1.
        -14    1    6    6    0    0 -0.37872794796E+02  0.93728999011E+02  0.45332732212E+03  0.46446219956E+03  0.00000000000E+00 0.  1.
</event>
<event>
12    1  0.2609167E-002  0.1959039E+03  0.7818608E-02  0.1153242E+00
         -2   -1    0    0    0  501 -0.00000000000E+00  0.00000000000E+00  0.16314688820E+03  0.16314688820E+03  0.00000000000E+00 0.  1.
          2   -1    0    0  502    0  0.00000000000E+00 -0.00000000000E+00 -0.32539756878E+03  0.32539756878E+03  0.00000000000E+00 0. -1.
          6    2    1    2  502    0  0.92905647749E+02 -0.15888110552E+01 -0.20977664178E+03  0.28719081113E+03  0.17273777483E+03 0.  0.
         24    2    3    3    0    0  0.13137915360E+03 -0.99382921190E+01 -0.14169400761E+03  0.20840464761E+03  0.77434189492E+02 0.  0.
         -6    2    1    2    0  501 -0.92905647749E+02  0.15888110552E+01  0.47525961206E+02  0.20135364586E+03  0.17219346679E+03 0.  0.
        -24    2    5    5    0    0 -0.87629567480E+01  0.80233328139E+01 -0.29983470967E+02  0.86674974801E+02  0.80451099713E+02 0.  0.
          5    1    3    3  502    0 -0.38473505846E+02  0.83494810639E+01 -0.68082634176E+02  0.78786163522E+02  0.47000000000E+01 0. -1.
        -13    1    4    4    0    0  0.14620308970E+02  0.19567155950E+02 -0.28229788610E+01  0.24588538712E+02  0.00000000000E+00 0.  1.
         14    1    4    4    0    0  0.11675884463E+03 -0.29505448069E+02 -0.13887102875E+03  0.18381610889E+03  0.00000000000E+00 0. -1.
         -5    1    5    5    0  501 -0.84142691001E+02 -0.64345217587E+01  0.77509432173E+02  0.11467867106E+03  0.47000000000E+01 0.  1.
         13    1    6    6    0    0  0.16027829591E+02 -0.20201260861E+02  0.13585506850E+02  0.29147011136E+02  0.00000000000E+00 0. -1.
        -14    1    6    6    0    0 -0.24790786339E+02  0.28224593675E+02 -0.43568977817E+02  0.57527963665E+02  0.00000000000E+00 0.  1.
</event>
<event>
12    1  0.2609167E-002  0.1775867E+03  0.7818608E-02  0.1170159E+00
          2   -1    0    0  502    0  0.00000000000E+00  0.00000000000E+00  0.14808590630E+04  0.14808590630E+04  0.00000000000E+00 0.  1.
         -2   -1    0    0    0  501 -0.00000000000E+00 -0.00000000000E+00 -0.30993043232E+02  0.30993043232E+02  0.00000000000E+00 0. -1.
          6    2    1    2  502    0 -0.23883822205E+02 -0.38380864915E+02  0.11489001992E+04  0.11626067846E+04  0.17216079724E+03 0.  0.
         24    2    3    3    0    0 -0.38015128757E+02 -0.87468602349E+02  0.88334536852E+03  0.89214281677E+03  0.80770409330E+02 0.  0.
         -6    2    1    2    0  501  0.23883822205E+02  0.38380864915E+02  0.30096582057E+03  0.34924532164E+03  0.17131357734E+03 0.  0.
        -24    2    5    5    0    0 -0.85152625103E+01  0.78942684171E+02  0.13648063163E+03  0.17669843163E+03  0.79315293927E+02 0.  0.
          5    1    3    3  502    0  0.14131306553E+02  0.49087737434E+02  0.26555483064E+03  0.27046396778E+03  0.47000000000E+01 0. -1.
        -13    1    4    4    0    0 -0.71021302926E+01 -0.96422426685E+01  0.48226269975E+03  0.48241136457E+03  0.00000000000E+00 0.  1.
         14    1    4    4    0    0 -0.30912998465E+02 -0.77826359681E+02  0.40108266877E+03  0.40973145221E+03  0.00000000000E+00 0. -1.
         -5    1    5    5    0  501  0.32399084715E+02 -0.40561819256E+02  0.16448518894E+03  0.17254689001E+03  0.47000000000E+01 0.  1.
         13    1    6    6    0    0  0.33601839887E+02  0.48917745690E+02  0.60194291653E+02  0.84530362798E+02  0.00000000000E+00 0. -1.
        -14    1    6    6    0    0 -0.42117102397E+02  0.30024938481E+02  0.76286339977E+02  0.92168068832E+02  0.00000000000E+00 0.  1.
</event>
<event>
12    1  0.2609167E-002  0.1867437E+03  0.7818608E-02  0.1161432E+00
          1   -1    0    0  502    0  0.00000000000E+00  0.00000000000E+00  0.69110520935E+03  0.69110520935E+03  0.00000000000E+00 0.  1.
         -1   -1    0    0    0  501 -0.00000000000E+00 -0.00000000000E+00 -0.66084181264E+02  0.66084181264E+02  0.00000000000E+00 0. -1.
          6    2    1    2  502    0 -0.62652139367E+02  0.39779033100E+02  0.12796514300E+03  0.22608460383E+03  0.17097224402E+03 0.  0.
         24    2    3    3    0    0 -0.66210132195E+02 -0.35524294192E+02  0.81691618092E+02  0.13750368308E+03  0.81166405064E+02 0.  0.
         -6    2    1    2    0  501  0.62652139367E+02 -0.39779033100E+02  0.49705588509E+03  0.53110478678E+03  0.17175587210E+03 0.  0.
        -24    2    5    5    0    0  0.30112981010E+02 -0.33926739395E+02  0.11870975203E+03  0.15128781432E+03  0.82086431668E+02 0.  0.
          5    1    3    3  502    0  0.35579928277E+01  0.75303327292E+02  0.46273524906E+02  0.88580920753E+02  0.47000000000E+01 0. -1.
        -11    1    4    4    0    0 -0.20363627988E+02 -0.13362734181E+02  0.83065996866E+02  0.86563270762E+02  0.00000000000E+00 0.  1.
         12    1    4    4    0    0 -0.45846504207E+02 -0.22161560011E+02 -0.13743787747E+01  0.50940412318E+02  0.00000000000E+00 0. -1.
         -5    1    5    5    0  501  0.32539158357E+02 -0.58522937054E+01  0.37834613306E+03  0.37981697246E+03  0.47000000000E+01 0.  1.
         13    1    6    6    0    0 -0.34902757845E+01  0.79299258162E+01  0.89999373977E+02  0.90415447048E+02  0.00000000000E+00 0. -1.
        -14    1    6    6    0    0  0.33603256795E+02 -0.41856665211E+02  0.28710378055E+02  0.60872367277E+02  0.00000000000E+00 0.  1.
</event>
<event>
12    1  0.2609167E-002  0.1768178E+03  0.7818608E-02  0.1170919E+00
          2   -1    0    0  502    0  0.00000000000E+00  0.00000000000E+00  0.21152290023E+04  0.21152290023E+04  0.00000000000E+00 0.  1.
         -2   -1    0    0    0  501 -0.00000000000E+00 -0.00000000000E+00 -0.14976798645E+02  0.14976798645E+02  0.00000000000E+00 0. -1.
          6    2    1    2  502    0 -0.22746357786E+02 -0.33616010735E+02  0.92471625994E+03  0.94135493991E+03  0.17146873924E+03 0.  0.
         24    2    3    3    0    0  0.21583937561E+02  0.22479644750E+02  0.70813748485E+03  0.71323139122E+03  0.79177769511E+02 0.  0.
         -6    2    1    2    0  501  0.22746357786E+02  0.33616010735E+02  0.11755359437E+04  0.11888508610E+04  0.17272574166E+03 0.  0.
        -24    2    5    5    0    0 -0.27102077389E+02  0.25698782634E+02  0.10359851419E+04  0.10403784216E+04  0.87903900995E+02 0.  0.
          5    1    3    3  502    0 -0.44330295347E+02 -0.56095655485E+02  0.21657877509E+03  0.22812354870E+03  0.47000000000E+01 0. -1.
        -11    1    4    4    0    0 -0.15736992037E+02  0.12054320632E+02  0.47659886047E+02  0.51618061783E+02  0.00000000000E+00 0.  1.
         12    1    4    4    0    0  0.37320929598E+02  0.10425324118E+02  0.66047759880E+03  0.66161332944E+03  0.00000000000E+00 0. -1.
         -5    1    5    5    0  501  0.49848435176E+02  0.79172281013E+01  0.13955080179E+03  0.14847243944E+03  0.47000000000E+01 0.  1.
         11    1    6    6    0    0 -0.84447427325E+01  0.19209755813E+02  0.50380497092E+02  0.54575845257E+02  0.00000000000E+00 0. -1.
        -12    1    6    6    0    0 -0.18657334657E+02  0.64890268208E+01  0.98560464484E+03  0.98580257635E+03  0.00000000000E+00 0.  1.
</event>
<event>
12    1  0.2609167E-002  0.2512419E+03  0.7818608E-02  0.1112522E+00
          2   -1    0    0  502    0  0.00000000000E+00  0.00000000000E+00  0.83881124500E+03  0.83881124500E+03  0.00000000000E+00 0.  1.
         -2   -1    0    0    0  501 -0.00000000000E+00 -0.00000000000E+00 -0.75262195036E+02  0.75262195036E+02  0.00000000000E+00 0. -1.
          6    2    1    2  502    0 -0.17043400416E+03  0.63332073568E+02  0.37728217364E+03  0.45353062038E+03  0.17403874212E+03 0.  0.
         24    2    3    3    0    0 -0.51986185191E+02  0.19240364534E+02  0.64710159143E+02  0.11634029004E+03  0.79214287305E+02 0.  0.
         -6    2    1    2    0  501  0.17043400416E+03 -0.63332073568E+02  0.38626687633E+03  0.46054281966E+03  0.17273936342E+03 0.  0.
        -24    2    5    5    0    0  0.98416408184E+02  0.64119729760E+01  0.11543619029E+03  0.17171394877E+03  0.80207626675E+02 0.  0.
          5    1    3    3  502    0 -0.11844781897E+03  0.44091709034E+02  0.31257201450E+03  0.33719033033E+03  0.47000000000E+01 0. -1.
        -11    1    4    4    0    0 -0.24790715284E+02  0.48971114272E+02  0.27067215671E+02  0.61199540534E+02  0.00000000000E+00 0.  1.
         12    1    4    4    0    0 -0.27195469907E+02 -0.29730749738E+02  0.37642943471E+02  0.55140749511E+02  0.00000000000E+00 0. -1.
         -5    1    5    5    0  501  0.72017595978E+02 -0.69744046544E+02  0.27083068604E+03  0.28882887089E+03  0.47000000000E+01 0.  1.
         11    1    6    6    0    0 -0.12802523954E+02  0.64293099642E+01  0.22999959156E+02  0.27096840542E+02  0.00000000000E+00 0. -1.
        -12    1    6    6    0    0  0.11121893214E+03 -0.17336988209E-01  0.92436231136E+02  0.14461710823E+03  0.00000000000E+00 0.  1.
</event>
<event>
12    1  0.2609167E-002  0.3193973E+03  0.7818608E-02  0.1075927E+00
         -2   -1    0    0    0  501 -0.00000000000E+00  0.00000000000E+00  0.29838701390E+03  0.29838701390E+03  0.00000000000E+00 0. -1.
          2   -1    0    0  502    0  0.00000000000E+00 -0.00000000000E+00 -0.70424658110E+03  0.70424658110E+03  0.00000000000E+00 0.  1.
          6    2    1    2  502    0  0.26038330440E+03  0.68172711381E+02 -0.56264266990E+03  0.64715991051E+03  0.17263311382E+03 0.  0.
         24    2    3    3    0    0  0.17364845540E+03  0.11140840115E+03 -0.36450119098E+03  0.42653716787E+03  0.80667338121E+02 0.  0.
         -6    2    1    2    0  501 -0.26038330440E+03 -0.68172711381E+02  0.15678310270E+03  0.35547368448E+03  0.17127059082E+03 0.  0.
        -24    2    5    5    0    0 -0.80554649761E+02  0.19795899400E+02  0.83807654013E+02  0.14234384700E+03  0.79731541294E+02 0.  0.
          5    1    3    3  502    0  0.86734849006E+02 -0.43235689765E+02 -0.19814147892E+03  0.22062274264E+03  0.47000000000E+01 0. -1.
        -11    1    4    4    0    0  0.16701085737E+03  0.86856444361E+02 -0.34959945367E+03  0.39705975169E+03  0.00000000000E+00 0.  1.
         12    1    4    4    0    0  0.66375980252E+01  0.24551956785E+02 -0.14901737306E+02  0.29477416173E+02  0.00000000000E+00 0. -1.
         -5    1    5    5    0  501 -0.17982865464E+03 -0.87968610781E+02  0.72975448685E+02  0.21312983748E+03  0.47000000000E+01 0.  1.
         11    1    6    6    0    0 -0.19888050761E+02 -0.14624997137E+02  0.65839486359E+02  0.70315453979E+02  0.00000000000E+00 0. -1.
        -12    1    6    6    0    0 -0.60666599000E+02  0.34420896537E+02  0.17968167654E+02  0.72028393023E+02  0.00000000000E+00 0.  1.
</event>
<event>
12    1  0.2609167E-002  0.1823937E+03  0.7818608E-02  0.1165506E+00
         -2   -1    0    0    0  501 -0.00000000000E+00  0.00000000000E+00  0.20021410718E+02  0.20021410718E+02  0.00000000000E+00 0. -1.
          2   -1    0    0  502    0  0.00000000000E+00 -0.00000000000E+00 -0.17074411731E+04  0.17074411731E+04  0.00000000000E+00 0.  1.
          6    2    1    2  502    0 -0.13530292660E+02  0.56846774763E+02 -0.70546784924E+03  0.72884623838E+03  0.17354344778E+03 0.  0.
         24    2    3    3    0    0  0.40622152061E+02  0.37106721604E+02 -0.60876722098E+03  0.61617300077E+03  0.77746829583E+02 0.  0.
         -6    2    1    2    0  501  0.13530292660E+02 -0.56846774763E+02 -0.98195191311E+03  0.99861634540E+03  0.17201866477E+03 0.  0.
        -24    2    5    5    0    0 -0.10032539369E+02 -0.82517543720E+02 -0.92073555605E+03  0.92802082286E+03  0.80986953360E+02 0.  0.
          5    1    3    3  502    0 -0.54152444721E+02  0.19740053159E+02 -0.96700628263E+02  0.11267323761E+03  0.47000000000E+01 0. -1.
        -13    1    4    4    0    0 -0.61436857929E+00  0.49374913053E+02 -0.39864297448E+03  0.40168953259E+03  0.00000000000E+00 0.  1.
         14    1    4    4    0    0  0.41236520640E+02 -0.12268191449E+02 -0.21012424650E+03  0.21448346818E+03  0.00000000000E+00 0. -1.
         -5    1    5    5    0  501  0.23562832029E+02  0.25670768957E+02 -0.61216357056E+02  0.70595522544E+02  0.47000000000E+01 0.  1.
         11    1    6    6    0    0 -0.32393702058E+02 -0.13865399003E+02 -0.15830540074E+03  0.16217953362E+03  0.00000000000E+00 0. -1.
        -12    1    6    6    0    0  0.22361162689E+02 -0.68652144717E+02 -0.76243015531E+03  0.76584128924E+03  0.00000000000E+00 0.  1.
</event>
<event>
12    1  0.2609167E-002  0.1728373E+03  0.7818608E-02  0.1174921E+00
         -1   -1    0    0    0  501 -0.00000000000E+00  0.00000000000E+00  0.92937399885E+03  0.92937399885E+03  0.00000000000E+00 0. -1.
          1   -1    0    0  502    0  0.00000000000E+00 -0.00000000000E+00 -0.33377868263E+02  0.33377868263E+02  0.00000000000E+00 0.  1.
          6    2    1    2  502    0 -0.95898277642E+01 -0.52886209948E+01  0.35385365722E+03  0.39353430899E+03  0.17186304814E+03 0.  0.
         24    2    3    3    0    0  0.88722140555E+01 -0.41513112017E+01  0.61877948278E+02  0.10093553067E+03  0.79140073932E+02 0.  0.
         -6    2    1    2    0  501  0.95898277642E+01  0.52886209948E+01  0.54214247337E+03  0.56921755813E+03  0.17311912875E+03 0.  0.
        -24    2    5    5    0    0  0.58336550815E+02  0.45338584036E+02  0.28821819341E+03  0.30753096599E+03  0.77761350743E+02 0.  0.
          5    1    3    3  502    0 -0.18462041820E+02 -0.11373097931E+01  0.29197570894E+03  0.29259877832E+03  0.47000000000E+01 0. -1.
        -11    1    4    4    0    0 -0.28135331545E+02  0.11348625961E+02  0.51039089686E+02  0.59374884154E+02  0.00000000000E+00 0.  1.
         12    1    4    4    0    0  0.37007545600E+02 -0.15499937162E+02  0.10838858592E+02  0.41560646518E+02  0.00000000000E+00 0. -1.
         -5    1    5    5    0  501 -0.48746723051E+02 -0.40049963042E+02  0.25392427997E+03  0.26168659214E+03  0.47000000000E+01 0.  1.
         11    1    6    6    0    0  0.71442719371E+01 -0.20146719309E+02  0.91675158346E+02  0.94134295441E+02  0.00000000000E+00 0. -1.
        -12    1    6    6    0    0  0.51192278878E+02  0.65485303345E+02  0.19654303506E+03  0.21339667055E+03  0.00000000000E+00 0.  1.
</event>
<event>
12    1  0.2609167E-002  0.1825923E+03  0.7818608E-02  0.1165318E+00
         -1   -1    0    0    0  501 -0.00000000000E+00  0.00000000000E+00  0.40363680440E+03  0.40363680440E+03  0.00000000000E+00 0. -1.
          1   -1    0    0  502    0  0.00000000000E+00 -0.00000000000E+00 -0.13174113082E+03  0.13174113082E+03  0.00000000000E+00 0.  1.
          6    2    1    2  502    0 -0.38366479472E+02 -0.43727075321E+02 -0.27903608516E+02  0.18394607882E+03  0.17225999153E+03 0.  0.
         24    2    3    3    0    0 -0.62846661294E+02 -0.73899836918E+02 -0.54522943731E+02  0.13661370247E+03  0.79244328353E+02 0.  0.
         -6    2    1    2    0  501  0.38366479472E+02  0.43727075321E+02  0.29979928210E+03  0.35143185639E+03  0.17389852293E+03 0.  0.
        -24    2    5    5    0    0 -0.16421206202E+02  0.25771390360E+02  0.27576995057E+03  0.28879324292E+03  0.80116483604E+02 0.  0.
          5    1    3    3  502    0  0.24480181822E+02  0.30172761596E+02  0.26619335215E+02  0.47332376358E+02  0.47000000000E+01 0. -1.
        -13    1    4    4    0    0  0.31513102481E+01 -0.50165982985E+02 -0.41710805346E+02  0.65317286285E+02  0.00000000000E+00 0.  1.
         14    1    4    4    0    0 -0.65997971542E+02 -0.23733853933E+02 -0.12812138385E+02  0.71296416180E+02  0.00000000000E+00 0. -1.
         -5    1    5    5    0  501  0.54787685674E+02  0.17955684961E+02  0.24029331528E+02  0.62638613471E+02  0.47000000000E+01 0.  1.
         11    1    6    6    0    0  0.31794022155E+02  0.50120640662E+01  0.12768247177E+03  0.13167685533E+03  0.00000000000E+00 0. -1.
        -12    1    6    6    0    0 -0.48215228357E+02  0.20759326294E+02  0.14808747880E+03  0.15711638759E+03  0.00000000000E+00 0.  1.
</event>
<event>
12    1  0.2609167E-002  0.1767805E+03  0.7818608E-02  0.1170956E+00
          2   -1    0    0  502    0  0.00000000000E+00  0.00000000000E+00  0.27834065248E+04  0.27834065248E+04  0.00000000000E+00 0.  1.
         -2   -1    0    0    0  501 -0.00000000000E+00 -0.00000000000E+00 -0.11756518933E+02  0.11756518933E+02  0.00000000000E+00 0. -1.
          6    2    1    2  502    0  0.43176368985E+01 -0.46988120366E+02  0.11033902456E+04  0.11177526514E+04  0.17226267785E+03 0.  0.
         24    2    3    3    0    0 -0.45933855841E+02 -0.57647778227E+02  0.94030840959E+03  0.94670699648E+03  0.81492616851E+02 0.  0.
         -6    2    1    2    0  501 -0.43176368985E+01  0.46988120366E+02  0.16682597603E+04  0.16774103924E+04  0.16848878640E+03 0.  0.
        -24    2    5    5    0    0  0.51070097193E+02  0.37491086775E+02  0.65132102706E+03  0.65890930160E+03  0.76997733909E+02 0.  0.
          5    1    3    3  502    0  0.50251492740E+02  0.10659657861E+02  0.16308183600E+03  0.17104565490E+03  0.47000000000E+01 0. -1.
        -13    1    4    4    0    0  0.16961244877E+02 -0.23832956984E+02  0.48020668458E+03  0.48109682350E+03  0.00000000000E+00 0.  1.
         14    1    4    4    0    0 -0.62895100719E+02 -0.33814821243E+02  0.46010172501E+03  0.46561017298E+03  0.00000000000E+00 0. -1.
         -5    1    5    5    0  501 -0.55387734091E+02  0.94970335908E+01  0.10169387332E+04  0.10185010908E+04  0.47000000000E+01 0.  1.
         11    1    6    6    0    0  0.21854122398E+02  0.40310696056E+02  0.57965079864E+03  0.58146160943E+03  0.00000000000E+00 0. -1.
        -12    1    6    6    0    0  0.29215974795E+02 -0.28196092809E+01  0.71670228422E+02  0.77447692166E+02  0.00000000000E+00 0.  1.
</event>
<event>
12    1  0.2609167E-002  0.1745682E+03  0.7818608E-02  0.1173166E+00
         -2   -1    0    0    0  501 -0.00000000000E+00  0.00000000000E+00  0.35639296013E+02  0.35639296013E+02  0.00000000000E+00 0. -1.
          2   -1    0    0  502    0  0.00000000000E+00 -0.00000000000E+00 -0.10319416288E+04  0.10319416288E+04  0.00000000000E+00 0.  1.
          6    2    1    2  502    0 -0.10322609686E+02 -0.25685730330E+02 -0.27759841964E+03  0.32802365180E+03  0.17254657500E+03 0.  0.
         24    2    3    3    0    0  0.17608629878E+02  0.23226878844E+02 -0.25185557967E+03  0.26591583193E+03  0.80190054960E+02 0.  0.
         -6    2    1    2    0  501  0.10322609686E+02  0.25685730330E+02 -0.71870391313E+03  0.73955727299E+03  0.17217239113E+03 0.  0.
        -24    2    5    5    0    0 -0.48422575762E+02 -0.21748724281E+02 -0.33128299932E+03  0.34481928552E+03  0.79587443565E+02 0.  0.
          5    1    3    3  502    0 -0.27931239564E+02 -0.48912609174E+02 -0.25742839969E+02  0.62107819873E+02  0.47000000000E+01 0. -1.
        -13    1    4    4    0    0  0.40844009102E+02  0.33323743991E+02 -0.21377243931E+03  0.22017574980E+03  0.00000000000E+00 0.  1.
         14    1    4    4    0    0 -0.23235379224E+02 -0.10096865147E+02 -0.38083140361E+02  0.45740082129E+02  0.00000000000E+00 0. -1.
         -5    1    5    5    0  501  0.58745185448E+02  0.47434454611E+02 -0.38742091381E+03  0.39473798747E+03  0.47000000000E+01 0.  1.
         11    1    6    6    0    0 -0.17975506625E+02  0.13876080401E+02 -0.20720454142E+02  0.30740879388E+02  0.00000000000E+00 0. -1.
        -12    1    6    6    0    0 -0.30447069137E+02 -0.35624804682E+02 -0.31056254518E+03  0.31407840613E+03  0.00000000000E+00 0.  1.
</event>
<event>
12    1  0.2609167E-002  0.2548653E+03  0.7818608E-02  0.1110268E+00
         -3   -1    0    0    0  501 -0.00000000000E+00  0.00000000000E+00  0.58739514158E+02  0.58739514158E+02  0.00000000000E+00 0.  1.
          3   -1    0    0  502    0  0.00000000000E+00 -0.00000000000E+00 -0.12415621320E+04  0.12415621320E+04  0.00000000000E+00 0. -1.
          6    2    1    2  502    0 -0.18255462702E+03 -0.41730505345E+02 -0.80553251738E+03  0.84476790587E+03  0.17228624820E+03 0.  0.
         24    2    3    3    0    0 -0.20347882559E+02 -0.16178889998E+02 -0.36758747872E+03  0.37702667412E+03  0.79704238794E+02 0.  0.
         -6    2    1    2    0  501  0.18255462702E+03  0.41730505345E+02 -0.37729010048E+03  0.45553374030E+03  0.17348066667E+03 0.  0.
        -24    2    5    5    0    0  0.12605325367E+03 -0.96636023275E+00 -0.34825585768E+03  0.37884929093E+03  0.79713776828E+02 0.  0.
          5    1    3    3  502    0 -0.16220674446E+03 -0.25551615347E+02 -0.43794503866E+03  0.46774123175E+03  0.47000000000E+01 0. -1.
        -11    1    4    4    0    0  0.24011360834E+02 -0.26095727348E+01 -0.44554489265E+02  0.50679954939E+02  0.00000000000E+00 0.  1.
         12    1    4    4    0    0 -0.44359243393E+02 -0.13569317264E+02 -0.32303298945E+03  0.32634671918E+03  0.00000000000E+00 0. -1.
         -5    1    5    5    0  501  0.56501373345E+02  0.42696865578E+02 -0.29034242799E+02  0.76684449368E+02  0.47000000000E+01 0.  1.
         13    1    6    6    0    0  0.12398755730E+03  0.21950447397E+02 -0.28662950932E+03  0.31306742424E+03  0.00000000000E+00 0. -1.
        -14    1    6    6    0    0  0.20656963767E+01 -0.22916807630E+02 -0.61626348357E+02  0.65781866691E+02  0.00000000000E+00 0.  1.
</event>
<event>
12    1  0.2609167E-002  0.2074191E+03  0.7818608E-02  0.1143626E+00
         -2   -1    0    0    0  501 -0.00000000000E+00  0.00000000000E+00  0.36430041408E+02  0.36430041408E+02  0.00000000000E+00 0. -1.
          2   -1    0    0  502    0  0.00000000000E+00 -0.00000000000E+00 -0.16422803831E+04  0.16422803831E+04  0.00000000000E+00 0.  1.
          6    2    1    2  502    0 -0.11629968758E+03  0.91234694630E+01 -0.12475531475E+04  0.12646649550E+04  0.17140518526E+03 0.  0.
         24    2    3    3    0    0 -0.13731758400E+03 -0.11145249746E+01 -0.77795619655E+03  0.79446291880E+03  0.84250368308E+02 0.  0.
         -6    2    1    2    0  501  0.11629968758E+03 -0.91234694630E+01 -0.35829719426E+03  0.41404546958E+03  0.17160395227E+03 0.  0.
        -24    2    5    5    0    0  0.45748812280E+02  0.36107262973E+02 -0.28677103723E+03  0.30376706597E+03  0.81486896557E+02 0.  0.
          5    1    3    3  502    0  0.21017896420E+02  0.10237994438E+02 -0.46959695092E+03  0.47020203617E+03  0.47000000000E+01 0. -1.
        -11    1    4    4    0    0 -0.68704084467E+02 -0.24383363771E+01 -0.59675095972E+03  0.60069784803E+03  0.00000000000E+00 0.  1.
         12    1    4    4    0    0 -0.68613499536E+02  0.13238114025E+01 -0.18120523683E+03  0.19376507077E+03  0.00000000000E+00 0. -1.
         -5    1    5    5    0  501  0.70550875303E+02 -0.45230732436E+02 -0.71526157035E+02  0.11027840361E+03  0.47000000000E+01 0.  1.
         11    1    6    6    0    0  0.22059503204E+02  0.44806761156E+02 -0.72629863574E+02  0.88143999283E+02  0.00000000000E+00 0. -1.
        -12    1    6    6    0    0  0.23689309076E+02 -0.86994981829E+01 -0.21414117365E+03  0.21562306669E+03  0.00000000000E+00 0.  1.
</event>
<event>
12    1  0.2609167E-002  0.1910315E+03  0.7818608E-02  0.1157534E+00
         -2   -1    0    0    0  501 -0.00000000000E+00  0.00000000000E+00  0.33664676108E+02  0.33664676108E+02  0.00000000000E+00 0.  1.
          2   -1    0    0  502    0  0.00000000000E+00 -0.00000000000E+00 -0.12860512084E+04  0.12860512084E+04  0.00000000000E+00 0. -1.
          6    2    1    2  502    0  0.59835640015E+02  0.53099175444E+02 -0.88497146165E+03  0.90514686585E+03  0.17238484437E+03 0.  0.
         24    2    3    3    0    0 -0.90901839132E+01  0.65777918347E+02 -0.33830597705E+03  0.35398739547E+03  0.80291818158E+02 0.  0.
         -6    2    1    2    0  501 -0.59835640015E+02 -0.53099175444E+02 -0.36741507065E+03  0.41456901867E+03  0.17456749655E+03 0.  0.
        -24    2    5    5    0    0 -0.10770804187E+03 -0.33059744311E+02 -0.29190120320E+03  0.32282055908E+03  0.79453331971E+02 0.  0.
          5    1    3    3  502    0  0.68925823929E+02 -0.12678742903E+02 -0.54666548461E+03  0.55115947038E+03  0.47000000000E+01 0. -1.
        -13    1    4    4    0    0 -0.15540385705E+02  0.69926962456E+02 -0.33881165491E+03  0.34630134445E+03  0.00000000000E+00 0.  1.
         14    1    4    4    0    0  0.64502017917E+01 -0.41490441089E+01  0.50567786579E+00  0.76860510196E+01  0.00000000000E+00 0. -1.
         -5    1    5    5    0  501  0.47872401850E+02 -0.20039431134E+02 -0.75513867454E+02  0.91748459588E+02  0.47000000000E+01 0.  1.
         11    1    6    6    0    0 -0.13578575059E+02  0.24138172159E+02 -0.56232364132E+02  0.62682595924E+02  0.00000000000E+00 0. -1.
        -12    1    6    6    0    0 -0.94129466806E+02 -0.57197916470E+02 -0.23566883906E+03  0.26013796316E+03  0.00000000000E+00 0.  1.
</event>
<event>
12    1  0.2609167E-002  0.1894860E+03  0.7818608E-02  0.1158926E+00
          1   -1    0    0  502    0  0.00000000000E+00  0.00000000000E+00  0.13924998260E+04  0.13924998260E+04  0.00000000000E+00 0.  1.
         -1   -1    0    0    0  501 -0.00000000000E+00 -0.00000000000E+00 -0.25880039989E+02  0.25880039989E+02  0.00000000000E+00 0. -1.
          6    2    1    2  502    0  0.35026145658E+02 -0.71801809656E+02  0.64031307311E+03  0.66776879411E+03  0.17184877086E+03 0.  0.
         24    2    3    3    0    0 -0.39703290142E+02 -0.45633499627E+02  0.26010642850E+03  0.27937665770E+03  0.82080418995E+02 0.  0.
         -6    2    1    2    0  501 -0.35026145658E+02  0.71801809656E+02  0.72630671292E+03  0.75061107189E+03  0.17179408974E+03 0.  0.
        -24    2    5    5    0    0 -0.86893612762E+02  0.57240574307E+02  0.44796964438E+03  0.46706940398E+03  0.81547793133E+02 0.  0.
          5    1    3    3  502    0  0.74729435800E+02 -0.26168310029E+02  0.38020664461E+03  0.38839213641E+03  0.47000000000E+01 0. -1.
        -13    1    4    4    0    0 -0.18583555922E+02  0.61572140061E+01  0.80136076385E+01  0.21153669715E+02  0.00000000000E+00 0.  1.
         14    1    4    4    0    0 -0.21119734220E+02 -0.51790713633E+02  0.25209282087E+03  0.25822298799E+03  0.00000000000E+00 0. -1.
         -5    1    5    5    0  501  0.51867467104E+02  0.14561235349E+02  0.27833706853E+03  0.28354166791E+03  0.47000000000E+01 0.  1.
         13    1    6    6    0    0 -0.74106043750E+01 -0.19858166686E+02  0.61580144895E+02  0.65125863423E+02  0.00000000000E+00 0. -1.
        -14    1    6    6    0    0 -0.79483008387E+02  0.77098740993E+02  0.38638949949E+03  0.40194354056E+03  0.00000000000E+00 0.  1.
</event>
<event>
12    1  0.2609167E-002  0.2515521E+03  0.7818608E-02  0.1112328E+00
          4   -1    0    0  502    0  0.00000000000E+00  0.00000000000E+00  0.40013760664E+02  0.40013760664E+02  0.00000000000E+00 0.  1.
         -4   -1    0    0    0  501 -0.00000000000E+00 -0.00000000000E+00 -0.16996243337E+04  0.16996243337E+04  0.00000000000E+00 0. -1.
          6    2    1    2  502    0 -0.17077548607E+03  0.48717234034E+02 -0.61341888580E+03  0.66457117072E+03  0.18394150144E+03 0.  0.
         24    2    3    3    0    0 -0.18921533804E+03  0.32472261820E+02 -0.43599307603E+03  0.48538987918E+03  0.93040209197E+02 0.  0.
         -6    2    1    2    0  501  0.17077548607E+03 -0.48717234034E+02 -0.10461916872E+04  0.10750669236E+04  0.17237809708E+03 0.  0.
        -24    2    5    5    0    0  0.10156430184E+03  0.21114177260E+02 -0.39131404359E+03  0.41283325479E+03  0.80891901087E+02 0.  0.
          5    1    3    3  502    0  0.18439851970E+02  0.16244972214E+02 -0.17742580978E+03  0.17918129154E+03  0.47000000000E+01 0. -1.
        -11    1    4    4    0    0 -0.19683962633E+03  0.24799550976E+02 -0.42859132417E+03  0.47228315593E+03  0.00000000000E+00 0.  1.
         12    1    4    4    0    0  0.76242882954E+01  0.76727108431E+01 -0.74017518612E+01  0.13106723248E+02  0.00000000000E+00 0. -1.
         -5    1    5    5    0  501  0.69211184228E+02 -0.69831411294E+02 -0.65487764361E+03  0.66223366883E+03  0.47000000000E+01 0.  1.
         11    1    6    6    0    0  0.10554817600E+03 -0.13941662504E+00 -0.35698350900E+03  0.37226020817E+03  0.00000000000E+00 0. -1.
        -12    1    6    6    0    0 -0.39838741602E+01  0.21253593885E+02 -0.34330534589E+02  0.40573046614E+02  0.00000000000E+00 0.  1.
</event>
<event>
12    1  0.2609167E-002  0.2664734E+03  0.7818608E-02  0.1103315E+00
         -4   -1    0    0    0  501 -0.00000000000E+00  0.00000000000E+00  0.15584127297E+03  0.15584127297E+03  0.00000000000E+00 0.  1.
          4   -1    0    0  502    0  0.00000000000E+00 -0.00000000000E+00 -0.10027367185E+04  0.10027367185E+04  0.00000000000E+00 0. -1.
          6    2    1    2  502    0 -0.24837285710E+02 -0.20167066683E+03 -0.85144395379E+03  0.89221246323E+03  0.17262191192E+03 0.  0.
         24    2    3    3    0    0 -0.52465619120E+02 -0.20208280633E+03 -0.82134857934E+03  0.85108684798E+03  0.78391531590E+02 0.  0.
         -6    2    1    2    0  501  0.24837285710E+02  0.20167066683E+03  0.45485082128E+01  0.26636552829E+03  0.17216839754E+03 0.  0.
        -24    2    5    5    0    0  0.78089599325E+02  0.10897260623E+03 -0.18968340883E+02  0.15680334715E+03  0.79085253307E+02 0.  0.
          5    1    3    3  502    0  0.27628333410E+02  0.41213950069E+00 -0.30095374451E+02  0.41125615245E+02  0.47000000000E+01 0. -1.
        -11    1    4    4    0    0 -0.56501888729E+02 -0.66091355205E+02 -0.32448777549E+03  0.33593577824E+03  0.00000000000E+00 0.  1.
         12    1    4    4    0    0  0.40362696090E+01 -0.13599145112E+03 -0.49686080385E+03  0.51515106974E+03  0.00000000000E+00 0. -1.
         -5    1    5    5    0  501 -0.53252313615E+02  0.92698060599E+02  0.23516849096E+02  0.10956218114E+03  0.47000000000E+01 0.  1.
         11    1    6    6    0    0  0.53042825811E+02  0.11685912223E+03 -0.22553637354E+02  0.13030066146E+03  0.00000000000E+00 0. -1.
        -12    1    6    6    0    0  0.25046773514E+02 -0.78865160020E+01  0.35852964704E+01  0.26502685692E+02  0.00000000000E+00 0.  1.
</event>
<event>
12    1  0.2609167E-002  0.2097164E+03  0.7818608E-02  0.1141791E+00
          2   -1    0    0  502    0  0.00000000000E+00  0.00000000000E+00  0.60963918473E+03  0.60963918473E+03  0.00000000000E+00 0. -1.
         -2   -1    0    0    0  501 -0.00000000000E+00 -0.00000000000E+00 -0.13852229506E+03  0.13852229506E+03  0.00000000000E+00 0.  1.
          6    2    1    2  502    0  0.80799457390E+02 -0.90827817503E+02 -0.22947974497E+02  0.21172590735E+03  0.17182259911E+03 0.  0.
         24    2    3    3    0    0  0.13283947932E+02 -0.12834530546E+02  0.40949252217E+02  0.90291800079E+02  0.78323556209E+02 0.  0.
         -6    2    1    2    0  501 -0.80799457390E+02  0.90827817503E+02  0.49406486417E+03  0.53643557244E+03  0.16995525477E+03 0.  0.
        -24    2    5    5    0    0 -0.12098935259E+03  0.57725606693E+02  0.35674385249E+03  0.38949975555E+03  0.80456287350E+02 0.  0.
          5    1    3    3  502    0  0.67515509459E+02 -0.77993286957E+02 -0.63897226714E+02  0.12143410727E+03  0.47000000000E+01 0. -1.
        -13    1    4    4    0    0  0.45833558880E+02 -0.16590610168E+01  0.20280094073E+02  0.50147281269E+02  0.00000000000E+00 0.  1.
         14    1    4    4    0    0 -0.32549610948E+02 -0.11175469529E+02  0.20669158145E+02  0.40144518810E+02  0.00000000000E+00 0. -1.
         -5    1    5    5    0  501  0.40189895198E+02  0.33102210810E+02  0.13732101168E+03  0.14693581689E+03  0.47000000000E+01 0.  1.
         11    1    6    6    0    0 -0.10376365211E+03  0.66395940097E+02  0.22646839299E+03  0.25780467293E+03  0.00000000000E+00 0. -1.
        -12    1    6    6    0    0 -0.17225700482E+02 -0.86703334045E+01  0.13027545949E+03  0.13169508261E+03  0.00000000000E+00 0.  1.
</event>
<event>
12    1  0.2609167E-002  0.2106544E+03  0.7818608E-02  0.1141049E+00
          2   -1    0    0  502    0  0.00000000000E+00  0.00000000000E+00  0.27077187049E+04  0.27077187049E+04  0.00000000000E+00 0. -1.
         -2   -1    0    0    0  501 -0.00000000000E+00 -0.00000000000E+00 -0.50084340674E+02  0.50084340674E+02  0.00000000000E+00 0.  1.
          6    2    1    2  502    0 -0.25902399409E+02  0.11939368608E+03  0.19730708739E+03  0.28845381831E+03  0.17131763479E+03 0.  0.
         24    2    3    3    0    0 -0.34562751994E+02  0.14071860314E+02  0.14564717630E+03  0.17073158123E+03  0.80892346893E+02 0.  0.
         -6    2    1    2    0  501  0.25902399409E+02 -0.11939368608E+03  0.24603272768E+04  0.24693492272E+04  0.17189971054E+03 0.  0.
        -24    2    5    5    0    0  0.12553463046E+02  0.95203919008E+01  0.10612282609E+04  0.10642523694E+04  0.78609520631E+02 0.  0.
          5    1    3    3  502    0  0.86603525855E+01  0.10532182577E+03  0.51659911091E+02  0.11772223708E+03  0.47000000000E+01 0. -1.
        -13    1    4    4    0    0 -0.40200428090E+02  0.29738865553E+02  0.40707745032E+02  0.64479415697E+02  0.00000000000E+00 0.  1.
         14    1    4    4    0    0  0.56376760959E+01 -0.15667005239E+02  0.10493943127E+03  0.10625216553E+03  0.00000000000E+00 0. -1.
         -5    1    5    5    0  501  0.13348936362E+02 -0.12891407798E+03  0.13990990159E+04  0.14050968578E+04  0.47000000000E+01 0.  1.
         13    1    6    6    0    0  0.28800049063E+02 -0.16763535386E+02  0.86184028011E+03  0.86248427659E+03  0.00000000000E+00 0. -1.
        -14    1    6    6    0    0 -0.16246586017E+02  0.26283927287E+02  0.19938798081E+03  0.20176809282E+03  0.00000000000E+00 0.  1.
</event>
<event>
12    1  0.2609167E-002  0.2308080E+03  0.7818608E-02  0.1126072E+00
          2   -1    0    0  502    0  0.00000000000E+00  0.00000000000E+00  0.39353259899E+03  0.39353259899E+03  0.00000000000E+00 0. -1.
         -2   -1    0    0    0  501 -0.00000000000E+00 -0.00000000000E+00 -0.13542777352E+03  0.13542777352E+03  0.00000000000E+00 0.  1.
          6    2    1    2  502    0 -0.29328093276E+01 -0.15523522384E+03  0.12399508346E+03  0.26259774850E+03  0.17168640222E+03 0.  0.
         24    2    3    3    0    0 -0.25119847253E+02 -0.12665293661E+03  0.15470522422E+03  0.21490692611E+03  0.74694761605E+02 0.  0.
         -6    2    1    2    0  501  0.29328093276E+01  0.15523522384E+03  0.13410974200E+03  0.26636262400E+03  0.16987362501E+03 0.  0.
        -24    2    5    5    0    0 -0.46408492097E+02  0.40250061599E+02  0.85329437628E+02  0.13198346023E+03  0.79779102842E+02 0.  0.
          5    1    3    3  502    0  0.22187037926E+02 -0.28582287228E+02 -0.30710140759E+02  0.47690822394E+02  0.47000000000E+01 0. -1.
        -13    1    4    4    0    0 -0.44055392721E+02 -0.64633197410E+02  0.53705240777E+02  0.94881930430E+02  0.00000000000E+00 0.  1.
         14    1    4    4    0    0  0.18935545467E+02 -0.62019739202E+02  0.10099998344E+03  0.12002499568E+03  0.00000000000E+00 0. -1.
         -5    1    5    5    0  501  0.49341301425E+02  0.11498516224E+03  0.48780304376E+02  0.13437916378E+03  0.47000000000E+01 0.  1.
         13    1    6    6    0    0  0.13102274645E+02  0.34951640798E+02  0.50595734640E+02  0.62874598680E+02  0.00000000000E+00 0. -1.
        -14    1    6    6    0    0 -0.59510766742E+02  0.52984208007E+01  0.34733702988E+02  0.69108861548E+02  0.00000000000E+00 0.  1.
</event>
<event>
12    1  0.2609167E-002  0.1810103E+03  0.7818608E-02  0.1166829E+00
          2   -1    0    0  502    0  0.00000000000E+00  0.00000000000E+00  0.10963144135E+03  0.10963144135E+03  0.00000000000E+00 0.  1.
         -2   -1    0    0    0  501 -0.00000000000E+00 -0.00000000000E+00 -0.30041194295E+03  0.30041194295E+03  0.00000000000E+00 0. -1.
          6    2    1    2  502    0  0.27821514711E+02  0.48476801502E+02 -0.11017396476E+03  0.21200284691E+03  0.17228716616E+03 0.  0.
         24    2    3    3    0    0 -0.34314486412E+02  0.52049394666E+02 -0.10812278694E+03  0.14955332019E+03  0.82395600977E+02 0.  0.
         -6    2    1    2    0  501 -0.27821514711E+02 -0.48476801502E+02 -0.80606536832E+02  0.19804053739E+03  0.17204244740E+03 0.  0.
        -24    2    5    5    0    0  0.11928296761E+00  0.22492103786E+02  0.67971639645E+01  0.81942429717E+02  0.78501282721E+02 0.  0.
          5    1    3    3  502    0  0.62136001123E+02 -0.35725931639E+01 -0.20511778187E+01  0.62449526723E+02  0.47000000000E+01 0. -1.
        -13    1    4    4    0    0 -0.26452424048E+02  0.41181015421E+02 -0.92954533967E+01  0.49819797500E+02  0.00000000000E+00 0.  1.
         14    1    4    4    0    0 -0.78620623640E+01  0.10868379246E+02 -0.98827333547E+02  0.99733522689E+02  0.00000000000E+00 0. -1.
         -5    1    5    5    0  501 -0.27940797678E+02 -0.70968905288E+02 -0.87403700797E+02  0.11609810768E+03  0.47000000000E+01 0.  1.
         11    1    6    6    0    0  0.16940681898E+02 -0.16024280924E+02 -0.21140192510E+02  0.31474942759E+02  0.00000000000E+00 0. -1.
        -12    1    6    6    0    0 -0.16821398931E+02  0.38516384710E+02  0.27937356474E+02  0.50467486958E+02  0.00000000000E+00 0.  1.
</event>
<event>
12    1  0.2609167E-002  0.2064486E+03  0.7818608E-02  0.1144410E+00
          1   -1    0    0  502    0  0.00000000000E+00  0.00000000000E+00  0.63292882862E+03  0.63292882862E+03  0.00000000000E+00 0.  1.
         -1   -1    0    0    0  501 -0.00000000000E+00 -0.00000000000E+00 -0.70718286258E+02  0.70718286258E+02  0.00000000000E+00 0. -1.
          6    2    1    2  502    0 -0.30643748964E+01  0.11884789852E+03  0.35643464121E+03  0.41131102881E+03  0.16732272886E+03 0.  0.
         24    2    3    3    0    0  0.31798038184E+01  0.15119901724E+03  0.28370843083E+03  0.33133117931E+03  0.80116307290E+02 0.  0.
         -6    2    1    2    0  501  0.30643748964E+01 -0.11884789852E+03  0.20577590115E+03  0.29233608606E+03  0.17024233417E+03 0.  0.
        -24    2    5    5    0    0 -0.64062941141E+02 -0.76898322063E+02  0.12466210384E+03  0.17890160437E+03  0.80297768010E+02 0.  0.
          5    1    3    3  502    0 -0.62441787148E+01 -0.32351118716E+02  0.72726210384E+02  0.79979849504E+02  0.47000000000E+01 0. -1.
        -11    1    4    4    0    0  0.36002143371E+01  0.31908531685E+02  0.14439697825E+03  0.14792431600E+03  0.00000000000E+00 0.  1.
         12    1    4    4    0    0 -0.42041051874E+00  0.11929048555E+03  0.13931145258E+03  0.18340686331E+03  0.00000000000E+00 0. -1.
         -5    1    5    5    0  501  0.67127316038E+02 -0.41949576460E+02  0.81113797305E+02  0.11343448169E+03  0.47000000000E+01 0.  1.
         11    1    6    6    0    0 -0.41661932892E+02 -0.25234968030E+01  0.14656904549E+02  0.44236970278E+02  0.00000000000E+00 0. -1.
        -12    1    6    6    0    0 -0.22401008249E+02 -0.74374825260E+02  0.11000519930E+03  0.13466463409E+03  0.00000000000E+00 0.  1.
</event>
<event>
12    1  0.2609167E-002  0.2064909E+03  0.7818608E-02  0.1144375E+00
         -2   -1    0    0    0  501 -0.00000000000E+00  0.00000000000E+00  0.58138299551E+02  0.58138299551E+02  0.00000000000E+00 0. -1.
          2   -1    0    0  502    0  0.00000000000E+00 -0.00000000000E+00 -0.75584187488E+03  0.75584187488E+03  0.00000000000E+00 0.  1.
          6    2    1    2  502    0  0.10694589014E+02 -0.11275283041E+03 -0.41906284172E+03  0.46719587118E+03  0.17271578312E+03 0.  0.
         24    2    3    3    0    0  0.28437383860E-01 -0.13937955089E+03 -0.26200992071E+03  0.30747593182E+03  0.80408893047E+02 0.  0.
         -6    2    1    2    0  501 -0.10694589014E+02  0.11275283041E+03 -0.27864073361E+03  0.34678430325E+03  0.17260104158E+03 0.  0.
        -24    2    5    5    0    0 -0.17898864559E+02  0.10340762091E+02 -0.13749141228E+03  0.17218374702E+03  0.10156797514E+03 0.  0.
          5    1    3    3  502    0  0.10666151630E+02  0.26626720477E+02 -0.15705292101E+03  0.15971993936E+03  0.47000000000E+01 0. -1.
        -13    1    4    4    0    0  0.14822161881E+02 -0.15566331032E+01 -0.64368895006E+02  0.66071735513E+02  0.00000000000E+00 0.  1.
         14    1    4    4    0    0 -0.14793724497E+02 -0.13782291778E+03 -0.19764102571E+03  0.24140419631E+03  0.00000000000E+00 0. -1.
         -5    1    5    5    0  501  0.72042755451E+01  0.10241206832E+03 -0.14114932133E+03  0.17460055623E+03  0.47000000000E+01 0.  1.
         13    1    6    6    0    0 -0.28720653717E+02  0.34847890052E+02 -0.16210961987E+02  0.47979648597E+02  0.00000000000E+00 0. -1.
        -14    1    6    6    0    0  0.10821789158E+02 -0.24507127961E+02 -0.12128045029E+03  0.12420409842E+03  0.00000000000E+00 0.  1.
</event>
<event>
12    1  0.2609167E-002  0.2023089E+03  0.7818608E-02  0.1147805E+00
         -2   -1    0    0    0  501 -0.00000000000E+00  0.00000000000E+00  0.13449835228E+02  0.13449835228E+02  0.00000000000E+00 0. -1.
          2   -1    0    0  502    0  0.00000000000E+00 -0.00000000000E+00 -0.31012250402E+04  0.31012250402E+04  0.00000000000E+00 0.  1.
          6    2    1    2  502    0 -0.91013489714E+02  0.54970363220E+02 -0.13271620242E+04  0.13424226851E+04  0.17156465572E+03 0.  0.
         24    2    3    3    0    0  0.31730796867E+01 -0.18876188410E+02 -0.63232170552E+03  0.63733433505E+03  0.77446345526E+02 0.  0.
         -6    2    1    2    0  501  0.91013489714E+02 -0.54970363220E+02 -0.17606131808E+04  0.17722521903E+04  0.17266689710E+03 0.  0.
        -24    2    5    5    0    0  0.11151109987E+03 -0.56871965429E+02 -0.17196546360E+04  0.17261711692E+04  0.82375313857E+02 0.  0.
          5    1    3    3  502    0 -0.94186569400E+02  0.73846551630E+02 -0.69484031863E+03  0.70508835009E+03  0.47000000000E+01 0. -1.
        -13    1    4    4    0    0  0.16230982855E+02 -0.42281372322E+02 -0.51512623556E+03  0.51711333169E+03  0.00000000000E+00 0.  1.
         14    1    4    4    0    0 -0.13057903168E+02  0.23405183912E+02 -0.11719546997E+03  0.12022100336E+03  0.00000000000E+00 0. -1.
         -5    1    5    5    0  501 -0.20497610155E+02  0.19016022091E+01 -0.40958544848E+02  0.46081021138E+02  0.47000000000E+01 0.  1.
         11    1    6    6    0    0  0.36587866580E+02  0.17403432562E+02 -0.67126181151E+03  0.67248343551E+03  0.00000000000E+00 0. -1.
        -12    1    6    6    0    0  0.74923233289E+02 -0.74275397990E+02 -0.10483928245E+04  0.10536877337E+04  0.00000000000E+00 0.  1.
</event>
<event>
12    1  0.2609167E-002  0.1820564E+03  0.7818608E-02  0.1165828E+00
         -1   -1    0    0    0  501 -0.00000000000E+00  0.00000000000E+00  0.40539884662E+03  0.40539884662E+03  0.00000000000E+00 0. -1.
          1   -1    0    0  502    0  0.00000000000E+00 -0.00000000000E+00 -0.82783246040E+02  0.82783246040E+02  0.00000000000E+00 0.  1.
          6    2    1    2  502    0  0.21817115941E+02 -0.54392932237E+02  0.13260238697E+03  0.22370790830E+03  0.17037387588E+03 0.  0.
         24    2    3    3    0    0 -0.12036609715E+02  0.20471778927E+01  0.50011883995E+01  0.80056536401E+02  0.78961802312E+02 0.  0.
         -6    2    1    2    0  501 -0.21817115941E+02  0.54392932237E+02  0.19001321361E+03  0.26447418436E+03  0.17437601676E+03 0.  0.
        -24    2    5    5    0    0 -0.36700658886E+02  0.34730418384E+02  0.23818495405E+02  0.96394118137E+02  0.78558035645E+02 0.  0.
          5    1    3    3  502    0  0.33853725656E+02 -0.56440110130E+02  0.12760119857E+03  0.14365137190E+03  0.47000000000E+01 0. -1.
        -13    1    4    4    0    0  0.21792076014E+02  0.29260279650E+02  0.21189995461E+01  0.36545159751E+02  0.00000000000E+00 0.  1.
         14    1    4    4    0    0 -0.33828685728E+02 -0.27213101757E+02  0.28821888534E+01  0.43511376650E+02  0.00000000000E+00 0. -1.
         -5    1    5    5    0  501  0.14883542945E+02  0.19662513854E+02  0.16619471820E+03  0.16808006622E+03  0.47000000000E+01 0.  1.
         13    1    6    6    0    0 -0.27525314924E+02 -0.10733202149E+02  0.37778090321E+02  0.47958614434E+02  0.00000000000E+00 0. -1.
        -14    1    6    6    0    0 -0.91753439619E+01  0.45463620533E+02 -0.13959594916E+02  0.48435503704E+02  0.00000000000E+00 0.  1.
</event>
<event>
12    1  0.2609167E-002  0.2067171E+03  0.7818608E-02  0.1144192E+00
          2   -1    0    0  502    0  0.00000000000E+00  0.00000000000E+00  0.12391586068E+04  0.12391586068E+04  0.00000000000E+00 0. -1.
         -2   -1    0    0    0  501 -0.00000000000E+00 -0.00000000000E+00 -0.34500722635E+02  0.34500722635E+02  0.00000000000E+00 0.  1.
          6    2    1    2  502    0 -0.43713301113E+02  0.10235430599E+03  0.62112889239E+03  0.65548536117E+03  0.17740547087E+03 0.  0.
         24    2    3    3    0    0 -0.67581371195E+02  0.68338061562E+01  0.40015170721E+03  0.41352078313E+03  0.79146109532E+02 0.  0.
         -6    2    1    2    0  501  0.43713301113E+02 -0.10235430599E+03  0.58352899175E+03  0.61817396824E+03  0.17101378351E+03 0.  0.
        -24    2    5    5    0    0 -0.15023928346E+02 -0.11703728786E+03  0.42235017151E+03  0.44593473295E+03  0.80960938119E+02 0.  0.
          5    1    3    3  502    0  0.23868070083E+02  0.95520499832E+02  0.22097718518E+03  0.24196457804E+03  0.47000000000E+01 0. -1.
        -13    1    4    4    0    0 -0.84355593940E+02  0.14700955048E+02  0.33691515093E+03  0.34762595305E+03  0.00000000000E+00 0.  1.
         14    1    4    4    0    0  0.16774222744E+02 -0.78671488921E+01  0.63236556277E+02  0.65894830072E+02  0.00000000000E+00 0. -1.
         -5    1    5    5    0  501  0.58737229459E+02  0.14682981869E+02  0.16117882024E+03  0.17223923529E+03  0.47000000000E+01 0.  1.
         11    1    6    6    0    0  0.21420425272E+02 -0.71568792092E+02  0.31554219891E+03  0.32426502419E+03  0.00000000000E+00 0. -1.
        -12    1    6    6    0    0 -0.36444353618E+02 -0.45468495766E+02  0.10680797261E+03  0.12166970876E+03  0.00000000000E+00 0.  1.
</event>
<event>
12    1  0.2609167E-002  0.1738716E+03  0.7818608E-02  0.1173870E+00
          1   -1    0    0  502    0  0.00000000000E+00  0.00000000000E+00  0.81626529241E+02  0.81626529241E+02  0.00000000000E+00 0. -1.
         -1   -1    0    0    0  501 -0.00000000000E+00 -0.00000000000E+00 -0.41549423122E+03  0.41549423122E+03  0.00000000000E+00 0.  1.
          6    2    1    2  502    0  0.23911389972E+02  0.25451727871E+01 -0.24856633635E+03  0.30315031741E+03  0.17186232544E+03 0.  0.
         24    2    3    3    0    0  0.29491954549E+02  0.55313422892E+02 -0.21591546825E+03  0.24066991962E+03  0.85867168624E+02 0.  0.
         -6    2    1    2    0  501 -0.23911389972E+02 -0.25451727871E+01 -0.85301365630E+02  0.19397044305E+03  0.17253978476E+03 0.  0.
        -24    2    5    5    0    0 -0.84499155804E+01 -0.39757296434E+02 -0.11331047285E+03  0.14467136168E+03  0.80240238917E+02 0.  0.
          5    1    3    3  502    0 -0.55805645776E+01 -0.52768250105E+02 -0.32650868106E+02  0.62480397792E+02  0.47000000000E+01 0. -1.
        -11    1    4    4    0    0  0.11554506811E+02 -0.21269253435E+02 -0.80587795641E+02  0.84144403115E+02  0.00000000000E+00 0.  1.
         12    1    4    4    0    0  0.17937447738E+02  0.76582676328E+02 -0.13532767260E+03  0.15652551651E+03  0.00000000000E+00 0. -1.
         -5    1    5    5    0  501 -0.15461474391E+02  0.37212123647E+02  0.28009107216E+02  0.49299081368E+02  0.47000000000E+01 0.  1.
         13    1    6    6    0    0 -0.16428637437E+02 -0.31449329925E+02 -0.50964141792E+01  0.35845974924E+02  0.00000000000E+00 0. -1.
        -14    1    6    6    0    0  0.79787218567E+01 -0.83079665094E+01 -0.10821405867E+03  0.10882538676E+03  0.00000000000E+00 0.  1.
</event>
<event>
12    1  0.2609167E-002  0.1813541E+03  0.7818608E-02  0.1166499E+00
          2   -1    0    0  502    0  0.00000000000E+00  0.00000000000E+00  0.24388813553E+04  0.24388813553E+04  0.00000000000E+00 0. -1.
         -2   -1    0    0    0  501 -0.00000000000E+00 -0.00000000000E+00 -0.13777148080E+02  0.13777148080E+02  0.00000000000E+00 0.  1.
          6    2    1    2  502    0  0.42383215148E+02 -0.32552660342E+02  0.10349878345E+04  0.10507798323E+04  0.17344286023E+03 0.  0.
         24    2    3    3    0    0  0.27153011333E+02  0.14161665786E+02  0.25158563798E+03  0.26582424190E+03  0.80183262226E+02 0.  0.
         -6    2    1    2    0  501 -0.42383215148E+02  0.32552660342E+02  0.13901163727E+04  0.14018786710E+04  0.17315965503E+03 0.  0.
        -24    2    5    5    0    0  0.20498592355E+02 -0.21367488615E+02  0.43595526560E+03  0.44411721200E+03  0.79412483476E+02 0.  0.
          5    1    3    3  502    0  0.15230203814E+02 -0.46714326128E+02  0.78340219653E+03  0.78495559040E+03  0.47000000000E+01 0. -1.
        -11    1    4    4    0    0  0.16579446074E+02 -0.22318217705E+02  0.29587706654E+02  0.40600655890E+02  0.00000000000E+00 0.  1.
         12    1    4    4    0    0  0.10573565259E+02  0.36479883491E+02  0.22199793133E+03  0.22522358601E+03  0.00000000000E+00 0. -1.
         -5    1    5    5    0  501 -0.62881807503E+02  0.53920148957E+02  0.95416110706E+03  0.95776145903E+03  0.47000000000E+01 0.  1.
         13    1    6    6    0    0 -0.13997298954E+02  0.22918215812E+02  0.18652063345E+03  0.18844393250E+03  0.00000000000E+00 0. -1.
        -14    1    6    6    0    0  0.34495891309E+02 -0.44285704426E+02  0.24943463216E+03  0.25567327951E+03  0.00000000000E+00 0.  1.
</event>
<event>
12    1  0.2609167E-002  0.1746961E+03  0.7818608E-02  0.1173037E+00
         -2   -1    0    0    0  501 -0.00000000000E+00  0.00000000000E+00  0.45642346745E+02  0.45642346745E+02  0.00000000000E+00 0.  1.
          2   -1    0    0  502    0  0.00000000000E+00 -0.00000000000E+00 -0.67737218871E+03  0.67737218871E+03  0.00000000000E+00 0. -1.
          6    2    1    2  502    0 -0.24531833180E+02  0.92441039044E+01 -0.35673645042E+03  0.39717742219E+03  0.17263182021E+03 0.  0.
         24    2    3    3    0    0  0.17752425649E+02 -0.49984045606E+02 -0.15972856738E+03  0.18710570058E+03  0.81742122090E+02 0.  0.
         -6    2    1    2    0  501  0.24531833180E+02 -0.92441039044E+01 -0.27499339154E+03  0.32583711326E+03  0.17280391977E+03 0.  0.
        -24    2    5    5    0    0 -0.55233478144E+02 -0.81321468770E+01 -0.17955773238E+03  0.20136303411E+03  0.72036263985E+02 0.  0.
          5    1    3    3  502    0 -0.42284258829E+02  0.59228149510E+02 -0.19700788304E+03  0.21007172161E+03  0.47000000000E+01 0. -1.
        -13    1    4    4    0    0 -0.21402041636E+02  0.83954727187E+01 -0.19106049414E+02  0.29892682593E+02  0.00000000000E+00 0.  1.
         14    1    4    4    0    0  0.39154467285E+02 -0.58379518325E+02 -0.14062251796E+03  0.15721301799E+03  0.00000000000E+00 0. -1.
         -5    1    5    5    0  501  0.79765311324E+02 -0.11119570274E+01 -0.95435659161E+02  0.12447407914E+03  0.47000000000E+01 0.  1.
         11    1    6    6    0    0 -0.19815695777E+02  0.10075150164E+01 -0.15729760602E+03  0.15854404355E+03  0.00000000000E+00 0. -1.
        -12    1    6    6    0    0 -0.35417782367E+02 -0.91396618934E+01 -0.22260126363E+02  0.42818990565E+02  0.00000000000E+00 0.  1.
</event>
<event>
12    1  0.2609167E-002  0.2238239E+03  0.7818608E-02  0.1131064E+00
         -2   -1    0    0    0  501 -0.00000000000E+00  0.00000000000E+00  0.59622149087E+02  0.59622149087E+02  0.00000000000E+00 0. -1.
          2   -1    0    0  502    0  0.00000000000E+00 -0.00000000000E+00 -0.87244169556E+03  0.87244169556E+03  0.00000000000E+00 0.  1.
          6    2    1    2  502    0 -0.12236809211E+02  0.14194560945E+03 -0.49721439085E+03  0.54557342699E+03  0.17357971721E+03 0.  0.
         24    2    3    3    0    0 -0.15265764477E+02  0.16608695418E+03 -0.33345199472E+03  0.37994676403E+03  0.73153200922E+02 0.  0.
         -6    2    1    2    0  501  0.12236809211E+02 -0.14194560945E+03 -0.31560515563E+03  0.38649041766E+03  0.17166809006E+03 0.  0.
        -24    2    5    5    0    0 -0.28905201976E+02 -0.96400820125E+02 -0.10282358019E+03  0.16498402551E+03  0.80736678205E+02 0.  0.
          5    1    3    3  502    0  0.30289552668E+01 -0.24141344727E+02 -0.16376239613E+03  0.16562666295E+03  0.47000000000E+01 0. -1.
        -11    1    4    4    0    0 -0.11154581897E+02  0.42819237160E+02 -0.16710618706E+03  0.17286523515E+03  0.00000000000E+00 0.  1.
         12    1    4    4    0    0 -0.41111825801E+01  0.12326771702E+03 -0.16634580765E+03  0.20708152888E+03  0.00000000000E+00 0. -1.
         -5    1    5    5    0  501  0.41142011187E+02 -0.45544789325E+02 -0.21278157544E+03  0.22150639216E+03  0.47000000000E+01 0.  1.
         11    1    6    6    0    0 -0.34259754826E+02 -0.28409941944E+01 -0.36733318158E+02  0.50310423489E+02  0.00000000000E+00 0. -1.
        -12    1    6    6    0    0  0.53545528502E+01 -0.93559825931E+02 -0.66090262030E+02  0.11467360202E+03  0.00000000000E+00 0.  1.
</event>
<event>
12    1  0.2609167E-002  0.1898141E+03  0.7818608E-02  0.1158629E+00
          2   -1    0    0  502    0  0.00000000000E+00  0.00000000000E+00  0.11585941491E+04  0.11585941491E+04  0.00000000000E+00 0. -1.
         -2   -1    0    0    0  501 -0.00000000000E+00 -0.00000000000E+00 -0.31396837564E+02  0.31396837564E+02  0.00000000000E+00 0.  1.
          6    2    1    2  502    0 -0.21667502854E+02  0.80490928909E+02  0.62697689124E+03  0.65563571962E+03  0.17265544987E+03 0.  0.
         24    2    3    3    0    0 -0.81896051187E+02  0.63972631273E+02  0.42723913846E+03  0.44630919937E+03  0.76545145248E+02 0.  0.
         -6    2    1    2    0  501  0.21667502854E+02 -0.80490928909E+02  0.50022042028E+03  0.53435526703E+03  0.16842450007E+03 0.  0.
        -24    2    5    5    0    0  0.75531350821E+02 -0.29755772780E+02  0.28372633775E+03  0.30551657285E+03  0.79052834117E+02 0.  0.
          5    1    3    3  502    0  0.60228548333E+02  0.16518297636E+02  0.19973775278E+03  0.20932652024E+03  0.47000000000E+01 0. -1.
        -13    1    4    4    0    0 -0.31644602952E+02 -0.15260148299E+02  0.10829117994E+03  0.11384740961E+03  0.00000000000E+00 0.  1.
         14    1    4    4    0    0 -0.50251448235E+02  0.79232779572E+02  0.31894795852E+03  0.33246178976E+03  0.00000000000E+00 0. -1.
         -5    1    5    5    0  501 -0.53863847967E+02 -0.50735156129E+02  0.21649408253E+03  0.22883869418E+03  0.47000000000E+01 0.  1.
         11    1    6    6    0    0 -0.62812745071E+00 -0.35579776436E+02  0.69497595175E+02  0.78078363010E+02  0.00000000000E+00 0. -1.
        -12    1    6    6    0    0  0.76159478272E+02  0.58240036561E+01  0.21422874257E+03  0.22743820983E+03  0.00000000000E+00 0.  1.
</event>
<event>
12    1  0.2609167E-002  0.1791433E+03  0.7818608E-02  0.1168635E+00
          2   -1    0    0  502    0  0.00000000000E+00  0.00000000000E+00  0.56997276524E+03  0.56997276524E+03  0.00000000000E+00 0.  1.
         -2   -1    0    0    0  501 -0.00000000000E+00 -0.00000000000E+00 -0.58317680988E+02  0.58317680988E+02  0.00000000000E+00 0. -1.
          6    2    1    2  502    0  0.35693664859E+02 -0.34065104513E+02  0.31439178014E+03  0.36192244023E+03  0.17236934839E+03 0.  0.
         24    2    3    3    0    0 -0.23461808929E+02 -0.40388218856E+02  0.27622543478E+03  0.29108380831E+03  0.79041937866E+02 0.  0.
         -6    2    1    2    0  501 -0.35693664859E+02  0.34065104513E+02  0.19726330411E+03  0.26636800600E+03  0.17205997331E+03 0.  0.
        -24    2    5    5    0    0  0.13514491604E+02  0.15583288503E+02  0.24545867717E+02  0.85767831525E+02  0.79549613064E+02 0.  0.
          5    1    3    3  502    0  0.59155473788E+02  0.63231143435E+01  0.38166345367E+02  0.70838631923E+02  0.47000000000E+01 0. -1.
        -11    1    4    4    0    0  0.90964594809E+00 -0.37681131122E+02  0.25746416389E+03  0.26020855249E+03  0.00000000000E+00 0.  1.
         12    1    4    4    0    0 -0.24371454877E+02 -0.27070877340E+01  0.18761270880E+02  0.30875255818E+02  0.00000000000E+00 0. -1.
         -5    1    5    5    0  501 -0.49208156462E+02  0.18481816010E+02  0.17271743640E+03  0.18060017448E+03  0.47000000000E+01 0.  1.
         11    1    6    6    0    0  0.21223996626E+02  0.23156101566E+02 -0.21763645764E+02  0.38214125000E+02  0.00000000000E+00 0. -1.
        -12    1    6    6    0    0 -0.77095050224E+01 -0.75728130636E+01  0.46309513481E+02  0.47553706525E+02  0.00000000000E+00 0.  1.
</event>
<event>
12    1  0.2609167E-002  0.3572903E+03  0.7818608E-02  0.1059662E+00
          2   -1    0    0  502    0  0.00000000000E+00  0.00000000000E+00  0.18453245412E+04  0.18453245412E+04  0.00000000000E+00 0. -1.
         -2   -1    0    0    0  501 -0.00000000000E+00 -0.00000000000E+00 -0.69188737679E+02  0.69188737679E+02  0.00000000000E+00 0.  1.
          6    2    1    2  502    0 -0.18077202365E+03  0.25338406132E+03  0.87747046834E+03  0.94759333459E+03  0.17634255837E+03 0.  0.
         24    2    3    3    0    0 -0.20407063919E+03  0.23416656752E+03  0.73392317147E+03  0.80082803218E+03  0.78762353793E+02 0.  0.
         -6    2    1    2    0  501  0.18077202365E+03 -0.25338406132E+03  0.89866533521E+03  0.96691994432E+03  0.17450726904E+03 0.  0.
        -24    2    5    5    0    0  0.18041075466E+02 -0.10649663400E+03  0.40825052663E+03  0.42971788525E+03  0.79510722209E+02 0.  0.
          5    1    3    3  502    0  0.23298615548E+02  0.19217493799E+02  0.14354729687E+03  0.14676530242E+03  0.47000000000E+01 0. -1.
        -11    1    4    4    0    0 -0.10034966696E+03  0.61841128526E+02  0.23549983366E+03  0.26335252513E+03  0.00000000000E+00 0.  1.
         12    1    4    4    0    0 -0.10372097223E+03  0.17232543899E+03  0.49842333781E+03  0.53747550705E+03  0.00000000000E+00 0. -1.
         -5    1    5    5    0  501  0.16273094818E+03 -0.14688742732E+03  0.49041480858E+03  0.53720205907E+03  0.47000000000E+01 0.  1.
         13    1    6    6    0    0  0.70859880337E+01 -0.11318355738E+03  0.39620732644E+03  0.41211767059E+03  0.00000000000E+00 0. -1.
        -14    1    6    6    0    0  0.10955087432E+02  0.66869233828E+01  0.12043200190E+02  0.17600214652E+02  0.00000000000E+00 0.  1.
</event>
<event>
12    1  0.2609167E-002  0.3782250E+03  0.7818608E-02  0.1051592E+00
         -2   -1    0    0    0  501 -0.00000000000E+00  0.00000000000E+00  0.58292430357E+03  0.58292430357E+03  0.00000000000E+00 0. -1.
          2   -1    0    0  502    0  0.00000000000E+00 -0.00000000000E+00 -0.28326789097E+03  0.28326789097E+03  0.00000000000E+00 0.  1.
          6    2    1    2  502    0 -0.30612486224E+03 -0.14144871204E+03 -0.85596255080E+01  0.37816724883E+03  0.17092990225E+03 0.  0.
         24    2    3    3    0    0 -0.12034641187E+03 -0.11409006175E+03 -0.38403465314E+02  0.18797031631E+03  0.79738401207E+02 0.  0.
         -6    2    1    2    0  501  0.30612486224E+03  0.14144871204E+03  0.30821603810E+03  0.48802494571E+03  0.17161308828E+03 0.  0.
        -24    2    5    5    0    0  0.24500106588E+03  0.16932166747E+03  0.27729750459E+03  0.41392321941E+03  0.75783745991E+02 0.  0.
          5    1    3    3  502    0 -0.18577845036E+03 -0.27358650294E+02  0.29843839806E+02  0.19019693252E+03  0.47000000000E+01 0. -1.
        -13    1    4    4    0    0  0.79068076002E+01 -0.24044200178E+02 -0.15282055583E+02  0.29566575579E+02  0.00000000000E+00 0.  1.
         14    1    4    4    0    0 -0.12825321947E+03 -0.90045861568E+02 -0.23121409730E+02  0.15840374074E+03  0.00000000000E+00 0. -1.
         -5    1    5    5    0  501  0.61123796355E+02 -0.27872955430E+02  0.30918533514E+02  0.74101726295E+02  0.47000000000E+01 0.  1.
         13    1    6    6    0    0  0.14062998290E+03  0.64642900787E+02  0.17783331688E+03  0.23575450220E+03  0.00000000000E+00 0. -1.
        -14    1    6    6    0    0  0.10437108298E+03  0.10467876668E+03  0.99464187709E+02  0.17816871721E+03  0.00000000000E+00 0.  1.
</event>
<event>
12    1  0.2609167E-002  0.2362787E+03  0.7818608E-02  0.1122297E+00
          1   -1    0    0  502    0  0.00000000000E+00  0.00000000000E+00  0.16471925812E+03  0.16471925812E+03  0.00000000000E+00 0.  1.
         -1   -1    0    0    0  501 -0.00000000000E+00 -0.00000000000E+00 -0.47134694075E+03  0.47134694075E+03  0.00000000000E+00 0. -1.
          6    2    1    2  502    0 -0.16020319470E+03  0.21843945879E+02  0.15377559673E+02  0.23651846533E+03  0.17193688823E+03 0.  0.
         24    2    3    3    0    0 -0.52562364858E+02  0.65803664501E+02  0.12922478946E+01  0.11930288992E+03  0.84490148403E+02 0.  0.
         -6    2    1    2    0  501  0.16020319470E+03 -0.21843945879E+02 -0.32200524230E+03  0.39954773354E+03  0.17265223354E+03 0.  0.
        -24    2    5    5    0    0  0.12394214607E+03  0.19554411706E+02 -0.12360830439E+03  0.19360569647E+03  0.80374885408E+02 0.  0.
          5    1    3    3  502    0 -0.10764082984E+03 -0.43959718622E+02  0.14085311778E+02  0.11721557541E+03  0.47000000000E+01 0. -1.
        -11    1    4    4    0    0  0.15043100767E+02  0.50491751820E+01  0.20976833646E+02  0.26302406743E+02  0.00000000000E+00 0.  1.
         12    1    4    4    0    0 -0.67605465625E+02  0.60754489319E+02 -0.19684585751E+02  0.93000483176E+02  0.00000000000E+00 0. -1.
         -5    1    5    5    0  501  0.36261048628E+02 -0.41398357585E+02 -0.19839693791E+03  0.20594203707E+03  0.47000000000E+01 0.  1.
         11    1    6    6    0    0  0.54563916039E+02  0.31524996719E+02 -0.10211634671E+03  0.11999497747E+03  0.00000000000E+00 0. -1.
        -12    1    6    6    0    0  0.69378230031E+02 -0.11970585013E+02 -0.21491957672E+02  0.73610719004E+02  0.00000000000E+00 0.  1.
</event>
<event>
12    1  0.2609167E-002  0.9561946E+03  0.7818608E-02  0.9357939E-01
         -2   -1    0    0    0  501 -0.00000000000E+00  0.00000000000E+00  0.12618237768E+04  0.12618237768E+04  0.00000000000E+00 0. -1.
          2   -1    0    0  502    0  0.00000000000E+00 -0.00000000000E+00 -0.73257156753E+03  0.73257156753E+03  0.00000000000E+00 0.  1.
          6    2    1    2  502    0  0.21099402824E+03 -0.91642311127E+03  0.16061576480E+03  0.96981011996E+03  0.17431134805E+03 0.  0.
         24    2    3    3    0    0  0.10501693270E+03 -0.34949746614E+03  0.10727521323E+02  0.37388696434E+03  0.80618530081E+02 0.  0.
         -6    2    1    2    0  501 -0.21099402824E+03  0.91642311127E+03  0.36863644444E+03  0.10245852243E+04  0.17184951257E+03 0.  0.
        -24    2    5    5    0    0 -0.20713129723E+03  0.63053855776E+03  0.28251811454E+03  0.72594940036E+03  0.81876734956E+02 0.  0.
          5    1    3    3  502    0  0.10597709554E+03 -0.56692564512E+03  0.14988824348E+03  0.59592315562E+03  0.47000000000E+01 0. -1.
        -13    1    4    4    0    0  0.48346436238E+02 -0.27419934316E+03 -0.42612626164E+01  0.27846151627E+03  0.00000000000E+00 0.  1.
         14    1    4    4    0    0  0.56670496460E+02 -0.75298122983E+02  0.14988783939E+02  0.95425448062E+02  0.00000000000E+00 0. -1.
         -5    1    5    5    0  501 -0.38627310068E+01  0.28588455350E+03  0.86118329901E+02  0.29863582399E+03  0.47000000000E+01 0.  1.
         11    1    6    6    0    0 -0.10393644272E+03  0.23656281962E+03  0.14379241091E+03  0.29570425967E+03  0.00000000000E+00 0. -1.
        -12    1    6    6    0    0 -0.10319485451E+03  0.39397573814E+03  0.13872570363E+03  0.43024514069E+03  0.00000000000E+00 0.  1.
</event>
<event>
12    1  0.2609167E-002  0.2325813E+03  0.7818608E-02  0.1124836E+00
          1   -1    0    0  502    0  0.00000000000E+00  0.00000000000E+00  0.26086455180E+03  0.26086455180E+03  0.00000000000E+00 0.  1.
         -1   -1    0    0    0  501 -0.00000000000E+00 -0.00000000000E+00 -0.21804162012E+03  0.21804162012E+03  0.00000000000E+00 0. -1.
          6    2    1    2  502    0 -0.14090120783E+03  0.67096194610E+02  0.74418085957E+02  0.24440632100E+03  0.17274648631E+03 0.  0.
         24    2    3    3    0    0 -0.66014152073E+02 -0.34858741293E+01 -0.15943237733E+02  0.10737654918E+03  0.83099439783E+02 0.  0.
         -6    2    1    2    0  501  0.14090120783E+03 -0.67096194610E+02 -0.31595154275E+02  0.23449985091E+03  0.17215364244E+03 0.  0.
        -24    2    5    5    0    0  0.93652657963E+02 -0.47485572160E+02  0.46879148795E+02  0.14070588405E+03  0.81085086846E+02 0.  0.
          5    1    3    3  502    0 -0.74887055754E+02  0.70582068740E+02  0.90361323690E+02  0.13702977182E+03  0.47000000000E+01 0. -1.
        -13    1    4    4    0    0 -0.13448068027E+02  0.36430140682E+02 -0.14206380941E+02  0.41350053727E+02  0.00000000000E+00 0.  1.
         14    1    4    4    0    0 -0.52566084046E+02 -0.39916014812E+02 -0.17368567922E+01  0.66026495454E+02  0.00000000000E+00 0. -1.
         -5    1    5    5    0  501  0.47248549863E+02 -0.19610622451E+02 -0.78474303070E+02  0.93793966860E+02  0.47000000000E+01 0.  1.
         13    1    6    6    0    0  0.15739333366E+02  0.21478713669E+02  0.11269030838E+00  0.26628451979E+02  0.00000000000E+00 0. -1.
        -14    1    6    6    0    0  0.77913324597E+02 -0.68964285828E+02  0.46766458487E+02  0.11407743208E+03  0.00000000000E+00 0.  1.
</event>
<event>
12    1  0.2609167E-002  0.1995305E+03  0.7818608E-02  0.1150136E+00
          3   -1    0    0  502    0  0.00000000000E+00  0.00000000000E+00  0.93727661270E+03  0.93727661270E+03  0.00000000000E+00 0.  1.
         -3   -1    0    0    0  501 -0.00000000000E+00 -0.00000000000E+00 -0.42499933969E+02  0.42499933969E+02  0.00000000000E+00 0. -1.
          6    2    1    2  502    0 -0.63300238630E+02  0.86332647164E+02  0.45343391938E+03  0.49461647590E+03  0.16608098270E+03 0.  0.
         24    2    3    3    0    0 -0.58922042105E+01  0.71997623128E+02  0.15254582345E+03  0.18792948302E+03  0.82637077215E+02 0.  0.
         -6    2    1    2    0  501  0.63300238630E+02 -0.86332647164E+02  0.44134275935E+03  0.48516007077E+03  0.17069451326E+03 0.  0.
        -24    2    5    5    0    0  0.23509519159E+02 -0.30805174540E+02  0.89003458800E+02  0.12622877611E+03  0.80687247874E+02 0.  0.
          5    1    3    3  502    0 -0.57408034419E+02  0.14335024036E+02  0.30088809593E+03  0.30668699288E+03  0.47000000000E+01 0. -1.
        -11    1    4    4    0    0 -0.12619340478E+02  0.31010345750E+02  0.14085597786E+03  0.14478016369E+03  0.00000000000E+00 0.  1.
         12    1    4    4    0    0  0.67271362674E+01  0.40987277378E+02  0.11689845585E+02  0.43149319334E+02  0.00000000000E+00 0. -1.
         -5    1    5    5    0  501  0.39790719471E+02 -0.55527472624E+02  0.35233930055E+03  0.35893129466E+03  0.47000000000E+01 0.  1.
         13    1    6    6    0    0 -0.40305743357E+01 -0.49569223606E+02  0.28940936644E+02  0.57540692316E+02  0.00000000000E+00 0. -1.
        -14    1    6    6    0    0  0.27540093495E+02  0.18764049066E+02  0.60062522156E+02  0.68688083791E+02  0.00000000000E+00 0.  1.
</event>
<event>
12    1  0.2609167E-002  0.2080931E+03  0.7818608E-02  0.1143085E+00
          2   -1    0    0  502    0  0.00000000000E+00  0.00000000000E+00  0.65396458032E+03  0.65396458032E+03  0.00000000000E+00 0. -1.
         -2   -1    0    0    0  501 -0.00000000000E+00 -0.00000000000E+00 -0.16195580028E+03  0.16195580028E+03  0.00000000000E+00 0.  1.
          6    2    1    2  502    0  0.41133484320E+02  0.10901690260E+03 -0.67396171480E+02  0.21925440703E+03  0.17307109085E+03 0.  0.
         24    2    3    3    0    0 -0.30164893815E+02  0.49559385624E+02 -0.73792798368E+02  0.12607897097E+03  0.84169331164E+02 0.  0.
         -6    2    1    2    0  501 -0.41133484320E+02 -0.10901690260E+03  0.55940495152E+03  0.59666597357E+03  0.17175487080E+03 0.  0.
        -24    2    5    5    0    0 -0.34191135672E+02 -0.14023414341E+03  0.41219629597E+03  0.44595037849E+03  0.90173748583E+02 0.  0.
          5    1    3    3  502    0  0.71298378135E+02  0.59457516972E+02  0.63966268875E+01  0.93175436058E+02  0.47000000000E+01 0. -1.
        -13    1    4    4    0    0 -0.53850243834E+02  0.81907382371E+01 -0.36725279046E+02  0.65693858730E+02  0.00000000000E+00 0.  1.
         14    1    4    4    0    0  0.23685350018E+02  0.41368647387E+02 -0.37067519322E+02  0.60385112245E+02  0.00000000000E+00 0. -1.
         -5    1    5    5    0  501 -0.69423486482E+01  0.31217240812E+02  0.14720865556E+03  0.15071559508E+03  0.47000000000E+01 0.  1.
         13    1    6    6    0    0  0.10135124028E+02 -0.83052979225E+02  0.30755525636E+03  0.31873304474E+03  0.00000000000E+00 0. -1.
        -14    1    6    6    0    0 -0.44326259700E+02 -0.57181164182E+02  0.10464103961E+03  0.12721733375E+03  0.00000000000E+00 0.  1.
</event>
<event>
12    1  0.2609167E-002  0.1945323E+03  0.7818608E-02  0.1154436E+00
          1   -1    0    0  502    0  0.00000000000E+00  0.00000000000E+00  0.63370522136E+02  0.63370522136E+02  0.00000000000E+00 0.  1.
         -1   -1    0    0    0  501 -0.00000000000E+00 -0.00000000000E+00 -0.87237295607E+03  0.87237295607E+03  0.00000000000E+00 0. -1.
          6    2    1    2  502    0 -0.69213531961E+02 -0.56194809751E+02 -0.66639414311E+03  0.69403271796E+03  0.17219724148E+03 0.  0.
         24    2    3    3    0    0  0.27912111947E+01 -0.47514180134E+02 -0.14811964825E+03  0.17068715488E+03  0.70208877432E+02 0.  0.
         -6    2    1    2    0  501  0.69213531961E+02  0.56194809751E+02 -0.14260829082E+03  0.24171076024E+03  0.17360471583E+03 0.  0.
        -24    2    5    5    0    0  0.10870655077E+03  0.22915894708E+02 -0.76722155704E+02  0.15786412929E+03  0.81807956403E+02 0.  0.
          5    1    3    3  502    0 -0.72004743156E+02 -0.86806296176E+01 -0.51827449486E+03  0.52334556308E+03  0.47000000000E+01 0. -1.
        -11    1    4    4    0    0 -0.33595620541E+02 -0.21211794307E+02 -0.63832387863E+02  0.75187629818E+02  0.00000000000E+00 0.  1.
         12    1    4    4    0    0  0.36386831736E+02 -0.26302385826E+02 -0.84287260387E+02  0.95499525065E+02  0.00000000000E+00 0. -1.
         -5    1    5    5    0  501 -0.39493018811E+02  0.33278915043E+02 -0.65886135114E+02  0.83846630949E+02  0.47000000000E+01 0.  1.
         13    1    6    6    0    0  0.32731384324E+02  0.47009537716E+02 -0.41439876205E+02  0.70700095445E+02  0.00000000000E+00 0. -1.
        -14    1    6    6    0    0  0.75975166448E+02 -0.24093643008E+02 -0.35282279499E+02  0.87164033849E+02  0.00000000000E+00 0.  1.
</event>
<event>
12    1  0.2609167E-002  0.1861218E+03  0.7818608E-02  0.1162006E+00
         -4   -1    0    0    0  501 -0.00000000000E+00  0.00000000000E+00  0.40960230122E+02  0.40960230122E+02  0.00000000000E+00 0.  1.
          4   -1    0    0  502    0  0.00000000000E+00 -0.00000000000E+00 -0.10396936616E+04  0.10396936616E+04  0.00000000000E+00 0. -1.
          6    2    1    2  502    0  0.29577639258E+02 -0.64030934724E+02 -0.26596396355E+03  0.32461395707E+03  0.17222831901E+03 0.  0.
         24    2    3    3    0    0  0.35513900364E+02 -0.82832205497E+02 -0.97928925187E+02  0.15536091840E+03  0.80153160837E+02 0.  0.
         -6    2    1    2    0  501 -0.29577639258E+02  0.64030934724E+02 -0.73276946794E+03  0.75603993467E+03  0.17225124767E+03 0.  0.
        -24    2    5    5    0    0 -0.82434423724E+02  0.51510414482E+02 -0.31797614540E+03  0.33767861534E+03  0.58900434605E+02 0.  0.
          5    1    3    3  502    0 -0.59362611058E+01  0.18801270773E+02 -0.16803503837E+03  0.16925303866E+03  0.47000000000E+01 0. -1.
        -13    1    4    4    0    0 -0.18265532508E+02  0.37786948432E+01 -0.15837982949E+02  0.24469366898E+02  0.00000000000E+00 0.  1.
         14    1    4    4    0    0  0.53779432872E+02 -0.86610900341E+02 -0.82090942238E+02  0.13089155151E+03  0.00000000000E+00 0. -1.
         -5    1    5    5    0  501  0.52856784466E+02  0.12520520242E+02 -0.41479332253E+03  0.41836131933E+03  0.47000000000E+01 0.  1.
         13    1    6    6    0    0 -0.31878993924E+02  0.53052270978E+02 -0.19884634037E+03  0.20825628631E+03  0.00000000000E+00 0. -1.
        -14    1    6    6    0    0 -0.50555429800E+02 -0.15418564955E+01 -0.11912980504E+03  0.12942232903E+03  0.00000000000E+00 0.  1.
</event>
<event>
12    1  0.2609167E-002  0.2241535E+03  0.7818608E-02  0.1130824E+00
          2   -1    0    0  502    0  0.00000000000E+00  0.00000000000E+00  0.37091790274E+03  0.37091790274E+03  0.00000000000E+00 0.  1.
         -2   -1    0    0    0  501 -0.00000000000E+00 -0.00000000000E+00 -0.15392864831E+03  0.15392864831E+03  0.00000000000E+00 0. -1.
          6    2    1    2  502    0 -0.12430473131E+03  0.73853762554E+02  0.17705764612E+02  0.22510492623E+03  0.17161785817E+03 0.  0.
         24    2    3    3    0    0 -0.56168749901E+02  0.56356382946E+02  0.72612216617E+02  0.13574342038E+03  0.82600071493E+02 0.  0.
         -6    2    1    2    0  501  0.12430473131E+03 -0.73853762554E+02  0.19928348982E+03  0.29974162482E+03  0.17095346695E+03 0.  0.
        -24    2    5    5    0    0  0.68321090306E+02  0.19585490316E+02  0.56490409852E+02  0.12008357261E+03  0.78597297621E+02 0.  0.
          5    1    3    3  502    0 -0.68135981413E+02  0.17497379608E+02 -0.54906452005E+02  0.89361505852E+02  0.47000000000E+01 0. -1.
        -13    1    4    4    0    0 -0.63067104165E+02  0.18509384453E+02  0.16597673823E+02  0.67790410213E+02  0.00000000000E+00 0.  1.
         14    1    4    4    0    0  0.68983542640E+01  0.37846998493E+02  0.56014542794E+02  0.67953010168E+02  0.00000000000E+00 0. -1.
         -5    1    5    5    0  501  0.55983641008E+02 -0.93439252869E+02  0.14279307997E+03  0.17965805221E+03  0.47000000000E+01 0.  1.
         11    1    6    6    0    0  0.58000092563E+02 -0.21015072542E+02  0.45846743254E+02  0.76860704383E+02  0.00000000000E+00 0. -1.
        -12    1    6    6    0    0  0.10320997742E+02  0.40600562858E+02  0.10643666599E+02  0.43222868224E+02  0.00000000000E+00 0.  1.
</event>
<event>
12    1  0.2609167E-002  0.1847803E+03  0.7818608E-02  0.1163255E+00
         -2   -1    0    0    0  501 -0.00000000000E+00  0.00000000000E+00  0.17015593852E+02  0.17015593852E+02  0.00000000000E+00 0.  1.
          2   -1    0    0  502    0  0.00000000000E+00 -0.00000000000E+00 -0.20453019368E+04  0.20453019368E+04  0.00000000000E+00 0. -1.
          6    2    1    2  502    0 -0.60046135664E+02  0.46269295146E+01 -0.11656113582E+04  0.11804614432E+04  0.17667040996E+03 0.  0.
         24    2    3    3    0    0  0.25221586897E+02 -0.25259388318E+02 -0.42109576990E+03  0.43046855813E+03  0.81898516302E+02 0.  0.
         -6    2    1    2    0  501  0.60046135664E+02 -0.46269295146E+01 -0.86267498483E+03  0.88185608748E+03  0.17272834941E+03 0.  0.
        -24    2    5    5    0    0  0.75437461396E+02  0.50032596634E+02 -0.50380487068E+03  0.51849069901E+03  0.82578362384E+02 0.  0.
          5    1    3    3  502    0 -0.85267722561E+02  0.29886317832E+02 -0.74451558826E+03  0.74999288508E+03  0.47000000000E+01 0. -1.
        -11    1    4    4    0    0  0.16489001049E+02  0.25973691437E+02 -0.85382874623E+02  0.90756570458E+02  0.00000000000E+00 0.  1.
         12    1    4    4    0    0  0.87325858480E+01 -0.51233079755E+02 -0.33571289527E+03  0.33971198767E+03  0.00000000000E+00 0. -1.
         -5    1    5    5    0  501 -0.15391325732E+02 -0.54659526148E+02 -0.35887011415E+03  0.36336538847E+03  0.47000000000E+01 0.  1.
         13    1    6    6    0    0  0.39259030212E+02  0.32549806710E+02 -0.44095511003E+03  0.44389432350E+03  0.00000000000E+00 0. -1.
        -14    1    6    6    0    0  0.36178431184E+02  0.17482789924E+02 -0.62849760647E+02  0.74596375514E+02  0.00000000000E+00 0.  1.
</event>
<event>
12    1  0.2609167E-002  0.2468867E+03  0.7818608E-02  0.1115288E+00
          2   -1    0    0  502    0  0.00000000000E+00  0.00000000000E+00  0.32742667272E+03  0.32742667272E+03  0.00000000000E+00 0.  1.
         -2   -1    0    0    0  501 -0.00000000000E+00 -0.00000000000E+00 -0.20572350769E+03  0.20572350769E+03  0.00000000000E+00 0. -1.
          6    2    1    2  502    0 -0.17684020522E+03  0.47292339906E+02  0.14241540428E+03  0.28271838200E+03  0.16167409362E+03 0.  0.
         24    2    3    3    0    0 -0.11068771696E+03  0.44895403043E+02  0.16126738050E+03  0.21373009301E+03  0.73525619674E+02 0.  0.
         -6    2    1    2    0  501  0.17684020522E+03 -0.47292339906E+02 -0.20712239259E+02  0.25043179841E+03  0.16964098916E+03 0.  0.
        -24    2    5    5    0    0  0.18390130230E+03  0.36080740989E+00 -0.15165771281E+02  0.20171286115E+03  0.81475508971E+02 0.  0.
          5    1    3    3  502    0 -0.66152488263E+02  0.23969368629E+01 -0.18851976214E+02  0.68988288984E+02  0.47000000000E+01 0. -1.
        -13    1    4    4    0    0 -0.55494486651E+02  0.38090868730E+02  0.13781941840E+03  0.15337778332E+03  0.00000000000E+00 0.  1.
         14    1    4    4    0    0 -0.55193230304E+02  0.68045343130E+01  0.23447962100E+02  0.60352309693E+02  0.00000000000E+00 0. -1.
         -5    1    5    5    0  501 -0.70610970849E+01 -0.47653147316E+02 -0.55464679777E+01  0.48718937264E+02  0.47000000000E+01 0.  1.
         13    1    6    6    0    0  0.10737440049E+03 -0.34591090868E+02 -0.28940402204E+02  0.11646180631E+03  0.00000000000E+00 0. -1.
        -14    1    6    6    0    0  0.76526901812E+02  0.34951898278E+02  0.13774630923E+02  0.85251054840E+02  0.00000000000E+00 0.  1.
</event>
<event>
12    1  0.2609167E-002  0.1800197E+03  0.7818608E-02  0.1167784E+00
         -1   -1    0    0    0  501 -0.00000000000E+00  0.00000000000E+00  0.53225721582E+03  0.53225721582E+03  0.00000000000E+00 0.  1.
          1   -1    0    0  502    0  0.00000000000E+00 -0.00000000000E+00 -0.21358780997E+03  0.21358780997E+03  0.00000000000E+00 0. -1.
          6    2    1    2  502    0  0.20262277500E+02 -0.56851044789E+02  0.47558594596E+03  0.50992075679E+03  0.17376589144E+03 0.  0.
         24    2    3    3    0    0  0.40719112380E+02  0.24994248473E+02  0.18031019033E+03  0.20279375377E+03  0.79566219348E+02 0.  0.
         -6    2    1    2    0  501 -0.20262277500E+02  0.56851044789E+02 -0.15691654010E+03  0.23592426900E+03  0.16551392376E+03 0.  0.
        -24    2    5    5    0    0 -0.76399005307E+02  0.29836052902E+02 -0.10282953083E+03  0.15328870421E+03  0.78717954509E+02 0.  0.
          5    1    3    3  502    0 -0.20456834879E+02 -0.81845293262E+02  0.29527575563E+03  0.30712700302E+03  0.47000000000E+01 0. -1.
        -11    1    4    4    0    0  0.58762268866E+02  0.78681052211E+01  0.16015637333E+03  0.17077756071E+03  0.00000000000E+00 0.  1.
         12    1    4    4    0    0 -0.18043156486E+02  0.17126143252E+02  0.20153816999E+02  0.32016193064E+02  0.00000000000E+00 0. -1.
         -5    1    5    5    0  501  0.56136727807E+02  0.27014991887E+02 -0.54087009272E+02  0.82635564786E+02  0.47000000000E+01 0.  1.
         11    1    6    6    0    0 -0.76682387373E+02  0.29153702070E+02 -0.11490795966E+03  0.14118769801E+03  0.00000000000E+00 0. -1.
        -12    1    6    6    0    0  0.28338206516E+00  0.68235083208E+00  0.12078428825E+02  0.12101006195E+02  0.00000000000E+00 0.  1.
</event>
<event>
12    1  0.2609167E-002  0.1993833E+03  0.7818608E-02  0.1150260E+00
          1   -1    0    0  502    0  0.00000000000E+00  0.00000000000E+00  0.15513262814E+04  0.15513262814E+04  0.00000000000E+00 0.  1.
         -1   -1    0    0    0  501 -0.00000000000E+00 -0.00000000000E+00 -0.50917747959E+02  0.50917747959E+02  0.00000000000E+00 0. -1.
          6    2    1    2  502    0  0.10077095609E+03  0.54201234287E+01  0.13148582940E+04  0.13298921119E+04  0.17197829129E+03 0.  0.
         24    2    3    3    0    0  0.10095714610E+03  0.56104619302E+02  0.77018571533E+03  0.78284617166E+03  0.79511123250E+02 0.  0.
         -6    2    1    2    0  501 -0.10077095609E+03 -0.54201234287E+01  0.18555023936E+03  0.27235191738E+03  0.17193752424E+03 0.  0.
        -24    2    5    5    0    0 -0.11694294809E+02 -0.30973577237E+02  0.29916358229E+02  0.91156924224E+02  0.79488850327E+02 0.  0.
          5    1    3    3  502    0 -0.18619000206E+00 -0.50684495873E+02  0.54467257871E+03  0.54704594029E+03  0.47000000000E+01 0. -1.
        -11    1    4    4    0    0  0.31411201682E+02  0.62479544320E+02  0.41678623123E+03  0.42261225679E+03  0.00000000000E+00 0.  1.
         12    1    4    4    0    0  0.69545944414E+02 -0.63749250183E+01  0.35339948410E+03  0.36023391487E+03  0.00000000000E+00 0. -1.
         -5    1    5    5    0  501 -0.89076661285E+02  0.25553453809E+02  0.15563388113E+03  0.18119499315E+03  0.47000000000E+01 0.  1.
         11    1    6    6    0    0 -0.38267650521E+02 -0.15965272225E+02 -0.82621510392E+01  0.42279618416E+02  0.00000000000E+00 0. -1.
        -12    1    6    6    0    0  0.26573355712E+02 -0.15008305012E+02  0.38178509268E+02  0.48877305808E+02  0.00000000000E+00 0.  1.
</event>
<event>
12    1  0.2609167E-002  0.1744622E+03  0.7818608E-02  0.1173273E+00
          2   -1    0    0  502    0  0.00000000000E+00  0.00000000000E+00  0.37442607020E+04  0.37442607020E+04  0.00000000000E+00 0.  1.
         -2   -1    0    0    0  501 -0.00000000000E+00 -0.00000000000E+00 -0.97991744586E+01  0.97991744586E+01  0.00000000000E+00 0. -1.
          6    2    1    2  502    0  0.35660503604E+02 -0.17410056966E+02  0.26229411716E+04  0.26285974023E+04  0.16771741801E+03 0.  0.
         24    2    3    3    0    0  0.40886119605E+02  0.25364530614E+02  0.82857731401E+03  0.83371001985E+03  0.78847940428E+02 0.  0.
         -6    2    1    2    0  501 -0.35660503604E+02  0.17410056966E+02  0.11115203560E+04  0.11254624742E+04  0.17208572684E+03 0.  0.
        -24    2    5    5    0    0 -0.57284021195E+02  0.28945199989E+02  0.10815399542E+04  0.10864554168E+04  0.80854290751E+02 0.  0.
          5    1    3    3  502    0 -0.52256160017E+01 -0.42774587580E+02  0.17943638575E+04  0.17948873824E+04  0.47000000000E+01 0. -1.
        -11    1    4    4    0    0  0.30446155899E+02  0.11586249171E+02  0.79736604014E+03  0.79803120963E+03  0.00000000000E+00 0.  1.
         12    1    4    4    0    0  0.10439963706E+02  0.13778281443E+02  0.31211273876E+02  0.35678810220E+02  0.00000000000E+00 0. -1.
         -5    1    5    5    0  501  0.21623517591E+02 -0.11535143023E+02  0.29980401752E+02  0.39007057397E+02  0.47000000000E+01 0.  1.
         13    1    6    6    0    0 -0.67121140501E+02  0.35269874189E+02  0.59981085520E+03  0.60458438083E+03  0.00000000000E+00 0. -1.
        -14    1    6    6    0    0  0.98371193065E+01 -0.63246741998E+01  0.48172909902E+03  0.48187103592E+03  0.00000000000E+00 0.  1.
</event>
<event>
12    1  0.2609167E-002  0.2163168E+03  0.7818608E-02  0.1136659E+00
          1   -1    0    0  502    0  0.00000000000E+00  0.00000000000E+00  0.91866601752E+03  0.91866601752E+03  0.00000000000E+00 0.  1.
         -1   -1    0    0    0  501 -0.00000000000E+00 -0.00000000000E+00 -0.51859281885E+02  0.51859281885E+02  0.00000000000E+00 0. -1.
          6    2    1    2  502    0 -0.12733621753E+03 -0.38866320624E+02  0.36652778304E+03  0.42504339688E+03  0.16909810856E+03 0.  0.
         24    2    3    3    0    0 -0.67783298745E+02 -0.88561356300E+02  0.26247808873E+03  0.29517971608E+03  0.76148724873E+02 0.  0.
         -6    2    1    2    0  501  0.12733621753E+03  0.38866320624E+02  0.50027895260E+03  0.54548190253E+03  0.17189058264E+03 0.  0.
        -24    2    5    5    0    0  0.12709259410E+03 -0.23255447669E+02  0.41082799269E+03  0.43647393182E+03  0.70968375116E+02 0.  0.
          5    1    3    3  502    0 -0.59552918783E+02  0.49695035676E+02  0.10404969431E+03  0.12986368081E+03  0.47000000000E+01 0. -1.
        -11    1    4    4    0    0 -0.62613373066E+02 -0.19267923964E+02  0.12357270711E+03  0.13986386711E+03  0.00000000000E+00 0.  1.
         12    1    4    4    0    0 -0.51699256796E+01 -0.69293432335E+02  0.13890538162E+03  0.15531584896E+03  0.00000000000E+00 0. -1.
         -5    1    5    5    0  501  0.24362343143E+00  0.62121768293E+02  0.89450959910E+02  0.10900797070E+03  0.47000000000E+01 0.  1.
         13    1    6    6    0    0  0.52245698804E+02 -0.32328838564E+02  0.10655280787E+03  0.12299702318E+03  0.00000000000E+00 0. -1.
        -14    1    6    6    0    0  0.74846895292E+02  0.90733908951E+01  0.30427518481E+03  0.31347690864E+03  0.00000000000E+00 0.  1.
</event>
<event>
12    1  0.2609167E-002  0.1972129E+03  0.7818608E-02  0.1152112E+00
         -1   -1    0    0    0  501 -0.00000000000E+00  0.00000000000E+00  0.15957360153E+03  0.15957360153E+03  0.00000000000E+00 0. -1.
          1   -1    0    0  502    0  0.00000000000E+00 -0.00000000000E+00 -0.24516245592E+03  0.24516245592E+03  0.00000000000E+00 0.  1.
          6    2    1    2  502    0 -0.79952348817E+02  0.43339982127E+02 -0.57314873415E+02  0.20253754831E+03  0.17165585231E+03 0.  0.
         24    2    3    3    0    0 -0.80998203024E+01  0.11540746434E+02 -0.86223319892E+02  0.11868192523E+03  0.80325229952E+02 0.  0.
         -6    2    1    2    0  501  0.79952348817E+02 -0.43339982127E+02 -0.28273980977E+02  0.20219850914E+03  0.17836503852E+03 0.  0.
        -24    2    5    5    0    0  0.77967970825E+02  0.34651208344E+01  0.40956777523E+02  0.11847489633E+03  0.79169640004E+02 0.  0.
          5    1    3    3  502    0 -0.71852528514E+02  0.31799235693E+02  0.28908446477E+02  0.83855623081E+02  0.47000000000E+01 0. -1.
        -11    1    4    4    0    0 -0.59868690234E+01  0.32942477070E+02 -0.40324041182E+01  0.33724022287E+02  0.00000000000E+00 0.  1.
         12    1    4    4    0    0 -0.21129512790E+01 -0.21401730637E+02 -0.82190915774E+02  0.84957902947E+02  0.00000000000E+00 0. -1.
         -5    1    5    5    0  501  0.19843779914E+01 -0.46805102961E+02 -0.69230758500E+02  0.83723612809E+02  0.47000000000E+01 0.  1.
         13    1    6    6    0    0  0.57336555833E+02 -0.19062386210E+02  0.57778986155E+02  0.83601832779E+02  0.00000000000E+00 0. -1.
        -14    1    6    6    0    0  0.20631414992E+02  0.22527507045E+02 -0.16822208631E+02  0.34873063551E+02  0.00000000000E+00 0.  1.
</event>
<event>
12    1  0.2609167E-002  0.2032998E+03  0.7818608E-02  0.1146984E+00
         -1   -1    0    0    0  501 -0.00000000000E+00  0.00000000000E+00  0.69789478740E+02  0.69789478740E+02  0.00000000000E+00 0. -1.
          1   -1    0    0  502    0  0.00000000000E+00 -0.00000000000E+00 -0.75236171348E+03  0.75236171348E+03  0.00000000000E+00 0.  1.
          6    2    1    2  502    0 -0.10542411100E+03  0.24846907847E+02 -0.15151879313E+03  0.25348264198E+03  0.17194153978E+03 0.  0.
         24    2    3    3    0    0 -0.67041014167E+02  0.73380759802E+02 -0.14298450705E+03  0.19084303033E+03  0.78084950406E+02 0.  0.
         -6    2    1    2    0  501  0.10542411100E+03 -0.24846907847E+02 -0.53105344160E+03  0.56866855024E+03  0.17214688549E+03 0.  0.
        -24    2    5    5    0    0 -0.46722178204E+01  0.16016677254E+02 -0.27670120606E+03  0.28847543125E+03  0.79850819831E+02 0.  0.
          5    1    3    3  502    0 -0.38383096830E+02 -0.48533851955E+02 -0.85342860817E+01  0.62639611643E+02  0.47000000000E+01 0. -1.
        -11    1    4    4    0    0 -0.49856587301E+02  0.48689613066E+02 -0.14480955642E+03  0.16070521258E+03  0.00000000000E+00 0.  1.
         12    1    4    4    0    0 -0.17184426866E+02  0.24691146736E+02  0.18250493716E+01  0.30137817756E+02  0.00000000000E+00 0. -1.
         -5    1    5    5    0  501  0.11009632882E+03 -0.40863585101E+02 -0.25435223554E+03  0.28019311899E+03  0.47000000000E+01 0.  1.
         11    1    6    6    0    0  0.20246355863E+02  0.25014117260E+02 -0.45325922098E+02  0.55588309940E+02  0.00000000000E+00 0. -1.
        -12    1    6    6    0    0 -0.24918573684E+02 -0.89974400057E+01 -0.23137528397E+03  0.23288712131E+03  0.00000000000E+00 0.  1.
</event>
<event>
12    1  0.2609167E-002  0.1767858E+03  0.7818608E-02  0.1170950E+00
          2   -1    0    0  502    0  0.00000000000E+00  0.00000000000E+00  0.22441016837E+04  0.22441016837E+04  0.00000000000E+00 0. -1.
         -2   -1    0    0    0  501 -0.00000000000E+00 -0.00000000000E+00 -0.15345798895E+02  0.15345798895E+02  0.00000000000E+00 0.  1.
          6    2    1    2  502    0  0.36078805451E+02  0.21985424128E+02  0.14615426620E+04  0.14722727989E+04  0.17232295913E+03 0.  0.
         24    2    3    3    0    0  0.87516903640E+02  0.16146643169E+01  0.11341941048E+04  0.11402486826E+04  0.78159934966E+02 0.  0.
         -6    2    1    2    0  501 -0.36078805451E+02 -0.21985424128E+02  0.76721322275E+03  0.78717468372E+03  0.17100530529E+03 0.  0.
        -24    2    5    5    0    0 -0.79528679186E+02 -0.20094924923E+02  0.35642407919E+03  0.37406298455E+03  0.78462573029E+02 0.  0.
          5    1    3    3  502    0 -0.51438098189E+02  0.20370759811E+02  0.32734855728E+03  0.33202411623E+03  0.47000000000E+01 0. -1.
        -13    1    4    4    0    0 -0.12936723002E+02  0.28310650829E+01  0.64372449866E+02  0.65720514554E+02  0.00000000000E+00 0.  1.
         14    1    4    4    0    0  0.10045362664E+03 -0.12164007660E+01  0.10698216549E+04  0.10745281681E+04  0.00000000000E+00 0. -1.
         -5    1    5    5    0  501  0.43449873735E+02 -0.18904992050E+01  0.41078914357E+03  0.41311169917E+03  0.47000000000E+01 0.  1.
         13    1    6    6    0    0 -0.56646594365E+02  0.11992464953E+02  0.29810458995E+03  0.30367581797E+03  0.00000000000E+00 0. -1.
        -14    1    6    6    0    0 -0.22882084821E+02 -0.32087389876E+02  0.58319489235E+02  0.70387166582E+02  0.00000000000E+00 0.  1.
</event>
<event>
12    1  0.2609167E-002  0.2077097E+03  0.7818608E-02  0.1143393E+00
         -2   -1    0    0    0  501 -0.00000000000E+00  0.00000000000E+00  0.23670534155E+03  0.23670534155E+03  0.00000000000E+00 0. -1.
          2   -1    0    0  502    0  0.00000000000E+00 -0.00000000000E+00 -0.19985967642E+03  0.19985967642E+03  0.00000000000E+00 0.  1.
          6    2    1    2  502    0 -0.26723528612E+02  0.11276055137E+03 -0.46369132594E+02  0.21247573120E+03  0.17194985015E+03 0.  0.
         24    2    3    3    0    0 -0.72118201617E+02  0.95417223123E+02 -0.69425725172E+02  0.15848347404E+03  0.77405418132E+02 0.  0.
         -6    2    1    2    0  501  0.26723528612E+02 -0.11276055137E+03  0.83214797719E+02  0.22408928677E+03  0.17280687763E+03 0.  0.
        -24    2    5    5    0    0 -0.31828016831E+02 -0.12044340895E+03  0.68221559300E+02  0.16298121060E+03  0.79931573495E+02 0.  0.
          5    1    3    3  502    0  0.45394673005E+02  0.17343328249E+02  0.23056592578E+02  0.53992257161E+02  0.47000000000E+01 0. -1.
        -11    1    4    4    0    0 -0.32903592702E+02  0.53636985012E+02  0.66131504617E+01  0.63271686661E+02  0.00000000000E+00 0.  1.
         12    1    4    4    0    0 -0.39214608915E+02  0.41780238111E+02 -0.76038875634E+02  0.95211787383E+02  0.00000000000E+00 0. -1.
         -5    1    5    5    0  501  0.58551545443E+02  0.76828575755E+01  0.14993238419E+02  0.61108076165E+02  0.47000000000E+01 0.  1.
         11    1    6    6    0    0  0.10563021286E+02 -0.10647273576E+02  0.38896027892E+02  0.41687442223E+02  0.00000000000E+00 0. -1.
        -12    1    6    6    0    0 -0.42391038117E+02 -0.10979613537E+03  0.29325531408E+02  0.12129376838E+03  0.00000000000E+00 0.  1.
</event>
<event>
12    1  0.2609167E-002  0.2083975E+03  0.7818608E-02  0.1142841E+00
          3   -1    0    0  502    0  0.00000000000E+00  0.00000000000E+00  0.21681675372E+03  0.21681675372E+03  0.00000000000E+00 0.  1.
         -3   -1    0    0    0  501 -0.00000000000E+00 -0.00000000000E+00 -0.20109231918E+03  0.20109231918E+03  0.00000000000E+00 0. -1.
          6    2    1    2  502    0 -0.28307168470E+02  0.11607391101E+03  0.20941450045E+02  0.20966953832E+03  0.17102140908E+03 0.  0.
         24    2    3    3    0    0 -0.52677482556E+02  0.96010890196E+02 -0.29469282542E+02  0.15000573880E+03  0.98184901357E+02 0.  0.
         -6    2    1    2    0  501  0.28307168470E+02 -0.11607391101E+03 -0.52170155043E+01  0.20823953458E+03  0.17047591591E+03 0.  0.
        -24    2    5    5    0    0  0.27490725858E+02  0.18507471343E+01 -0.12305699780E+02  0.90005736438E+02  0.84796444923E+02 0.  0.
          5    1    3    3  502    0  0.24370314086E+02  0.20063020818E+02  0.50410732587E+02  0.59663799518E+02  0.47000000000E+01 0. -1.
        -11    1    4    4    0    0 -0.17471907714E+01 -0.15719992267E+02  0.12584945891E+02  0.20212661763E+02  0.00000000000E+00 0.  1.
         12    1    4    4    0    0 -0.50930291785E+02  0.11173088246E+03 -0.42054228433E+02  0.12979307704E+03  0.00000000000E+00 0. -1.
         -5    1    5    5    0  501  0.81644261190E+00 -0.11792465815E+03  0.70886842758E+01  0.11823379814E+03  0.47000000000E+01 0.  1.
         13    1    6    6    0    0 -0.27310967915E+02  0.19518613863E+01 -0.21015750066E+02  0.34516090192E+02  0.00000000000E+00 0. -1.
        -14    1    6    6    0    0  0.54801693773E+02 -0.10111425201E+00  0.87100502860E+01  0.55489646246E+02  0.00000000000E+00 0.  1.
</event>
<event>
12    1  0.2609167E-002  0.2752603E+03  0.7818608E-02  0.1098306E+00
          2   -1    0    0  502    0  0.00000000000E+00  0.00000000000E+00  0.26280184103E+03  0.26280184103E+03  0.00000000000E+00 0. -1.
         -2   -1    0    0    0  501 -0.00000000000E+00 -0.00000000000E+00 -0.39365410215E+03  0.39365410215E+03  0.00000000000E+00 0.  1.
          6    2    1    2  502    0  0.20075182036E+03  0.87398103725E+02 -0.23461597854E+03  0.35923478320E+03  0.16144736035E+03 0.  0.
         24    2    3    3    0    0  0.43650803233E+02  0.16761074408E+02 -0.43982754036E+02  0.10226506557E+03  0.79607378715E+02 0.  0.
         -6    2    1    2    0  501 -0.20075182036E+03 -0.87398103725E+02  0.10376371742E+03  0.29722115997E+03  0.17214466872E+03 0.  0.
        -24    2    5    5    0    0 -0.52669380274E+02 -0.84316475808E+02  0.49895187183E+02  0.13954486485E+03  0.84260951163E+02 0.  0.
          5    1    3    3  502    0  0.15710101713E+03  0.70637029317E+02 -0.19063322451E+03  0.25696971763E+03  0.47000000000E+01 0. -1.
        -11    1    4    4    0    0 -0.20318577603E+02 -0.65018991886E+01 -0.20482019566E+00  0.21334508201E+02  0.00000000000E+00 0.  1.
         12    1    4    4    0    0  0.63969380837E+02  0.23262973597E+02 -0.43777933841E+02  0.80930557372E+02  0.00000000000E+00 0. -1.
         -5    1    5    5    0  501 -0.14808244009E+03 -0.30816279174E+01  0.53868530241E+02  0.15767629512E+03  0.47000000000E+01 0.  1.
         11    1    6    6    0    0 -0.25599913208E+02  0.10862354052E+02  0.25265257011E+02  0.37572323639E+02  0.00000000000E+00 0. -1.
        -12    1    6    6    0    0 -0.27069467065E+02 -0.95178829860E+02  0.24629930172E+02  0.10197254121E+03  0.00000000000E+00 0.  1.
</event>
<event>
12    1  0.2609167E-002  0.2087254E+03  0.7818608E-02  0.1142579E+00
         -1   -1    0    0    0  501 -0.00000000000E+00  0.00000000000E+00  0.15770390374E+03  0.15770390374E+03  0.00000000000E+00 0.  1.
          1   -1    0    0  502    0  0.00000000000E+00 -0.00000000000E+00 -0.31722011418E+03  0.31722011418E+03  0.00000000000E+00 0. -1.
          6    2    1    2  502    0  0.20169811180E+02  0.11755414213E+03 -0.16539495950E+03  0.26703919474E+03  0.17241995616E+03 0.  0.
         24    2    3    3    0    0 -0.19460089375E+02  0.38635922516E+02 -0.15243163276E+03  0.17765937462E+03  0.80349369239E+02 0.  0.
         -6    2    1    2    0  501 -0.20169811180E+02 -0.11755414213E+03  0.58787490665E+01  0.20788482318E+03  0.17016386927E+03 0.  0.
        -24    2    5    5    0    0 -0.66070761181E+02 -0.39255918731E+02  0.31281688219E+02  0.11351900142E+03  0.77470297715E+02 0.  0.
          5    1    3    3  502    0  0.39629900555E+02  0.78918219614E+02 -0.12963326746E+02  0.89379820124E+02  0.47000000000E+01 0. -1.
        -11    1    4    4    0    0  0.26607943844E+02  0.24277804343E+02 -0.33010320064E+02  0.48857708604E+02  0.00000000000E+00 0.  1.
         12    1    4    4    0    0 -0.46068033220E+02  0.14358118173E+02 -0.11942131269E+03  0.12880166601E+03  0.00000000000E+00 0. -1.
         -5    1    5    5    0  501  0.45900950002E+02 -0.78298223399E+02 -0.25402939152E+02  0.94365821758E+02  0.47000000000E+01 0.  1.
         13    1    6    6    0    0 -0.35283102345E+02  0.57191398950E+01 -0.18016832058E+02  0.40027641820E+02  0.00000000000E+00 0. -1.
        -14    1    6    6    0    0 -0.30787658836E+02 -0.44975058626E+02  0.49298520277E+02  0.73491359605E+02  0.00000000000E+00 0.  1.
</event>
<event>
12    1  0.2609167E-002  0.1775524E+03  0.7818608E-02  0.1170193E+00
         -1   -1    0    0    0  501 -0.00000000000E+00  0.00000000000E+00  0.15648475336E+03  0.15648475336E+03  0.00000000000E+00 0. -1.
          1   -1    0    0  502    0  0.00000000000E+00 -0.00000000000E+00 -0.23016355785E+03  0.23016355785E+03  0.00000000000E+00 0.  1.
          6    2    1    2  502    0 -0.42734174578E+02 -0.37214304982E+01 -0.10494793168E+03  0.20549362140E+03  0.17138699294E+03 0.  0.
         24    2    3    3    0    0 -0.40466799568E+02  0.32921802594E+02 -0.13892597202E+01  0.95519278663E+02  0.80003722416E+02 0.  0.
         -6    2    1    2    0  501  0.42734174578E+02  0.37214304982E+01  0.31269127187E+02  0.18115468981E+03  0.17320278463E+03 0.  0.
        -24    2    5    5    0    0 -0.38700614969E+02 -0.23604034020E+02  0.14383936572E+02  0.93487674225E+02  0.80487014976E+02 0.  0.
          5    1    3    3  502    0 -0.22673750099E+01 -0.36643233093E+02 -0.10355867196E+03  0.10997434273E+03  0.47000000000E+01 0. -1.
        -11    1    4    4    0    0 -0.60212055475E+02  0.32334714223E+02 -0.16900132156E+02  0.70403407839E+02  0.00000000000E+00 0.  1.
         12    1    4    4    0    0  0.19745255906E+02  0.58708837090E+00  0.15510872435E+02  0.25115870824E+02  0.00000000000E+00 0. -1.
         -5    1    5    5    0  501  0.81434789547E+02  0.27325464518E+02  0.16885190614E+02  0.87667015586E+02  0.47000000000E+01 0.  1.
         11    1    6    6    0    0 -0.28135759473E+02  0.26495815912E+02  0.16995114428E+02  0.42219463952E+02  0.00000000000E+00 0. -1.
        -12    1    6    6    0    0 -0.10564855496E+02 -0.50099849932E+02 -0.26111778562E+01  0.51268210273E+02  0.00000000000E+00 0.  1.
</event>
<event>
12    1  0.2609167E-002  0.1978148E+03  0.7818608E-02  0.1151596E+00
         -2   -1    0    0    0  501 -0.00000000000E+00  0.00000000000E+00  0.23007243758E+03  0.23007243758E+03  0.00000000000E+00 0.  1.
          2   -1    0    0  502    0  0.00000000000E+00 -0.00000000000E+00 -0.26475294996E+03  0.26475294996E+03  0.00000000000E+00 0. -1.
          6    2    1    2  502    0 -0.24321515813E+02  0.94357062403E+02  0.13059183475E+03  0.23729155474E+03  0.17250583552E+03 0.  0.
         24    2    3    3    0    0 -0.17918610122E+02  0.75055791814E+02  0.58326447899E+01  0.11079854415E+03  0.79295959333E+02 0.  0.
         -6    2    1    2    0  501  0.24321515813E+02 -0.94357062403E+02 -0.16527234713E+03  0.25753383280E+03  0.17179620181E+03 0.  0.
        -24    2    5    5    0    0 -0.49656628995E+02 -0.28583869250E+02 -0.86967724876E+02  0.13123029875E+03  0.79844772882E+02 0.  0.
          5    1    3    3  502    0 -0.64029056908E+01  0.19301270589E+02  0.12475918996E+03  0.12649301059E+03  0.47000000000E+01 0. -1.
        -13    1    4    4    0    0  0.28494800044E+02  0.46299445202E+02 -0.67065089195E+01  0.54777454464E+02  0.00000000000E+00 0.  1.
         14    1    4    4    0    0 -0.46413410166E+02  0.28756346611E+02  0.12539153709E+02  0.56021089684E+02  0.00000000000E+00 0. -1.
         -5    1    5    5    0  501  0.73978144807E+02 -0.65773193153E+02 -0.78304622258E+02  0.12630353405E+03  0.47000000000E+01 0.  1.
         11    1    6    6    0    0 -0.39357680324E+02  0.14061850258E+02 -0.74830019243E+02  0.85710526851E+02  0.00000000000E+00 0. -1.
        -12    1    6    6    0    0 -0.10298948671E+02 -0.42645719508E+02 -0.12137705633E+02  0.45519771903E+02  0.00000000000E+00 0.  1.
</event>
<event>
12    1  0.2609167E-002  0.2141596E+03  0.7818608E-02  0.1138314E+00
         -3   -1    0    0    0  501 -0.00000000000E+00  0.00000000000E+00  0.28242337430E+03  0.28242337430E+03  0.00000000000E+00 0.  1.
          3   -1    0    0  502    0  0.00000000000E+00 -0.00000000000E+00 -0.17041175555E+03  0.17041175555E+03  0.00000000000E+00 0. -1.
          6    2    1    2  502    0  0.94905986193E+02  0.84863964596E+02  0.10502282424E+03  0.23820615957E+03  0.17176536945E+03 0.  0.
         24    2    3    3    0    0  0.96432217372E+02  0.12261969873E+03  0.94030306515E+02  0.19857346741E+03  0.79088307314E+02 0.  0.
         -6    2    1    2    0  501 -0.94905986193E+02 -0.84863964596E+02  0.69887945107E+01  0.21462897027E+03  0.17264910347E+03 0.  0.
        -24    2    5    5    0    0 -0.54730728874E+02 -0.27618134241E+02 -0.59463628275E+02  0.11804144060E+03  0.81484014322E+02 0.  0.
          5    1    3    3  502    0 -0.15262311787E+01 -0.37755734134E+02  0.10992517726E+02  0.39632692156E+02  0.47000000000E+01 0. -1.
        -11    1    4    4    0    0  0.36673420929E+02 -0.89006819200E+00  0.28859164236E+02  0.46675297368E+02  0.00000000000E+00 0.  1.
         12    1    4    4    0    0  0.59758796443E+02  0.12350976692E+03  0.65171142279E+02  0.15189817005E+03  0.00000000000E+00 0. -1.
         -5    1    5    5    0  501 -0.40175257320E+02 -0.57245830355E+02  0.66452422786E+02  0.96587529671E+02  0.47000000000E+01 0.  1.
         13    1    6    6    0    0 -0.76006994730E+02 -0.16237985336E+02 -0.47766855398E+02  0.91227232175E+02  0.00000000000E+00 0. -1.
        -14    1    6    6    0    0  0.21276265856E+02 -0.11380148905E+02 -0.11696772878E+02  0.26814208428E+02  0.00000000000E+00 0.  1.
</event>
<event>
12    1  0.2609167E-002  0.2963510E+03  0.7818608E-02  0.1087079E+00
          2   -1    0    0  502    0  0.00000000000E+00  0.00000000000E+00  0.54586227095E+03  0.54586227095E+03  0.00000000000E+00 0. -1.
         -2   -1    0    0    0  501 -0.00000000000E+00 -0.00000000000E+00 -0.20915530550E+03  0.20915530550E+03  0.00000000000E+00 0.  1.
          6    2    1    2  502    0 -0.23783585042E+03 -0.41041604018E+02  0.34993882402E+03  0.45891990107E+03  0.17291613584E+03 0.  0.
         24    2    3    3    0    0 -0.25295446863E+03 -0.23830102027E+02  0.34384785254E+03  0.43475384325E+03  0.78903241778E+02 0.  0.
         -6    2    1    2    0  501  0.23783585042E+03  0.41041604018E+02 -0.13231858571E+02  0.29609767538E+03  0.17102177135E+03 0.  0.
        -24    2    5    5    0    0  0.69753589544E+02  0.66212435543E+01 -0.55670934268E+02  0.11929390624E+03  0.78882057674E+02 0.  0.
          5    1    3    3  502    0  0.15118618203E+02 -0.17211501991E+02  0.60909714839E+01  0.24166057824E+02  0.47000000000E+01 0. -1.
        -11    1    4    4    0    0 -0.85749376400E+02  0.15579857791E+01  0.61155645073E+02  0.10533468468E+03  0.00000000000E+00 0.  1.
         12    1    4    4    0    0 -0.16720509223E+03 -0.25388087806E+02  0.28269220747E+03  0.32941915857E+03  0.00000000000E+00 0. -1.
         -5    1    5    5    0  501  0.16808226088E+03  0.34420360464E+02  0.42439075697E+02  0.17680376914E+03  0.47000000000E+01 0.  1.
         13    1    6    6    0    0  0.63027635038E+02 -0.12563534242E+02 -0.69535655067E+02  0.94686495852E+02  0.00000000000E+00 0. -1.
        -14    1    6    6    0    0  0.67259545062E+01  0.19184777796E+02  0.13864720799E+02  0.24607410387E+02  0.00000000000E+00 0.  1.
</event>
<event>
12    1  0.2609167E-002  0.2122619E+03  0.7818608E-02  0.1139787E+00
          3   -1    0    0  502    0  0.00000000000E+00  0.00000000000E+00  0.23746811250E+02  0.23746811250E+02  0.00000000000E+00 0. -1.
         -3   -1    0    0    0  501 -0.00000000000E+00 -0.00000000000E+00 -0.22500694723E+04  0.22500694723E+04  0.00000000000E+00 0.  1.
          6    2    1    2  502    0 -0.10231431674E+03 -0.74424114693E+02 -0.15590266794E+04  0.15732805798E+04  0.16923482875E+03 0.  0.
         24    2    3    3    0    0 -0.13221697765E+03 -0.84352707362E+02 -0.14014289408E+04  0.14124953712E+04  0.80891217493E+02 0.  0.
         -6    2    1    2    0  501  0.10231431674E+03  0.74424114693E+02 -0.66729598166E+03  0.70053570382E+03  0.17163675866E+03 0.  0.
        -24    2    5    5    0    0  0.12885629525E+03  0.91006519358E+02 -0.60977260724E+03  0.63488144750E+03  0.79785264592E+02 0.  0.
          5    1    3    3  502    0  0.29902660912E+02  0.99285926685E+01 -0.15759773863E+03  0.16078520860E+03  0.47000000000E+01 0. -1.
        -11    1    4    4    0    0 -0.90579926797E+02 -0.29373396817E+02 -0.10536502154E+04  0.10579443728E+04  0.00000000000E+00 0.  1.
         12    1    4    4    0    0 -0.41637050855E+02 -0.54979310545E+02 -0.34777872537E+03  0.35455099833E+03  0.00000000000E+00 0. -1.
         -5    1    5    5    0  501 -0.26541978515E+02 -0.16582404665E+02 -0.57523374424E+02  0.65654256321E+02  0.47000000000E+01 0.  1.
         11    1    6    6    0    0 -0.10346293980E+02  0.24792710175E+01 -0.22673346917E+02  0.25045423620E+02  0.00000000000E+00 0. -1.
        -12    1    6    6    0    0  0.13920258924E+03  0.88527248341E+02 -0.58709926032E+03  0.60983602388E+03  0.00000000000E+00 0.  1.
</event>
<event>
12    1  0.2609167E-002  0.1940934E+03  0.7818608E-02  0.1154820E+00
         -1   -1    0    0    0  501 -0.00000000000E+00  0.00000000000E+00  0.11158438549E+03  0.11158438549E+03  0.00000000000E+00 0. -1.
          1   -1    0    0  502    0  0.00000000000E+00 -0.00000000000E+00 -0.40314380854E+03  0.40314380854E+03  0.00000000000E+00 0.  1.
          6    2    1    2  502    0  0.62920682839E+02  0.30036443940E+02 -0.37421563036E+02  0.18981515510E+03  0.17253469051E+03 0.  0.
         24    2    3    3    0    0 -0.15858303779E+02  0.24351515898E+02 -0.64169814639E+02  0.10629266649E+03  0.79598264513E+02 0.  0.
         -6    2    1    2    0  501 -0.62920682839E+02 -0.30036443940E+02 -0.25413786001E+03  0.32491303894E+03  0.19005586201E+03 0.  0.
        -24    2    5    5    0    0 -0.20568265864E+02 -0.10169465286E+02 -0.19655478228E+02  0.85763501133E+02  0.80265613542E+02 0.  0.
          5    1    3    3  502    0  0.78778986617E+02  0.56849280425E+01  0.26748251603E+02  0.83522488607E+02  0.47000000000E+01 0. -1.
        -13    1    4    4    0    0 -0.43425263840E+02 -0.52112215452E+01 -0.39527926591E+02  0.58952246353E+02  0.00000000000E+00 0.  1.
         14    1    4    4    0    0  0.27566960061E+02  0.29562737443E+02 -0.24641888048E+02  0.47340420137E+02  0.00000000000E+00 0. -1.
         -5    1    5    5    0  501 -0.42352416974E+02 -0.19866978654E+02 -0.23448238178E+03  0.23914953780E+03  0.47000000000E+01 0.  1.
         13    1    6    6    0    0 -0.10958249822E+02 -0.44898513184E+02 -0.37289647319E+01  0.46366635669E+02  0.00000000000E+00 0. -1.
        -14    1    6    6    0    0 -0.96100160428E+01  0.34729047898E+02 -0.15926513496E+02  0.39396865464E+02  0.00000000000E+00 0.  1.
</event>
<event>
12    1  0.2609167E-002  0.2034299E+03  0.7818608E-02  0.1146877E+00
         -2   -1    0    0    0  501 -0.00000000000E+00  0.00000000000E+00  0.44460823470E+02  0.44460823470E+02  0.00000000000E+00 0. -1.
          2   -1    0    0  502    0  0.00000000000E+00 -0.00000000000E+00 -0.18618085628E+04  0.18618085628E+04  0.00000000000E+00 0.  1.
          6    2    1    2  502    0  0.48799387425E+02  0.93793551789E+02 -0.22982325890E+03  0.30548202540E+03  0.17123646498E+03 0.  0.
         24    2    3    3    0    0  0.92479631225E+02  0.40844343802E+02 -0.11721704688E+03  0.17352054878E+03  0.78414298173E+02 0.  0.
         -6    2    1    2    0  501 -0.48799387425E+02 -0.93793551789E+02 -0.15875244804E+04  0.16007873609E+04  0.17637343396E+03 0.  0.
        -24    2    5    5    0    0 -0.59657366663E+02  0.56917631341E+01 -0.62252275981E+03  0.63059890784E+03  0.80802218576E+02 0.  0.
          5    1    3    3  502    0 -0.43680243800E+02  0.52949207987E+02 -0.11260621202E+03  0.13196147662E+03  0.47000000000E+01 0. -1.
        -11    1    4    4    0    0  0.70988250605E+01  0.39776191915E+02 -0.53181142469E+02  0.66789016124E+02  0.00000000000E+00 0.  1.
         12    1    4    4    0    0  0.85380806164E+02  0.10681518870E+01 -0.64035904413E+02  0.10673153266E+03  0.00000000000E+00 0. -1.
         -5    1    5    5    0  501  0.10857979238E+02 -0.99485314923E+02 -0.96500172063E+03  0.97018845305E+03  0.47000000000E+01 0.  1.
         11    1    6    6    0    0  0.82837396658E+01  0.27600816262E+02 -0.15472149443E+03  0.15738222975E+03  0.00000000000E+00 0. -1.
        -12    1    6    6    0    0 -0.67941106329E+02 -0.21909053128E+02 -0.46780126538E+03  0.47321667810E+03  0.00000000000E+00 0.  1.
</event>
<event>
12    1  0.2609167E-002  0.2942778E+03  0.7818608E-02  0.1088137E+00
          2   -1    0    0  502    0  0.00000000000E+00  0.00000000000E+00  0.79790816984E+03  0.79790816984E+03  0.00000000000E+00 0.  1.
         -2   -1    0    0    0  501 -0.00000000000E+00 -0.00000000000E+00 -0.21788830145E+03  0.21788830145E+03  0.00000000000E+00 0. -1.
          6    2    1    2  502    0  0.20113305134E+03 -0.12859201823E+03  0.64980915220E+03  0.71332472507E+03  0.17201691088E+03 0.  0.
         24    2    3    3    0    0  0.19655691369E+03 -0.14208014295E+03  0.65020019206E+03  0.69832094367E+03  0.77913177714E+02 0.  0.
         -6    2    1    2    0  501 -0.20113305134E+03  0.12859201823E+03 -0.69789283807E+02  0.30247174622E+03  0.17212844516E+03 0.  0.
        -24    2    5    5    0    0 -0.16675108491E+03  0.16181174050E+03 -0.52295800700E+02  0.25134659081E+03  0.80319949337E+02 0.  0.
          5    1    3    3  502    0  0.45761376543E+01  0.13488124724E+02 -0.39103986522E+00  0.15003781409E+02  0.47000000000E+01 0. -1.
        -11    1    4    4    0    0  0.51879065070E+02 -0.31742231699E+02  0.27081795055E+03  0.27756327028E+03  0.00000000000E+00 0.  1.
         12    1    4    4    0    0  0.14467784862E+03 -0.11033791125E+03  0.37938224151E+03  0.42075767339E+03  0.00000000000E+00 0. -1.
         -5    1    5    5    0  501 -0.34381966437E+02 -0.33219722277E+02 -0.17493483107E+02  0.51125155407E+02  0.47000000000E+01 0.  1.
         11    1    6    6    0    0 -0.13520176528E+03  0.91140246604E+02 -0.59611710037E+02  0.17360765496E+03  0.00000000000E+00 0. -1.
        -12    1    6    6    0    0 -0.31549319622E+02  0.70671493899E+02  0.73159093371E+01  0.77738935855E+02  0.00000000000E+00 0.  1.
</event>
<event>
12    1  0.2609167E-002  0.2031420E+03  0.7818608E-02  0.1147115E+00
          2   -1    0    0  502    0  0.00000000000E+00  0.00000000000E+00  0.66814365227E+03  0.66814365227E+03  0.00000000000E+00 0. -1.
         -2   -1    0    0    0  501 -0.00000000000E+00 -0.00000000000E+00 -0.61820384223E+02  0.61820384223E+02  0.00000000000E+00 0.  1.
          6    2    1    2  502    0  0.29304047431E+02  0.10697219759E+03  0.31540165791E+03  0.37561125657E+03  0.17118362071E+03 0.  0.
         24    2    3    3    0    0 -0.37671565877E+01  0.72823398919E+02  0.30944273470E+03  0.32747142118E+03  0.78519339852E+02 0.  0.
         -6    2    1    2    0  501 -0.29304047431E+02 -0.10697219759E+03  0.29092161014E+03  0.35435277992E+03  0.16920026932E+03 0.  0.
        -24    2    5    5    0    0 -0.49073318753E+02 -0.10514708720E+03  0.30033868840E+03  0.33188221074E+03  0.80488343865E+02 0.  0.
          5    1    3    3  502    0  0.33071204019E+02  0.34148798675E+02  0.59589232066E+01  0.48139835396E+02  0.47000000000E+01 0. -1.
        -11    1    4    4    0    0  0.72693906385E+01 -0.14259594918E+02  0.84611757470E+02  0.86112308004E+02  0.00000000000E+00 0.  1.
         12    1    4    4    0    0 -0.11036547226E+02  0.87082993837E+02  0.22483097723E+03  0.24135911317E+03  0.00000000000E+00 0. -1.
         -5    1    5    5    0  501  0.19769271322E+02 -0.18251103978E+01 -0.94170782537E+01  0.22470569183E+02  0.47000000000E+01 0.  1.
         13    1    6    6    0    0 -0.20358351860E+02  0.96904893776E+01  0.56392564446E+02  0.60732935049E+02  0.00000000000E+00 0. -1.
        -14    1    6    6    0    0 -0.28714966893E+02 -0.11483757657E+03  0.24394612395E+03  0.27114927569E+03  0.00000000000E+00 0.  1.
</event>
<event>
12    1  0.2609167E-002  0.2039253E+03  0.7818608E-02  0.1146469E+00
         -3   -1    0    0    0  501 -0.00000000000E+00  0.00000000000E+00  0.11629651850E+03  0.11629651850E+03  0.00000000000E+00 0. -1.
          3   -1    0    0  502    0  0.00000000000E+00 -0.00000000000E+00 -0.35993483812E+03  0.35993483812E+03  0.00000000000E+00 0.  1.
          6    2    1    2  502    0 -0.70980832674E+01  0.10440890482E+03 -0.10156165674E+03  0.22611304856E+03  0.17280259956E+03 0.  0.
         24    2    3    3    0    0 -0.50411344713E+02  0.14878247933E+02 -0.20437991532E+02  0.97680512972E+02  0.79756536906E+02 0.  0.
         -6    2    1    2    0  501  0.70980832674E+01 -0.10440890482E+03 -0.14207666288E+03  0.25011830806E+03  0.17726191835E+03 0.  0.
        -24    2    5    5    0    0  0.35585662626E+02 -0.15928359323E+02 -0.12826347868E+03  0.15602663378E+03  0.79829433608E+02 0.  0.
          5    1    3    3  502    0  0.43313261446E+02  0.89530656891E+02 -0.81123665211E+02  0.12843253559E+03  0.47000000000E+01 0. -1.
        -11    1    4    4    0    0  0.12220649714E+02 -0.17490758399E+02  0.63484188719E+01  0.22261476388E+02  0.00000000000E+00 0.  1.
         12    1    4    4    0    0 -0.62631994427E+02  0.32369006332E+02 -0.26786410404E+02  0.75419036583E+02  0.00000000000E+00 0. -1.
         -5    1    5    5    0  501 -0.28487579359E+02 -0.88480545501E+02 -0.13813184193E+02  0.94091674273E+02  0.47000000000E+01 0.  1.
         13    1    6    6    0    0  0.23931389819E+02  0.33786021407E+01  0.15980531394E+01  0.24221481064E+02  0.00000000000E+00 0. -1.
        -14    1    6    6    0    0  0.11654272807E+02 -0.19306961464E+02 -0.12986153182E+03  0.13180515272E+03  0.00000000000E+00 0.  1.
</event>
<event>
12    1  0.2609167E-002  0.1888422E+03  0.7818608E-02  0.1159510E+00
          2   -1    0    0  502    0  0.00000000000E+00  0.00000000000E+00  0.11985430814E+04  0.11985430814E+04  0.00000000000E+00 0. -1.
         -2   -1    0    0    0  501 -0.00000000000E+00 -0.00000000000E+00 -0.53953846808E+02  0.53953846808E+02  0.00000000000E+00 0.  1.
          6    2    1    2  502    0 -0.30632710375E+02 -0.69606144769E+02  0.15135506199E+03  0.24129759045E+03  0.17185108097E+03 0.  0.
         24    2    3    3    0    0  0.22646884778E+02 -0.97200915182E+02  0.10782024439E+03  0.16701733090E+03  0.79427227193E+02 0.  0.
         -6    2    1    2    0  501  0.30632710375E+02  0.69606144769E+02  0.99323417263E+03  0.10111993378E+04  0.17385799016E+03 0.  0.
        -24    2    5    5    0    0  0.74154646298E+02  0.91413556380E+02  0.77244180796E+03  0.78505540044E+03  0.76093923625E+02 0.  0.
          5    1    3    3  502    0 -0.53279595153E+02  0.27594770412E+02  0.43534817608E+02  0.74280259544E+02  0.47000000000E+01 0. -1.
        -11    1    4    4    0    0 -0.57778906646E+01 -0.39575763305E+02 -0.17091799660E+01  0.40031816819E+02  0.00000000000E+00 0.  1.
         12    1    4    4    0    0  0.28424775443E+02 -0.57625151877E+02  0.10952942435E+03  0.12698551408E+03  0.00000000000E+00 0. -1.
         -5    1    5    5    0  501 -0.43521935923E+02 -0.21807411611E+02  0.22079236466E+03  0.22614393735E+03  0.47000000000E+01 0.  1.
         13    1    6    6    0    0  0.77068045960E+01 -0.13499847943E+02  0.68320530651E+02  0.70066651412E+02  0.00000000000E+00 0. -1.
        -14    1    6    6    0    0  0.66447841702E+02  0.10491340432E+03  0.70412127731E+03  0.71498874903E+03  0.00000000000E+00 0.  1.
</event>
<event>
12    1  0.2609167E-002  0.1861269E+03  0.7818608E-02  0.1162002E+00
          2   -1    0    0  502    0  0.00000000000E+00  0.00000000000E+00  0.13564979553E+04  0.13564979553E+04  0.00000000000E+00 0. -1.
         -2   -1    0    0    0  501 -0.00000000000E+00 -0.00000000000E+00 -0.38603035400E+02  0.38603035400E+02  0.00000000000E+00 0.  1.
          6    2    1    2  502    0  0.64354007908E+02  0.27417529445E+02  0.25325460853E+03  0.31432084588E+03  0.17252981816E+03 0.  0.
         24    2    3    3    0    0  0.75680411238E+02  0.73621571217E+02  0.14535677076E+03  0.19630756576E+03  0.79122747515E+02 0.  0.
         -6    2    1    2    0  501 -0.64354007908E+02 -0.27417529445E+02  0.10646403114E+04  0.10807801448E+04  0.17243424718E+03 0.  0.
        -24    2    5    5    0    0  0.45848920869E+01 -0.60192689981E+01  0.23509855402E+03  0.24809048195E+03  0.78868905750E+02 0.  0.
          5    1    3    3  502    0 -0.11326403330E+02 -0.46204041772E+02  0.10789783777E+03  0.11801328012E+03  0.47000000000E+01 0. -1.
        -11    1    4    4    0    0  0.16512651015E+02  0.61125168424E+02  0.40192463491E+02  0.74995919755E+02  0.00000000000E+00 0.  1.
         12    1    4    4    0    0  0.59167760222E+02  0.12496402793E+02  0.10516430727E+03  0.12131164600E+03  0.00000000000E+00 0. -1.
         -5    1    5    5    0  501 -0.68938899995E+02 -0.21398260447E+02  0.82954175736E+03  0.83268966290E+03  0.47000000000E+01 0.  1.
         11    1    6    6    0    0  0.36490515706E+02 -0.34165513512E+01  0.18530562264E+03  0.18889522054E+03  0.00000000000E+00 0. -1.
        -12    1    6    6    0    0 -0.31905623619E+02 -0.26027176469E+01  0.49792931382E+02  0.59195261409E+02  0.00000000000E+00 0.  1.
</event>
<event>
12    1  0.2609167E-002  0.2606137E+03  0.7818608E-02  0.1106775E+00
         -2   -1    0    0    0  501 -0.00000000000E+00  0.00000000000E+00  0.42365629410E+02  0.42365629410E+02  0.00000000000E+00 0. -1.
          2   -1    0    0  502    0  0.00000000000E+00 -0.00000000000E+00 -0.17148315026E+04  0.17148315026E+04  0.00000000000E+00 0.  1.
          6    2    1    2  502    0 -0.17811238566E+03  0.71536820578E+02 -0.10792060896E+04  0.11118224986E+04  0.18606973420E+03 0.  0.
         24    2    3    3    0    0 -0.68797467583E+02  0.75336827999E+02 -0.82434017310E+03  0.83443663603E+03  0.79618147203E+02 0.  0.
         -6    2    1    2    0  501  0.17811238566E+03 -0.71536820578E+02 -0.59325978360E+03  0.64537463340E+03  0.16646233199E+03 0.  0.
        -24    2    5    5    0    0  0.86806111249E+02  0.25860599772E+02 -0.23506272319E+03  0.26307852130E+03  0.75840312269E+02 0.  0.
          5    1    3    3  502    0 -0.10931491808E+03 -0.38000074209E+01 -0.25486591648E+03  0.27738586257E+03  0.47000000000E+01 0. -1.
        -13    1    4    4    0    0  0.15438602504E+02  0.22905176562E+02 -0.11974579900E+03  0.12289041435E+03  0.00000000000E+00 0.  1.
         14    1    4    4    0    0 -0.84236070087E+02  0.52431651437E+02 -0.70459437410E+03  0.71154622168E+03  0.00000000000E+00 0. -1.
         -5    1    5    5    0  501  0.91306274415E+02 -0.97397420350E+02 -0.35819706041E+03  0.38229611209E+03  0.47000000000E+01 0.  1.
         11    1    6    6    0    0  0.95779264231E+02  0.25283598276E+02 -0.16508356922E+03  0.19252405726E+03  0.00000000000E+00 0. -1.
        -12    1    6    6    0    0 -0.89731529816E+01  0.57700149588E+00 -0.69979153975E+02  0.70554464042E+02  0.00000000000E+00 0.  1.
</event>
<event>
12    1  0.2609167E-002  0.1730678E+03  0.7818608E-02  0.1174686E+00
         -1   -1    0    0    0  501 -0.00000000000E+00  0.00000000000E+00  0.81636165191E+02  0.81636165191E+02  0.00000000000E+00 0.  1.
          1   -1    0    0  502    0  0.00000000000E+00 -0.00000000000E+00 -0.65269811017E+03  0.65269811017E+03  0.00000000000E+00 0. -1.
          6    2    1    2  502    0 -0.11649707991E+02 -0.15481669481E+02 -0.52816583425E+03  0.55568930313E+03  0.17162766491E+03 0.  0.
         24    2    3    3    0    0 -0.12123135038E+02 -0.30039147524E+02 -0.11942528319E+03  0.14666232067E+03  0.78728122378E+02 0.  0.
         -6    2    1    2    0  501  0.11649707991E+02  0.15481669481E+02 -0.42896110726E+02  0.17864497222E+03  0.17233267827E+03 0.  0.
        -24    2    5    5    0    0 -0.50801592546E+02  0.32580148190E+01 -0.60612935428E+02  0.11242142241E+03  0.79832523513E+02 0.  0.
          5    1    3    3  502    0  0.47342704694E+00  0.14557478043E+02 -0.40874055106E+03  0.40902698246E+03  0.47000000000E+01 0. -1.
        -13    1    4    4    0    0 -0.36587946833E+02 -0.18516418703E+02 -0.24075153543E+02  0.47551536601E+02  0.00000000000E+00 0.  1.
         14    1    4    4    0    0  0.24464811796E+02 -0.11522728822E+02 -0.95350129646E+02  0.99110784071E+02  0.00000000000E+00 0. -1.
         -5    1    5    5    0  501  0.62451300536E+02  0.12223654662E+02  0.17716824701E+02  0.66223549810E+02  0.47000000000E+01 0.  1.
         13    1    6    6    0    0  0.15181459789E+02 -0.63450731153E+00 -0.40615690706E+02  0.43364889627E+02  0.00000000000E+00 0. -1.
        -14    1    6    6    0    0 -0.65983052335E+02  0.38925221305E+01 -0.19997244722E+02  0.69056532786E+02  0.00000000000E+00 0.  1.
</event>
<event>
12    1  0.2609167E-002  0.1883896E+03  0.7818608E-02  0.1159922E+00
         -1   -1    0    0    0  501 -0.00000000000E+00  0.00000000000E+00  0.56222551824E+02  0.56222551824E+02  0.00000000000E+00 0. -1.
          1   -1    0    0  502    0  0.00000000000E+00 -0.00000000000E+00 -0.66710700721E+03  0.66710700721E+03  0.00000000000E+00 0.  1.
          6    2    1    2  502    0  0.38291661369E+02  0.69929634887E+02 -0.38793888165E+03  0.43088456039E+03  0.16973073770E+03 0.  0.
         24    2    3    3    0    0  0.69819503958E+02 -0.17728638472E+01 -0.26357535039E+03  0.28383480320E+03  0.78818297325E+02 0.  0.
         -6    2    1    2    0  501 -0.38291661369E+02 -0.69929634887E+02 -0.22294557374E+03  0.29244499865E+03  0.17164773001E+03 0.  0.
        -24    2    5    5    0    0 -0.67008333814E+02 -0.24416475541E+01 -0.80138496040E+02  0.13183607252E+03  0.80389632584E+02 0.  0.
          5    1    3    3  502    0 -0.31527842589E+02  0.71702498734E+02 -0.12436353126E+03  0.14704975719E+03  0.47000000000E+01 0. -1.
        -13    1    4    4    0    0  0.23197571092E+02  0.35139624168E+02 -0.73868915155E+02  0.85026684737E+02  0.00000000000E+00 0.  1.
         14    1    4    4    0    0  0.46621932865E+02 -0.36912488015E+02 -0.18970643524E+03  0.19880811846E+03  0.00000000000E+00 0. -1.
         -5    1    5    5    0  501  0.28716672445E+02 -0.67487987333E+02 -0.14280707770E+03  0.16060892613E+03  0.47000000000E+01 0.  1.
         13    1    6    6    0    0 -0.59200316095E+02 -0.36621674803E+02 -0.54183869165E+02  0.88214036122E+02  0.00000000000E+00 0. -1.
        -14    1    6    6    0    0 -0.78080177187E+01  0.34180027249E+02 -0.25954626875E+02  0.43622036400E+02  0.00000000000E+00 0.  1.
</event>
<event>
12    1  0.2609167E-002  0.2011608E+03  0.7818608E-02  0.1148763E+00
          2   -1    0    0  502    0  0.00000000000E+00  0.00000000000E+00  0.19833385204E+04  0.19833385204E+04  0.00000000000E+00 0. -1.
         -2   -1    0    0    0  501 -0.00000000000E+00 -0.00000000000E+00 -0.34310589462E+02  0.34310589462E+02  0.00000000000E+00 0.  1.
          6    2    1    2  502    0  0.35343163642E+02  0.94686013633E+02  0.16132435852E+04  0.16255860090E+04  0.17251210696E+03 0.  0.
         24    2    3    3    0    0  0.55559516944E+02 -0.38482840968E+01  0.64822574831E+03  0.65532871101E+03  0.78469290104E+02 0.  0.
         -6    2    1    2    0  501 -0.35343163642E+02 -0.94686013633E+02  0.33578434574E+03  0.39206310087E+03  0.17535041439E+03 0.  0.
        -24    2    5    5    0    0 -0.87367293908E+02 -0.85254438212E+02  0.21004815566E+03  0.25558180457E+03  0.79375486464E+02 0.  0.
          5    1    3    3  502    0 -0.20216353301E+02  0.98534297730E+02  0.96501783694E+03  0.97025729803E+03  0.47000000000E+01 0. -1.
        -11    1    4    4    0    0  0.23375123049E+02 -0.24402688770E+02  0.53026404998E+03  0.53133967507E+03  0.00000000000E+00 0.  1.
         12    1    4    4    0    0  0.32184393894E+02  0.20554404674E+02  0.11796169832E+03  0.12398903594E+03  0.00000000000E+00 0. -1.
         -5    1    5    5    0  501  0.52024130265E+02 -0.94315754204E+01  0.12573619007E+03  0.13648129630E+03  0.47000000000E+01 0.  1.
         13    1    6    6    0    0 -0.13963123373E+02 -0.42050929165E+02  0.13491613907E+03  0.14200568312E+03  0.00000000000E+00 0. -1.
        -14    1    6    6    0    0 -0.73404170535E+02 -0.43203509047E+02  0.75132016594E+02  0.11357612145E+03  0.00000000000E+00 0.  1.
</event>
<event>
12    1  0.2609167E-002  0.2154953E+03  0.7818608E-02  0.1137287E+00
          1   -1    0    0  502    0  0.00000000000E+00  0.00000000000E+00  0.88054561146E+03  0.88054561146E+03  0.00000000000E+00 0. -1.
         -1   -1    0    0    0  501 -0.00000000000E+00 -0.00000000000E+00 -0.83442501914E+02  0.83442501914E+02  0.00000000000E+00 0.  1.
          6    2    1    2  502    0  0.95624469594E+01 -0.12759437085E+03  0.69269698799E+03  0.72589868879E+03  0.17529411099E+03 0.  0.
         24    2    3    3    0    0 -0.49157553739E+02 -0.50242076686E+02  0.37962525667E+03  0.39807645823E+03  0.96998967713E+02 0.  0.
         -6    2    1    2    0  501 -0.95624469594E+01  0.12759437085E+03  0.10440612155E+03  0.23808942458E+03  0.17150560345E+03 0.  0.
        -24    2    5    5    0    0  0.83892018502E+01  0.13209185771E+02  0.95296689129E+02  0.12185128961E+03  0.74306234767E+02 0.  0.
          5    1    3    3  502    0  0.58720000698E+02 -0.77352294169E+02  0.31307173133E+03  0.32782223057E+03  0.47000000000E+01 0. -1.
        -11    1    4    4    0    0  0.17309119246E+02  0.56581078523E+01  0.16055434659E+02  0.24277495251E+02  0.00000000000E+00 0.  1.
         12    1    4    4    0    0 -0.66466672985E+02 -0.55900184538E+02  0.36356982201E+03  0.37379896298E+03  0.00000000000E+00 0. -1.
         -5    1    5    5    0  501 -0.17951648810E+02  0.11438518508E+03  0.91094324227E+01  0.11623813497E+03  0.47000000000E+01 0.  1.
         13    1    6    6    0    0 -0.22668415160E+02  0.20409422902E+02  0.81669404071E+02  0.87179660187E+02  0.00000000000E+00 0. -1.
        -14    1    6    6    0    0  0.31057617010E+02 -0.72002371309E+01  0.13627285058E+02  0.34671629427E+02  0.00000000000E+00 0.  1.
</event>
<event>
12    1  0.2609167E-002  0.2192023E+03  0.7818608E-02  0.1134479E+00
          2   -1    0    0  502    0  0.00000000000E+00  0.00000000000E+00  0.39436626603E+03  0.39436626603E+03  0.00000000000E+00 0.  1.
         -2   -1    0    0    0  501 -0.00000000000E+00 -0.00000000000E+00 -0.15287617195E+03  0.15287617195E+03  0.00000000000E+00 0. -1.
          6    2    1    2  502    0  0.13387248007E+03  0.15555755475E+02 -0.24716147303E+01  0.21937326031E+03  0.17307424999E+03 0.  0.
         24    2    3    3    0    0  0.13941383248E+03 -0.24501482973E+02  0.24296323438E+02  0.17065056075E+03  0.92167039647E+02 0.  0.
         -6    2    1    2    0  501 -0.13387248007E+03 -0.15555755475E+02  0.24396170882E+03  0.32786917767E+03  0.17267617047E+03 0.  0.
        -24    2    5    5    0    0 -0.15955871898E+03 -0.15764317710E+01  0.23786403804E+03  0.29762887428E+03  0.80883720708E+02 0.  0.
          5    1    3    3  502    0 -0.55413524082E+01  0.40057238448E+02 -0.26767938169E+02  0.48722699560E+02  0.47000000000E+01 0. -1.
        -11    1    4    4    0    0  0.80476191714E+02  0.71569719277E+01 -0.28238995859E+02  0.85586684520E+02  0.00000000000E+00 0.  1.
         12    1    4    4    0    0  0.58937640768E+02 -0.31658454901E+02  0.52535319297E+02  0.85063876232E+02  0.00000000000E+00 0. -1.
         -5    1    5    5    0  501  0.25686238901E+02 -0.13979323704E+02  0.60976707776E+01  0.30240303389E+02  0.47000000000E+01 0.  1.
         11    1    6    6    0    0 -0.91473396858E+02  0.18278595279E+02  0.73978465941E+02  0.11905588100E+03  0.00000000000E+00 0. -1.
        -12    1    6    6    0    0 -0.68085322117E+02 -0.19855027050E+02  0.16388557210E+03  0.17857299328E+03  0.00000000000E+00 0.  1.
</event>
<event>
12    1  0.2609167E-002  0.1986752E+03  0.7818608E-02  0.1150862E+00
          1   -1    0    0  502    0  0.00000000000E+00  0.00000000000E+00  0.75382168940E+03  0.75382168940E+03  0.00000000000E+00 0.  1.
         -1   -1    0    0    0  501 -0.00000000000E+00 -0.00000000000E+00 -0.53052024066E+02  0.53052024066E+02  0.00000000000E+00 0. -1.
          6    2    1    2  502    0 -0.87777983421E+02  0.50457421421E+02  0.39727224571E+03  0.44441277679E+03  0.17154169527E+03 0.  0.
         24    2    3    3    0    0 -0.12803908690E+03  0.38605976115E+02  0.33235340714E+03  0.36696628681E+03  0.79504963707E+02 0.  0.
         -6    2    1    2    0  501  0.87777983421E+02 -0.50457421421E+02  0.30349741962E+03  0.36246093667E+03  0.17034177745E+03 0.  0.
        -24    2    5    5    0    0  0.49693408926E+02  0.23084997577E+02  0.23739787559E+03  0.25639415616E+03  0.79861504962E+02 0.  0.
          5    1    3    3  502    0  0.40261103476E+02  0.11851445306E+02  0.64918838572E+02  0.77446489981E+02  0.47000000000E+01 0. -1.
        -11    1    4    4    0    0 -0.11710757886E+02 -0.18143582302E+01  0.12674628746E+03  0.12729907749E+03  0.00000000000E+00 0.  1.
         12    1    4    4    0    0 -0.11632832901E+03  0.40420334346E+02  0.20560711968E+03  0.23966720932E+03  0.00000000000E+00 0. -1.
         -5    1    5    5    0  501  0.38084574495E+02 -0.73542418998E+02  0.66099544026E+02  0.10606678051E+03  0.47000000000E+01 0.  1.
         11    1    6    6    0    0  0.43303049795E+02 -0.63698976443E+01  0.49421472319E+02  0.66016752751E+02  0.00000000000E+00 0. -1.
        -12    1    6    6    0    0  0.63903591306E+01  0.29454895221E+02  0.18797640327E+03  0.19037740341E+03  0.00000000000E+00 0.  1.
</event>
<event>
12    1  0.2609167E-002  0.2238424E+03  0.7818608E-02  0.1131050E+00
         -2   -1    0    0    0  501 -0.00000000000E+00  0.00000000000E+00  0.91900278714E+02  0.91900278714E+02  0.00000000000E+00 0.  1.
          2   -1    0    0  502    0  0.00000000000E+00 -0.00000000000E+00 -0.54737856602E+03  0.54737856602E+03  0.00000000000E+00 0. -1.
          6    2    1    2  502    0 -0.13672300921E+03 -0.41012694006E+02 -0.24740284641E+03  0.33335800146E+03  0.17188416566E+03 0.  0.
         24    2    3    3    0    0 -0.11895468510E+03 -0.79140098782E+02 -0.12450192005E+03  0.20337284831E+03  0.73799830580E+02 0.  0.
         -6    2    1    2    0  501  0.13672300921E+03  0.41012694006E+02 -0.20807544089E+03  0.30592084327E+03  0.17296517259E+03 0.  0.
        -24    2    5    5    0    0  0.17074440948E+02  0.17745142046E+02 -0.15100884510E+03  0.17125145099E+03  0.76921788642E+02 0.  0.
          5    1    3    3  502    0 -0.17768324117E+02  0.38127404776E+02 -0.12290092637E+03  0.12998515315E+03  0.47000000000E+01 0. -1.
        -11    1    4    4    0    0 -0.18665858558E+02  0.34886896718E+01  0.52898318385E+01  0.19712116888E+02  0.00000000000E+00 0.  1.
         12    1    4    4    0    0 -0.10028882654E+03 -0.82628788454E+02 -0.12979175188E+03  0.18366073142E+03  0.00000000000E+00 0. -1.
         -5    1    5    5    0  501  0.11964856826E+03  0.23267551960E+02 -0.57066595785E+02  0.13466939228E+03  0.47000000000E+01 0.  1.
         13    1    6    6    0    0 -0.16109433029E+02 -0.55664878815E+01 -0.24043179739E+01  0.17212796541E+02  0.00000000000E+00 0. -1.
        -14    1    6    6    0    0  0.33183873977E+02  0.23311629927E+02 -0.14860452713E+03  0.15403865445E+03  0.00000000000E+00 0.  1.
</event>
<event>
12    1  0.2609167E-002  0.1711959E+03  0.7818608E-02  0.1176606E+00
         -2   -1    0    0    0  501 -0.00000000000E+00  0.00000000000E+00  0.40688209811E+02  0.40688209811E+02  0.00000000000E+00 0. -1.
          2   -1    0    0  502    0  0.00000000000E+00 -0.00000000000E+00 -0.89949586342E+03  0.89949586342E+03  0.00000000000E+00 0.  1.
          6    2    1    2  502    0 -0.43869800071E+01  0.34689493849E+01 -0.63783527770E+03  0.66023343527E+03  0.17042026983E+03 0.  0.
         24    2    3    3    0    0 -0.25847162226E+02 -0.32926130644E+01 -0.63063815716E+03  0.63614720078E+03  0.79371649228E+02 0.  0.
         -6    2    1    2    0  501  0.43869800071E+01 -0.34689493849E+01 -0.22097237591E+03  0.27995063797E+03  0.17179141299E+03 0.  0.
        -24    2    5    5    0    0 -0.58736769454E+01 -0.54844630783E+02 -0.65377245388E+02  0.11570485761E+03  0.77916598065E+02 0.  0.
          5    1    3    3  502    0  0.21460182219E+02  0.67615624493E+01 -0.71971205365E+01  0.24086234485E+02  0.47000000000E+01 0. -1.
        -11    1    4    4    0    0  0.17192599187E+02 -0.28707388268E+02 -0.26780310321E+03  0.26988553443E+03  0.00000000000E+00 0.  1.
         12    1    4    4    0    0 -0.43039761414E+02  0.25414775204E+02 -0.36283505395E+03  0.36626166635E+03  0.00000000000E+00 0. -1.
         -5    1    5    5    0  501  0.10260656953E+02  0.51375681398E+02 -0.15559513053E+03  0.16424578035E+03  0.47000000000E+01 0.  1.
         11    1    6    6    0    0 -0.42386404919E+01  0.13738483199E+01  0.16097741502E+02  0.16703018107E+02  0.00000000000E+00 0. -1.
        -12    1    6    6    0    0 -0.16350364536E+01 -0.56218479103E+02 -0.81474986890E+02  0.99001839506E+02  0.00000000000E+00 0.  1.
</event>
<event>
12    1  0.2609167E-002  0.2123101E+03  0.7818608E-02  0.1139750E+00
         -1   -1    0    0    0  501 -0.00000000000E+00  0.00000000000E+00  0.64307406860E+02  0.64307406860E+02  0.00000000000E+00 0.  1.
          1   -1    0    0  502    0  0.00000000000E+00 -0.00000000000E+00 -0.79400388997E+03  0.79400388997E+03  0.00000000000E+00 0. -1.
          6    2    1    2  502    0  0.11242249823E+02 -0.12360037141E+03 -0.51051188725E+03  0.55258380018E+03  0.17123968348E+03 0.  0.
         24    2    3    3    0    0  0.26762987972E+02 -0.15253186101E+01 -0.16238405462E+03  0.18331656676E+03  0.80732882576E+02 0.  0.
         -6    2    1    2    0  501 -0.11242249823E+02  0.12360037141E+03 -0.21918459586E+03  0.30572749666E+03  0.17327427725E+03 0.  0.
        -24    2    5    5    0    0  0.58136394121E+02  0.94301830133E+02 -0.15729878661E+03  0.20813782434E+03  0.79408879634E+02 0.  0.
          5    1    3    3  502    0 -0.15520738149E+02 -0.12207505280E+03 -0.34812783263E+03  0.36926723342E+03  0.47000000000E+01 0. -1.
        -11    1    4    4    0    0  0.38557019869E+02 -0.32222777642E+02 -0.11640723721E+03  0.12678957392E+03  0.00000000000E+00 0.  1.
         12    1    4    4    0    0 -0.11794031897E+02  0.30697459032E+02 -0.45976817414E+02  0.56526992835E+02  0.00000000000E+00 0. -1.
         -5    1    5    5    0  501 -0.69378643944E+02  0.29298541273E+02 -0.61885809255E+02  0.97589672319E+02  0.47000000000E+01 0.  1.
         13    1    6    6    0    0  0.27836823793E+02  0.10079950583E+03 -0.11175145173E+03  0.15304841096E+03  0.00000000000E+00 0. -1.
        -14    1    6    6    0    0  0.30299570328E+02 -0.64976756993E+01 -0.45547334880E+02  0.55089413377E+02  0.00000000000E+00 0.  1.
</event>
<event>
12    1  0.2609167E-002  0.2405603E+03  0.7818608E-02  0.1119420E+00
          2   -1    0    0  502    0  0.00000000000E+00  0.00000000000E+00  0.14496860136E+04  0.14496860136E+04  0.00000000000E+00 0.  1.
         -2   -1    0    0    0  501 -0.00000000000E+00 -0.00000000000E+00 -0.49753096432E+02  0.49753096432E+02  0.00000000000E+00 0. -1.
          6    2    1    2  502    0  0.16532942246E+03 -0.18501794409E+02  0.36387043642E+03  0.43554402565E+03  0.17210685475E+03 0.  0.
         24    2    3    3    0    0  0.16105026766E+03 -0.57992894345E+02  0.24193736286E+03  0.30721779073E+03  0.80924155151E+02 0.  0.
         -6    2    1    2    0  501 -0.16532942246E+03  0.18501794409E+02  0.10360624807E+04  0.10638950844E+04  0.17541708080E+03 0.  0.
        -24    2    5    5    0    0 -0.15871910328E+03  0.99574142755E+01  0.57196834986E+03  0.59965144676E+03  0.84517220215E+02 0.  0.
          5    1    3    3  502    0  0.42791547970E+01  0.39491099936E+02  0.12193307356E+03  0.12832623492E+03  0.47000000000E+01 0. -1.
        -11    1    4    4    0    0  0.12277416077E+02 -0.10411065450E+02  0.82362512907E+02  0.83920848194E+02  0.00000000000E+00 0.  1.
         12    1    4    4    0    0  0.14877285158E+03 -0.47581828895E+02  0.15957484995E+03  0.22329694254E+03  0.00000000000E+00 0. -1.
         -5    1    5    5    0  501 -0.66103191744E+01  0.85443801335E+01  0.46409413087E+03  0.46424363761E+03  0.47000000000E+01 0.  1.
         13    1    6    6    0    0 -0.14505385108E+02  0.15516532653E+02  0.19244948329E+03  0.19361811021E+03  0.00000000000E+00 0. -1.
        -14    1    6    6    0    0 -0.14421371817E+03 -0.55591183775E+01  0.37951886658E+03  0.40603333656E+03  0.00000000000E+00 0.  1.
</event>
<event>
12    1  0.2609167E-002  0.1845604E+03  0.7818608E-02  0.1163461E+00
         -2   -1    0    0    0  501 -0.00000000000E+00  0.00000000000E+00  0.36331036918E+02  0.36331036918E+02  0.00000000000E+00 0.  1.
          2   -1    0    0  502    0  0.00000000000E+00 -0.00000000000E+00 -0.95385980605E+03  0.95385980605E+03  0.00000000000E+00 0. -1.
          6    2    1    2  502    0  0.11095615838E+02 -0.68422404304E+02 -0.52003507348E+03  0.55135984028E+03  0.16957729129E+03 0.  0.
         24    2    3    3    0    0  0.44451116825E+02 -0.35303138934E+02 -0.47940334756E+03  0.48905011121E+03  0.78231887512E+02 0.  0.
         -6    2    1    2    0  501 -0.11095615838E+02  0.68422404304E+02 -0.39749369565E+03  0.43883100269E+03  0.17253020818E+03 0.  0.
        -24    2    5    5    0    0 -0.15499267398E+02  0.45945795229E+02 -0.40396451008E+03  0.41457092144E+03  0.79564314339E+02 0.  0.
          5    1    3    3  502    0 -0.33355500987E+02 -0.33119265369E+02 -0.40631725924E+02  0.62309729066E+02  0.47000000000E+01 0. -1.
        -13    1    4    4    0    0 -0.17218970768E+02  0.61116579295E+01 -0.49262869322E+02  0.52542131769E+02  0.00000000000E+00 0.  1.
         14    1    4    4    0    0  0.61670087593E+02 -0.41414796864E+02 -0.43014047824E+03  0.43650797945E+03  0.00000000000E+00 0. -1.
         -5    1    5    5    0  501  0.44036515600E+01  0.22476609074E+02  0.64708144273E+01  0.24260081243E+02  0.47000000000E+01 0.  1.
         13    1    6    6    0    0 -0.44125782965E+02  0.26667088266E+02 -0.15806302979E+03  0.16625925450E+03  0.00000000000E+00 0. -1.
        -14    1    6    6    0    0  0.28626515567E+02  0.19278706964E+02 -0.24590148029E+03  0.24831166695E+03  0.00000000000E+00 0.  1.
</event>
<event>
12    1  0.2609167E-002  0.2056906E+03  0.7818608E-02  0.1145025E+00
          1   -1    0    0  502    0  0.00000000000E+00  0.00000000000E+00  0.28387800924E+03  0.28387800924E+03  0.00000000000E+00 0. -1.
         -1   -1    0    0    0  501 -0.00000000000E+00 -0.00000000000E+00 -0.15220965961E+03  0.15220965961E+03  0.00000000000E+00 0.  1.
          6    2    1    2  502    0  0.11059736813E+03  0.14081465206E+02  0.34370596297E+02  0.20857816326E+03  0.17289721455E+03 0.  0.
         24    2    3    3    0    0 -0.32445698512E+01  0.27484911510E+02 -0.30099064392E+02  0.76980038785E+02  0.65222887852E+02 0.  0.
         -6    2    1    2    0  501 -0.11059736813E+03 -0.14081465206E+02  0.97297753339E+02  0.22750950558E+03  0.17281104370E+03 0.  0.
        -24    2    5    5    0    0 -0.60859725454E+02  0.59267897625E+02  0.53654342524E+02  0.12861158127E+03  0.80284248099E+02 0.  0.
          5    1    3    3  502    0  0.11384193798E+03 -0.13403446304E+02  0.64469660689E+02  0.13159812448E+03  0.47000000000E+01 0. -1.
        -11    1    4    4    0    0  0.38468177424E+01  0.42682261997E+02 -0.39043147769E+02  0.57973622309E+02  0.00000000000E+00 0.  1.
         12    1    4    4    0    0 -0.70913875936E+01 -0.15197350487E+02  0.89440833762E+01  0.19006416476E+02  0.00000000000E+00 0. -1.
         -5    1    5    5    0  501 -0.49737642678E+02 -0.73349362831E+02  0.43643410815E+02  0.98897924318E+02  0.47000000000E+01 0.  1.
         11    1    6    6    0    0  0.11472191847E+02  0.21255894338E+02  0.38585201292E+02  0.45521884721E+02  0.00000000000E+00 0. -1.
        -12    1    6    6    0    0 -0.72331917301E+02  0.38012003287E+02  0.15069141232E+02  0.83089696544E+02  0.00000000000E+00 0.  1.
</event>
<event>
12    1  0.2609167E-002  0.3128744E+03  0.7818608E-02  0.1078976E+00
         -2   -1    0    0    0  501 -0.00000000000E+00  0.00000000000E+00  0.23039283403E+03  0.23039283403E+03  0.00000000000E+00 0. -1.
          2   -1    0    0  502    0  0.00000000000E+00 -0.00000000000E+00 -0.45163515560E+03  0.45163515560E+03  0.00000000000E+00 0.  1.
          6    2    1    2  502    0 -0.82865007157E+02  0.24696953860E+03 -0.19350133276E+03  0.36758944504E+03  0.17268083832E+03 0.  0.
         24    2    3    3    0    0 -0.69992691616E+02  0.20575459048E+03 -0.78121055741E+02  0.24430494975E+03  0.79674843812E+02 0.  0.
         -6    2    1    2    0  501  0.82865007157E+02 -0.24696953860E+03 -0.27740988805E+02  0.31443854458E+03  0.17390075749E+03 0.  0.
        -24    2    5    5    0    0  0.30688933467E+02 -0.45277756289E+02  0.23409040179E+02  0.99868432077E+02  0.80211188194E+02 0.  0.
          5    1    3    3  502    0 -0.12872315541E+02  0.41214948111E+02 -0.11538027702E+03  0.12328449530E+03  0.47000000000E+01 0. -1.
        -11    1    4    4    0    0 -0.83031676939E+02  0.13641860566E+03 -0.42437899852E+02  0.16524306548E+03  0.00000000000E+00 0.  1.
         12    1    4    4    0    0  0.13038985323E+02  0.69335984827E+02 -0.35683155889E+02  0.79061884270E+02  0.00000000000E+00 0. -1.
         -5    1    5    5    0  501  0.52176073690E+02 -0.20169178231E+03 -0.51150028984E+02  0.21457011251E+03  0.47000000000E+01 0.  1.
         11    1    6    6    0    0 -0.51576153108E+01 -0.58460088980E+02  0.10996566060E+02  0.59708520869E+02  0.00000000000E+00 0. -1.
        -12    1    6    6    0    0  0.35846548778E+02  0.13182332691E+02  0.12412474118E+02  0.40159911208E+02  0.00000000000E+00 0.  1.
</event>
<event>
12    1  0.2609167E-002  0.1895263E+03  0.7818608E-02  0.1158889E+00
          2   -1    0    0  502    0  0.00000000000E+00  0.00000000000E+00  0.37890911927E+03  0.37890911927E+03  0.00000000000E+00 0. -1.
         -2   -1    0    0    0  501 -0.00000000000E+00 -0.00000000000E+00 -0.95807442369E+02  0.95807442369E+02  0.00000000000E+00 0.  1.
          6    2    1    2  502    0  0.15234172904E+02 -0.74197874072E+02  0.11839204855E+03  0.22475642771E+03  0.17538919607E+03 0.  0.
         24    2    3    3    0    0 -0.92861829388E-01 -0.11730195611E+03  0.71347659431E+02  0.15896779321E+03  0.80128105184E+02 0.  0.
         -6    2    1    2    0  501 -0.15234172904E+02  0.74197874072E+02  0.16470962836E+03  0.24996013393E+03  0.17208545069E+03 0.  0.
        -24    2    5    5    0    0 -0.43246719065E+02  0.58644157799E+02  0.27603352138E+02  0.10908131434E+03  0.76337226398E+02 0.  0.
          5    1    3    3  502    0  0.15327034733E+02  0.43104082040E+02  0.47044389118E+02  0.65788634503E+02  0.47000000000E+01 0. -1.
        -11    1    4    4    0    0  0.25693318944E+02 -0.84835475461E+02  0.16420055697E+02  0.90148892196E+02  0.00000000000E+00 0.  1.
         12    1    4    4    0    0 -0.25786180773E+02 -0.32466480651E+02  0.54927603734E+02  0.68818901013E+02  0.00000000000E+00 0. -1.
         -5    1    5    5    0  501  0.28012546161E+02  0.15553716274E+02  0.13710627622E+03  0.14087881960E+03  0.47000000000E+01 0.  1.
         13    1    6    6    0    0 -0.10049671964E+02  0.63403445557E+02  0.37205447932E+02  0.74197292207E+02  0.00000000000E+00 0. -1.
        -14    1    6    6    0    0 -0.33197047101E+02 -0.47592877588E+01 -0.96020957933E+01  0.34884022128E+02  0.00000000000E+00 0.  1.
</event>
<event>
12    1  0.2609167E-002  0.3426082E+03  0.7818608E-02  0.1065690E+00
          1   -1    0    0  502    0  0.00000000000E+00  0.00000000000E+00  0.52296665587E+03  0.52296665587E+03  0.00000000000E+00 0.  1.
         -1   -1    0    0    0  501 -0.00000000000E+00 -0.00000000000E+00 -0.51145743498E+03  0.51145743498E+03  0.00000000000E+00 0. -1.
          6    2    1    2  502    0 -0.24160430625E+03  0.17169347800E+03  0.39320103398E+03  0.52168604035E+03  0.17233101981E+03 0.  0.
         24    2    3    3    0    0 -0.14716346137E+03  0.34160325546E+02  0.19098766664E+03  0.25948997414E+03  0.89636742838E+02 0.  0.
         -6    2    1    2    0  501  0.24160430625E+03 -0.17169347800E+03 -0.38169181309E+03  0.51273805049E+03  0.17134870020E+03 0.  0.
        -24    2    5    5    0    0  0.25271114529E+03 -0.17837941579E+03 -0.33102657579E+03  0.46022976631E+03  0.80936425566E+02 0.  0.
          5    1    3    3  502    0 -0.94440844881E+02  0.13753315246E+03  0.20221336734E+03  0.26219606621E+03  0.47000000000E+01 0. -1.
        -13    1    4    4    0    0 -0.37298021278E+02  0.48941852787E+02  0.45241495560E+02  0.76375652311E+02  0.00000000000E+00 0.  1.
         14    1    4    4    0    0 -0.10986544009E+03 -0.14781527241E+02  0.14574617108E+03  0.18311432183E+03  0.00000000000E+00 0. -1.
         -5    1    5    5    0  501 -0.11106839045E+02  0.66859377908E+01 -0.50665237300E+02  0.52508284188E+02  0.47000000000E+01 0.  1.
         11    1    6    6    0    0  0.16629784757E+03 -0.75397555013E+02 -0.21980181856E+03  0.28574919922E+03  0.00000000000E+00 0. -1.
        -12    1    6    6    0    0  0.86413297723E+02 -0.10298186078E+03 -0.11122475722E+03  0.17448056709E+03  0.00000000000E+00 0.  1.
</event>
<event>
12    1  0.2609167E-002  0.1977436E+03  0.7818608E-02  0.1151657E+00
          2   -1    0    0  502    0  0.00000000000E+00  0.00000000000E+00  0.14713302324E+03  0.14713302324E+03  0.00000000000E+00 0.  1.
         -2   -1    0    0    0  501 -0.00000000000E+00 -0.00000000000E+00 -0.37088748131E+03  0.37088748131E+03  0.00000000000E+00 0. -1.
          6    2    1    2  502    0 -0.97530206011E+02  0.13018411450E+02  0.25769773000E+02  0.20001727085E+03  0.17222429364E+03 0.  0.
         24    2    3    3    0    0 -0.85190731661E+02  0.70127224138E+02  0.32007625600E+02  0.14107085520E+03  0.81860917188E+02 0.  0.
         -6    2    1    2    0  501  0.97530206011E+02 -0.13018411450E+02 -0.24952423107E+03  0.31800323370E+03  0.17082767524E+03 0.  0.
        -24    2    5    5    0    0  0.25755750520E+02 -0.38475584698E+02 -0.21577130370E+03  0.23457068467E+03  0.79513654821E+02 0.  0.
          5    1    3    3  502    0 -0.12339474350E+02 -0.57108812688E+02 -0.62378525997E+01  0.58946415658E+02  0.47000000000E+01 0. -1.
        -13    1    4    4    0    0 -0.67041555370E+02  0.13334469500E+02  0.42560555676E+02  0.80521917033E+02  0.00000000000E+00 0.  1.
         14    1    4    4    0    0 -0.18149176291E+02  0.56792754638E+02 -0.10552930076E+02  0.60548938163E+02  0.00000000000E+00 0. -1.
         -5    1    5    5    0  501  0.71774455492E+02  0.25457173248E+02 -0.33752927368E+02  0.83432549025E+02  0.47000000000E+01 0.  1.
         11    1    6    6    0    0  0.39926669273E+02  0.90355549569E+01 -0.76946248734E+02  0.87157933471E+02  0.00000000000E+00 0. -1.
        -12    1    6    6    0    0 -0.14170918753E+02 -0.47511139655E+02 -0.13882505497E+03  0.14741275120E+03  0.00000000000E+00 0.  1.
</event>
<event>
12    1  0.2609167E-002  0.2684505E+03  0.7818608E-02  0.1102170E+00
          1   -1    0    0  502    0  0.00000000000E+00  0.00000000000E+00  0.15295151557E+04  0.15295151557E+04  0.00000000000E+00 0. -1.
         -1   -1    0    0    0  501 -0.00000000000E+00 -0.00000000000E+00 -0.47942235882E+02  0.47942235882E+02  0.00000000000E+00 0.  1.
          6    2    1    2  502    0 -0.66167342486E+02 -0.19558142886E+03  0.63850459011E+03  0.69281577158E+03  0.17226540348E+03 0.  0.
         24    2    3    3    0    0 -0.13174776266E+02 -0.86026504123E+02  0.47038904345E+03  0.48522140596E+03  0.81239315992E+02 0.  0.
         -6    2    1    2    0  501  0.66167342486E+02  0.19558142886E+03  0.84306832969E+03  0.88464161998E+03  0.17086946699E+03 0.  0.
        -24    2    5    5    0    0  0.44881554093E+02  0.17595886731E+03  0.46644429005E+03  0.50687729273E+03  0.79865119306E+02 0.  0.
          5    1    3    3  502    0 -0.52992566220E+02 -0.10955492474E+03  0.16811554666E+03  0.20759436562E+03  0.47000000000E+01 0. -1.
        -11    1    4    4    0    0 -0.45295837579E+02 -0.60443337895E+02  0.34882650756E+03  0.35691041226E+03  0.00000000000E+00 0.  1.
         12    1    4    4    0    0  0.32121061314E+02 -0.25583166228E+02  0.12156253589E+03  0.12831099370E+03  0.00000000000E+00 0. -1.
         -5    1    5    5    0  501  0.21285788392E+02  0.19622561550E+02  0.37662403964E+03  0.37776432725E+03  0.47000000000E+01 0.  1.
         11    1    6    6    0    0 -0.10951892540E+02  0.48940239814E+02  0.20330187892E+03  0.20939614369E+03  0.00000000000E+00 0. -1.
        -12    1    6    6    0    0  0.55833446633E+02  0.12701862750E+03  0.26314241114E+03  0.29748114904E+03  0.00000000000E+00 0.  1.
</event>
<event>
12    1  0.2609167E-002  0.1753594E+03  0.7818608E-02  0.1172371E+00
         -2   -1    0    0    0  501 -0.00000000000E+00  0.00000000000E+00  0.77626297124E+02  0.77626297124E+02  0.00000000000E+00 0.  1.
          2   -1    0    0  502    0  0.00000000000E+00 -0.00000000000E+00 -0.40565975711E+03  0.40565975711E+03  0.00000000000E+00 0. -1.
          6    2    1    2  502    0 -0.35981818956E+01  0.36092929998E+02 -0.20022547279E+03  0.26559306223E+03  0.17068622746E+03 0.  0.
         24    2    3    3    0    0  0.39173769231E+02 -0.11525380916E+02 -0.17010564899E+03  0.19469710238E+03  0.85461168115E+02 0.  0.
         -6    2    1    2    0  501  0.35981818956E+01 -0.36092929998E+02 -0.12780798720E+03  0.21769299200E+03  0.17245205324E+03 0.  0.
        -24    2    5    5    0    0 -0.38315470766E+02 -0.25158738546E+01 -0.13657543051E+03  0.16307494516E+03  0.80412589813E+02 0.  0.
          5    1    3    3  502    0 -0.42771951126E+02  0.47618310914E+02 -0.30119823793E+02  0.70895959848E+02  0.47000000000E+01 0. -1.
        -13    1    4    4    0    0  0.13120563921E+02  0.30509943674E+02 -0.25509595249E+02  0.41877742422E+02  0.00000000000E+00 0.  1.
         14    1    4    4    0    0  0.26053205310E+02 -0.42035324590E+02 -0.14459605374E+03  0.15281935996E+03  0.00000000000E+00 0. -1.
         -5    1    5    5    0  501  0.41913652662E+02 -0.33577056144E+02  0.87674433065E+01  0.54618046842E+02  0.47000000000E+01 0.  1.
         11    1    6    6    0    0  0.17197679676E+01 -0.13782616902E+02 -0.11571621505E+03  0.11654681702E+03  0.00000000000E+00 0. -1.
        -12    1    6    6    0    0 -0.40035238733E+02  0.11266743047E+02 -0.20859215452E+02  0.46528128144E+02  0.00000000000E+00 0.  1.
</event>
<event>
12    1  0.2609167E-002  0.1722571E+03  0.7818608E-02  0.1175514E+00
         -1   -1    0    0    0  501 -0.00000000000E+00  0.00000000000E+00  0.58673487534E+02  0.58673487534E+02  0.00000000000E+00 0.  1.
          1   -1    0    0  502    0  0.00000000000E+00 -0.00000000000E+00 -0.51499630960E+03  0.51499630960E+03  0.00000000000E+00 0. -1.
          6    2    1    2  502    0  0.10750791424E+02 -0.95115436068E+01 -0.19026354962E+03  0.25695977144E+03  0.17211059481E+03 0.  0.
         24    2    3    3    0    0  0.48390570250E+02  0.14434201234E+02 -0.18872548786E+03  0.21207539465E+03  0.82514664106E+02 0.  0.
         -6    2    1    2    0  501 -0.10750791424E+02  0.95115436068E+01 -0.26605927245E+03  0.31671002570E+03  0.17120646875E+03 0.  0.
        -24    2    5    5    0    0 -0.17222119818E+02  0.65744619663E+02 -0.21989018269E+03  0.24351363382E+03  0.79550241920E+02 0.  0.
          5    1    3    3  502    0 -0.37639778827E+02 -0.23945744841E+02 -0.15380617631E+01  0.44884376793E+02  0.47000000000E+01 0. -1.
        -11    1    4    4    0    0 -0.13027306485E+02  0.17318257336E+02 -0.11597256254E+02  0.24579037898E+02  0.00000000000E+00 0.  1.
         12    1    4    4    0    0  0.61417876735E+02 -0.28840561018E+01 -0.17712823160E+03  0.18749635675E+03  0.00000000000E+00 0. -1.
         -5    1    5    5    0  501  0.64713283946E+01 -0.56233076057E+02 -0.46169089757E+02  0.73196391871E+02  0.47000000000E+01 0.  1.
         13    1    6    6    0    0 -0.20753503919E+02  0.55368623155E+01 -0.14855475324E+03  0.15009956522E+03  0.00000000000E+00 0. -1.
        -14    1    6    6    0    0  0.35313841010E+01  0.60207757348E+02 -0.71335429452E+02  0.93414068606E+02  0.00000000000E+00 0.  1.
</event>
<event>
12    1  0.2609167E-002  0.1968897E+03  0.7818608E-02  0.1152390E+00
          2   -1    0    0  502    0  0.00000000000E+00  0.00000000000E+00  0.46061348096E+02  0.46061348096E+02  0.00000000000E+00 0. -1.
         -2   -1    0    0    0  501 -0.00000000000E+00 -0.00000000000E+00 -0.89256320116E+03  0.89256320116E+03  0.00000000000E+00 0.  1.
          6    2    1    2  502    0  0.12871577746E+02  0.81018742790E+02 -0.32413227462E+03  0.38242880646E+03  0.18563498151E+03 0.  0.
         24    2    3    3    0    0  0.23879524493E+02  0.12565905768E+03 -0.19021583555E+03  0.24076146634E+03  0.73645020939E+02 0.  0.
         -6    2    1    2    0  501 -0.12871577746E+02 -0.81018742790E+02 -0.52236957844E+03  0.55619574279E+03  0.17249351764E+03 0.  0.
        -24    2    5    5    0    0  0.35628621631E+02 -0.20812461069E+02 -0.41263246809E+03  0.42187750470E+03  0.77540428372E+02 0.  0.
          5    1    3    3  502    0 -0.11007946747E+02 -0.44640314890E+02 -0.13391643907E+03  0.14166734012E+03  0.47000000000E+01 0. -1.
        -13    1    4    4    0    0  0.33567547625E+02  0.87125699881E+02 -0.17474163649E+03  0.19812195072E+03  0.00000000000E+00 0.  1.
         14    1    4    4    0    0 -0.96880231322E+01  0.38533357799E+02 -0.15474199067E+02  0.42639515619E+02  0.00000000000E+00 0. -1.
         -5    1    5    5    0  501 -0.48500199377E+02 -0.60206281721E+02 -0.10973711035E+03  0.13431823810E+03  0.47000000000E+01 0.  1.
         13    1    6    6    0    0  0.12005885766E+02 -0.19390787162E+02 -0.26260987454E+02  0.34781940455E+02  0.00000000000E+00 0. -1.
        -14    1    6    6    0    0  0.23622735865E+02 -0.14216739070E+01 -0.38637148064E+03  0.38709556424E+03  0.00000000000E+00 0.  1.
</event>
<event>
12    1  0.2609167E-002  0.2708963E+03  0.7818608E-02  0.1100768E+00
         -2   -1    0    0    0  501 -0.00000000000E+00  0.00000000000E+00  0.42379198891E+03  0.42379198891E+03  0.00000000000E+00 0.  1.
          2   -1    0    0  502    0  0.00000000000E+00 -0.00000000000E+00 -0.34106342736E+03  0.34106342736E+03  0.00000000000E+00 0. -1.
          6    2    1    2  502    0 -0.20980635539E+03  0.25082812378E+02  0.30953962196E+03  0.41016414572E+03  0.16664931633E+03 0.  0.
         24    2    3    3    0    0 -0.32465941507E+02  0.16284213276E+02  0.12950376788E+03  0.15725697600E+03  0.81482008111E+02 0.  0.
         -6    2    1    2    0  501  0.20980635539E+03 -0.25082812378E+02 -0.22681106041E+03  0.35469127054E+03  0.17237977269E+03 0.  0.
        -24    2    5    5    0    0  0.17479760396E+03 -0.66791290648E+02 -0.12318565095E+03  0.23753528341E+03  0.78949524424E+02 0.  0.
          5    1    3    3  502    0 -0.17734041388E+03  0.87985991023E+01  0.18003585408E+03  0.25290716972E+03  0.47000000000E+01 0. -1.
        -13    1    4    4    0    0 -0.40800824738E+02  0.43221923842E+02  0.73247505802E+02  0.94329418031E+02  0.00000000000E+00 0.  1.
         14    1    4    4    0    0  0.83348832311E+01 -0.26937710566E+02  0.56256262080E+02  0.62927557971E+02  0.00000000000E+00 0. -1.
         -5    1    5    5    0  501  0.35008751436E+02  0.41708478269E+02 -0.10362540946E+03  0.11715598714E+03  0.47000000000E+01 0.  1.
         13    1    6    6    0    0  0.14123698016E+03 -0.75104600358E+02 -0.12485201546E+03  0.20292020926E+03  0.00000000000E+00 0. -1.
        -14    1    6    6    0    0  0.33560623794E+02  0.83133097105E+01  0.16663645043E+01  0.34615074151E+02  0.00000000000E+00 0.  1.
</event>
<event>
12    1  0.2609167E-002  0.2476060E+03  0.7818608E-02  0.1114827E+00
         -2   -1    0    0    0  501 -0.00000000000E+00  0.00000000000E+00  0.29162577415E+02  0.29162577415E+02  0.00000000000E+00 0.  1.
          2   -1    0    0  502    0  0.00000000000E+00 -0.00000000000E+00 -0.30766757099E+04  0.30766757099E+04  0.00000000000E+00 0. -1.
          6    2    1    2  502    0  0.17717027766E+03  0.21203327712E+02 -0.23990196091E+04  0.24117966188E+04  0.17213063933E+03 0.  0.
         24    2    3    3    0    0  0.20156472298E+03  0.34797628011E+02 -0.21500238115E+04  0.21611955589E+04  0.79527614401E+02 0.  0.
         -6    2    1    2    0  501 -0.17717027766E+03 -0.21203327712E+02 -0.64849352334E+03  0.69404166852E+03  0.17120484641E+03 0.  0.
        -24    2    5    5    0    0 -0.89986464277E+02 -0.75416363295E+02 -0.33157276351E+03  0.36087365001E+03  0.80648014028E+02 0.  0.
          5    1    3    3  502    0 -0.24394445320E+02 -0.13594300298E+02 -0.24899579765E+03  0.25060105988E+03  0.47000000000E+01 0. -1.
        -13    1    4    4    0    0  0.31956162895E+01 -0.75439601669E-01 -0.20454582349E+01  0.37949379434E+01  0.00000000000E+00 0.  1.
         14    1    4    4    0    0  0.19836910669E+03  0.34873067612E+02 -0.21479783532E+04  0.21574006210E+04  0.00000000000E+00 0. -1.
         -5    1    5    5    0  501 -0.87183813378E+02  0.54213035582E+02 -0.31692075983E+03  0.33316801850E+03  0.47000000000E+01 0.  1.
         13    1    6    6    0    0 -0.52922097971E+02 -0.66097545711E+02 -0.29867919114E+03  0.31044950189E+03  0.00000000000E+00 0. -1.
        -14    1    6    6    0    0 -0.37064366306E+02 -0.93188175838E+01 -0.32893572369E+02  0.50424148124E+02  0.00000000000E+00 0.  1.
</event>
<event>
12    1  0.2609167E-002  0.2229377E+03  0.7818608E-02  0.1131712E+00
          3   -1    0    0  502    0  0.00000000000E+00  0.00000000000E+00  0.40034430707E+03  0.40034430707E+03  0.00000000000E+00 0. -1.
         -3   -1    0    0    0  501 -0.00000000000E+00 -0.00000000000E+00 -0.12634673522E+03  0.12634673522E+03  0.00000000000E+00 0.  1.
          6    2    1    2  502    0 -0.13760472460E+03  0.31105284934E+02  0.17145723375E+03  0.28086313529E+03  0.17199976388E+03 0.  0.
         24    2    3    3    0    0 -0.17821498390E+02  0.32311186008E+02  0.24729252422E+02  0.91388424618E+02  0.79866699461E+02 0.  0.
         -6    2    1    2    0  501  0.13760472460E+03 -0.31105284934E+02  0.10254033809E+03  0.24582790700E+03  0.17324618305E+03 0.  0.
        -24    2    5    5    0    0  0.39529464555E+02 -0.67722131983E+02  0.18868345199E+02  0.11172853148E+03  0.77320014022E+02 0.  0.
          5    1    3    3  502    0 -0.11978322621E+03 -0.12059010739E+01  0.14672798133E+03  0.18947471067E+03  0.47000000000E+01 0. -1.
        -13    1    4    4    0    0 -0.46924906175E+02  0.71991167489E+01  0.38140080878E+01  0.47626891135E+02  0.00000000000E+00 0.  1.
         14    1    4    4    0    0  0.29103407786E+02  0.25112069259E+02  0.20915244334E+02  0.43761533483E+02  0.00000000000E+00 0. -1.
         -5    1    5    5    0  501  0.98075260042E+02  0.36616847049E+02  0.83671992895E+02  0.13409937552E+03  0.47000000000E+01 0.  1.
         11    1    6    6    0    0  0.57745627246E+02 -0.33550659444E+02  0.27212624804E+02  0.72116095041E+02  0.00000000000E+00 0. -1.
        -12    1    6    6    0    0 -0.18216162691E+02 -0.34171472539E+02 -0.83442796055E+01  0.39612436441E+02  0.00000000000E+00 0.  1.
</event>
<event>
12    1  0.2609167E-002  0.2960657E+03  0.7818608E-02  0.1087224E+00
         -2   -1    0    0    0  501 -0.00000000000E+00  0.00000000000E+00  0.22630081731E+03  0.22630081731E+03  0.00000000000E+00 0.  1.
          2   -1    0    0  502    0  0.00000000000E+00 -0.00000000000E+00 -0.13298935322E+04  0.13298935322E+04  0.00000000000E+00 0. -1.
          6    2    1    2  502    0 -0.24041772623E+03 -0.47995510456E+01 -0.12069199109E+04  0.12427323043E+04  0.17292828021E+03 0.  0.
         24    2    3    3    0    0 -0.47708214668E+02  0.32449149343E+02 -0.33853997373E+03  0.35243447393E+03  0.79194214168E+02 0.  0.
         -6    2    1    2    0  501  0.24041772623E+03  0.47995510456E+01  0.10332719604E+03  0.31346204517E+03  0.17250572614E+03 0.  0.
        -24    2    5    5    0    0  0.10931900283E+03  0.27076668971E+02 -0.10417282985E+02  0.13841050486E+03  0.79781938355E+02 0.  0.
          5    1    3    3  502    0 -0.19270951156E+03 -0.37248700389E+02 -0.86837993715E+03  0.89029783037E+03  0.47000000000E+01 0. -1.
        -11    1    4    4    0    0 -0.46322694423E+02  0.56629102440E+02 -0.23640378697E+03  0.24746595272E+03  0.00000000000E+00 0.  1.
         12    1    4    4    0    0 -0.13855202445E+01 -0.24179953096E+02 -0.10213618676E+03  0.10496852121E+03  0.00000000000E+00 0. -1.
         -5    1    5    5    0  501  0.13109872340E+03 -0.22277117926E+02  0.11374447902E+03  0.17505154032E+03  0.47000000000E+01 0.  1.
         13    1    6    6    0    0  0.49337353205E+02  0.38253969544E+02  0.25693985851E+02  0.67510899239E+02  0.00000000000E+00 0. -1.
        -14    1    6    6    0    0  0.59981649626E+02 -0.11177300573E+02 -0.36111268836E+02  0.70899605619E+02  0.00000000000E+00 0.  1.
</event>
<event>
12    1  0.2609167E-002  0.2725804E+03  0.7818608E-02  0.1099812E+00
          1   -1    0    0  502    0  0.00000000000E+00  0.00000000000E+00  0.25362350253E+04  0.25362350253E+04  0.00000000000E+00 0.  1.
         -1   -1    0    0    0  501 -0.00000000000E+00 -0.00000000000E+00 -0.29324935735E+02  0.29324935735E+02  0.00000000000E+00 0. -1.
          6    2    1    2  502    0  0.13702791958E+03  0.15994622414E+03  0.12092689989E+04  0.12394342405E+04  0.17177391920E+03 0.  0.
         24    2    3    3    0    0  0.65798680092E+02  0.15987858707E+03  0.71380183615E+03  0.73885117191E+03  0.80606228311E+02 0.  0.
         -6    2    1    2    0  501 -0.13702791958E+03 -0.15994622414E+03  0.12976410906E+04  0.13261257206E+04  0.17429165579E+03 0.  0.
        -24    2    5    5    0    0  0.77542897819E+01 -0.44913655588E+02  0.44297670479E+03  0.45167293030E+03  0.75516286378E+02 0.  0.
          5    1    3    3  502    0  0.71229239483E+02  0.67637066817E-01  0.49546716276E+03  0.50058306854E+03  0.47000000000E+01 0. -1.
        -11    1    4    4    0    0  0.32320789847E+02  0.56908680906E+01  0.13465467371E+03  0.13859617811E+03  0.00000000000E+00 0.  1.
         12    1    4    4    0    0  0.33477890245E+02  0.15418771898E+03  0.57914716244E+03  0.60025499380E+03  0.00000000000E+00 0. -1.
         -5    1    5    5    0  501 -0.14478220936E+03 -0.11503256855E+03  0.85466438584E+03  0.87445279026E+03  0.47000000000E+01 0.  1.
         11    1    6    6    0    0  0.35951236021E+01 -0.65357697928E+02  0.29100122578E+03  0.29827213581E+03  0.00000000000E+00 0. -1.
        -12    1    6    6    0    0  0.41591661797E+01  0.20444042340E+02  0.15197547901E+03  0.15340079449E+03  0.00000000000E+00 0.  1.
</event>
<event>
12    1  0.2609167E-002  0.1892750E+03  0.7818608E-02  0.1159117E+00
         -1   -1    0    0    0  501 -0.00000000000E+00  0.00000000000E+00  0.10047872170E+03  0.10047872170E+03  0.00000000000E+00 0.  1.
          1   -1    0    0  502    0  0.00000000000E+00 -0.00000000000E+00 -0.36770464027E+03  0.36770464027E+03  0.00000000000E+00 0. -1.
          6    2    1    2  502    0 -0.66765577806E+02  0.44586148980E+02 -0.93145907335E+02  0.21136425773E+03  0.17191021590E+03 0.  0.
         24    2    3    3    0    0 -0.28116091192E+02  0.47534191565E+02  0.12733198256E+02  0.98515027463E+02  0.80579540496E+02 0.  0.
         -6    2    1    2    0  501  0.66765577806E+02 -0.44586148980E+02 -0.17408001124E+03  0.25681910424E+03  0.17089948780E+03 0.  0.
        -24    2    5    5    0    0  0.28902445942E+02 -0.66371610483E+02 -0.18346016219E+03  0.21189360681E+03  0.77464362367E+02 0.  0.
          5    1    3    3  502    0 -0.38649486614E+02 -0.29480425853E+01 -0.10587910559E+03  0.11284923026E+03  0.47000000000E+01 0. -1.
        -13    1    4    4    0    0 -0.21571832879E+02  0.44985275284E+02 -0.27979998455E+02  0.57200518177E+02  0.00000000000E+00 0.  1.
         14    1    4    4    0    0 -0.65442583131E+01  0.25489162807E+01  0.40713196711E+02  0.41314509286E+02  0.00000000000E+00 0. -1.
         -5    1    5    5    0  501  0.37863131864E+02  0.21785461503E+02  0.93801509513E+01  0.44925497430E+02  0.47000000000E+01 0.  1.
         11    1    6    6    0    0  0.30323564690E+01 -0.46132033386E+02 -0.17037568123E+03  0.17653677363E+03  0.00000000000E+00 0. -1.
        -12    1    6    6    0    0  0.25870089473E+02 -0.20239577096E+02 -0.13084480959E+02  0.35356833178E+02  0.00000000000E+00 0.  1.
</event>
<event>
12    1  0.2609167E-002  0.1940686E+03  0.7818608E-02  0.1154842E+00
         -2   -1    0    0    0  501 -0.00000000000E+00  0.00000000000E+00  0.13479339640E+03  0.13479339640E+03  0.00000000000E+00 0.  1.
          2   -1    0    0  502    0  0.00000000000E+00 -0.00000000000E+00 -0.37537756065E+03  0.37537756065E+03  0.00000000000E+00 0. -1.
          6    2    1    2  502    0 -0.88606864125E+02  0.85615588727E+01  0.87610193816E+01  0.19410226715E+03  0.17226275857E+03 0.  0.
         24    2    3    3    0    0 -0.67505149730E+02  0.32838970582E+02 -0.54792655004E+02  0.12271715247E+03  0.80136890627E+02 0.  0.
         -6    2    1    2    0  501  0.88606864125E+02 -0.85615588727E+01 -0.24934518363E+03  0.31606868989E+03  0.17263232452E+03 0.  0.
        -24    2    5    5    0    0  0.10195783804E+03  0.27475462231E+02 -0.24236215439E+03  0.27672700600E+03  0.81780928112E+02 0.  0.
          5    1    3    3  502    0 -0.21101714395E+02 -0.24277411709E+02  0.63553674386E+02  0.71385114678E+02  0.47000000000E+01 0. -1.
        -13    1    4    4    0    0 -0.84796613596E+02  0.18778861790E+02 -0.37940392641E+02  0.94776498781E+02  0.00000000000E+00 0.  1.
         14    1    4    4    0    0  0.17291463866E+02  0.14060108792E+02 -0.16852262363E+02  0.27940653690E+02  0.00000000000E+00 0. -1.
         -5    1    5    5    0  501 -0.13350973915E+02 -0.36037021103E+02 -0.69830292396E+01  0.39341683897E+02  0.47000000000E+01 0.  1.
         13    1    6    6    0    0 -0.10237109023E+02 -0.65434354029E+01 -0.49986732063E+02  0.51442087150E+02  0.00000000000E+00 0. -1.
        -14    1    6    6    0    0  0.11219494706E+03  0.34018897633E+02 -0.19237542233E+03  0.22528491885E+03  0.00000000000E+00 0.  1.
</event>
<event>
12    1  0.2609167E-002  0.1842053E+03  0.7818608E-02  0.1163794E+00
          2   -1    0    0  502    0  0.00000000000E+00  0.00000000000E+00  0.94539734583E+03  0.94539734583E+03  0.00000000000E+00 0. -1.
         -2   -1    0    0    0  501 -0.00000000000E+00 -0.00000000000E+00 -0.48864850384E+02  0.48864850384E+02  0.00000000000E+00 0.  1.
          6    2    1    2  502    0  0.53668594400E+02 -0.34399256632E+02  0.70428006070E+03  0.72795135774E+03  0.17274011828E+03 0.  0.
         24    2    3    3    0    0  0.58775395020E+02 -0.40196263118E+02  0.70940692678E+03  0.71755619288E+03  0.80984045037E+02 0.  0.
         -6    2    1    2    0  501 -0.53668594400E+02  0.34399256632E+02  0.19225243475E+03  0.26631083848E+03  0.17290701877E+03 0.  0.
        -24    2    5    5    0    0 -0.58014712046E+02 -0.32951098999E+02  0.16250128728E+03  0.19240427640E+03  0.78493665149E+02 0.  0.
          5    1    3    3  502    0 -0.51068006194E+01  0.57970064858E+01 -0.51268660800E+01  0.10395164865E+02  0.47000000000E+01 0. -1.
        -13    1    4    4    0    0  0.53892286961E+01  0.23470223571E+02  0.19519481298E+03  0.19667463028E+03  0.00000000000E+00 0.  1.
         14    1    4    4    0    0  0.53386166324E+02 -0.63666486689E+02  0.51421211379E+03  0.52088156260E+03  0.00000000000E+00 0. -1.
         -5    1    5    5    0  501  0.43461176453E+01  0.67350355631E+02  0.29751147470E+02  0.73906562077E+02  0.47000000000E+01 0.  1.
         13    1    6    6    0    0  0.81993724645E+01  0.61932325886E+01  0.75829407114E+02  0.76522446524E+02  0.00000000000E+00 0. -1.
        -14    1    6    6    0    0 -0.66214084510E+02 -0.39144331588E+02  0.86671880169E+02  0.11588182987E+03  0.00000000000E+00 0.  1.
</event>
<event>
12    1  0.2609167E-002  0.1740300E+03  0.7818608E-02  0.1173709E+00
         -2   -1    0    0    0  501 -0.00000000000E+00  0.00000000000E+00  0.74537387822E+02  0.74537387822E+02  0.00000000000E+00 0. -1.
          2   -1    0    0  502    0  0.00000000000E+00 -0.00000000000E+00 -0.41868411068E+03  0.41868411068E+03  0.00000000000E+00 0.  1.
          6    2    1    2  502    0 -0.28628989976E+02 -0.13187550564E+02 -0.12963946078E+03  0.21695485921E+03  0.17108328553E+03 0.  0.
         24    2    3    3    0    0 -0.46452717945E+02  0.18220166117E+02 -0.14927838776E+03  0.17557965651E+03  0.77809699068E+02 0.  0.
         -6    2    1    2    0  501  0.28628989976E+02  0.13187550564E+02 -0.21450726207E+03  0.27626663929E+03  0.17122020892E+03 0.  0.
        -24    2    5    5    0    0  0.40237415830E+02  0.48314128673E+02 -0.21644287931E+03  0.23892405429E+03  0.79270921858E+02 0.  0.
          5    1    3    3  502    0  0.17823727968E+02 -0.31407716681E+02  0.19638926981E+02  0.41375202704E+02  0.47000000000E+01 0. -1.
        -11    1    4    4    0    0 -0.65179704026E+02  0.22727881143E+02 -0.91119898514E+02  0.11431441862E+03  0.00000000000E+00 0.  1.
         12    1    4    4    0    0  0.18726986082E+02 -0.45077150259E+01 -0.58158489248E+02  0.61265237893E+02  0.00000000000E+00 0. -1.
         -5    1    5    5    0  501 -0.11608425853E+02 -0.35126578109E+02  0.19356172318E+01  0.37342585000E+02  0.47000000000E+01 0.  1.
         11    1    6    6    0    0 -0.48107911891E+01 -0.23176683855E+01  0.50167062987E+01  0.73268438428E+01  0.00000000000E+00 0. -1.
        -12    1    6    6    0    0  0.45048207019E+02  0.50631797059E+02 -0.22145958560E+03  0.23159721044E+03  0.00000000000E+00 0.  1.
</event>
<event>
12    1  0.2609167E-002  0.1984972E+03  0.7818608E-02  0.1151013E+00
          1   -1    0    0  502    0  0.00000000000E+00  0.00000000000E+00  0.31314175018E+04  0.31314175018E+04  0.00000000000E+00 0.  1.
         -1   -1    0    0    0  501 -0.00000000000E+00 -0.00000000000E+00 -0.46356988810E+02  0.46356988810E+02  0.00000000000E+00 0. -1.
          6    2    1    2  502    0 -0.45010250902E+02 -0.88267850744E+02  0.28970369041E+04  0.29037741670E+04  0.17106856191E+03 0.  0.
         24    2    3    3    0    0 -0.22904252523E+02 -0.77289793788E+02  0.28285595434E+04  0.28308328767E+04  0.79795790492E+02 0.  0.
         -6    2    1    2    0  501  0.45010250902E+02  0.88267850744E+02  0.18802360886E+03  0.27400032361E+03  0.17293398651E+03 0.  0.
        -24    2    5    5    0    0 -0.12291055009E+02  0.57158311818E+02  0.37637447722E+02  0.11002065861E+03  0.85263269978E+02 0.  0.
          5    1    3    3  502    0 -0.22105998379E+02 -0.10978056956E+02  0.68477360673E+02  0.72941290252E+02  0.47000000000E+01 0. -1.
        -11    1    4    4    0    0 -0.32057625249E+02 -0.90889777095E+02  0.25135854233E+04  0.25154324326E+04  0.00000000000E+00 0.  1.
         12    1    4    4    0    0  0.91533727258E+01  0.13599983307E+02  0.31497412017E+03  0.31540044413E+03  0.00000000000E+00 0. -1.
         -5    1    5    5    0  501  0.57301305911E+02  0.31109538925E+02  0.15038616114E+03  0.16397966500E+03  0.47000000000E+01 0.  1.
         13    1    6    6    0    0  0.28038192257E+02  0.36604507041E+02  0.44686857453E+02  0.64210165782E+02  0.00000000000E+00 0. -1.
        -14    1    6    6    0    0 -0.40329247265E+02  0.20553804777E+02 -0.70494097311E+01  0.45810492830E+02  0.00000000000E+00 0.  1.
</event>
<event>
12    1  0.2609167E-002  0.1798919E+03  0.7818608E-02  0.1167908E+00
         -2   -1    0    0    0  501 -0.00000000000E+00  0.00000000000E+00  0.48336762528E+02  0.48336762528E+02  0.00000000000E+00 0. -1.
          2   -1    0    0  502    0  0.00000000000E+00 -0.00000000000E+00 -0.80486164007E+03  0.80486164007E+03  0.00000000000E+00 0.  1.
          6    2    1    2  502    0 -0.18667356785E+02 -0.45782475143E+02 -0.55254852737E+03  0.58097734004E+03  0.17256966509E+03 0.  0.
         24    2    3    3    0    0 -0.19313652461E+02 -0.19203946545E+02 -0.54709200059E+03  0.55343283851E+03  0.78971139619E+02 0.  0.
         -6    2    1    2    0  501  0.18667356785E+02  0.45782475143E+02 -0.20397635017E+03  0.27222106255E+03  0.17335930961E+03 0.  0.
        -24    2    5    5    0    0  0.49136633702E+02  0.76416253750E+02 -0.89612341676E+02  0.14987719606E+03  0.78606294346E+02 0.  0.
          5    1    3    3  502    0  0.64629567593E+00 -0.26578528598E+02 -0.54565267770E+01  0.27544501539E+02  0.47000000000E+01 0. -1.
        -11    1    4    4    0    0  0.14668531245E+02  0.45521441295E+01 -0.40808535381E+03  0.40837426929E+03  0.00000000000E+00 0.  1.
         12    1    4    4    0    0 -0.33982183705E+02 -0.23756090674E+02 -0.13900664678E+03  0.14505856922E+03  0.00000000000E+00 0. -1.
         -5    1    5    5    0  501 -0.30469276917E+02 -0.30633778607E+02 -0.11436400850E+03  0.12234386649E+03  0.47000000000E+01 0.  1.
         13    1    6    6    0    0  0.36625596438E+02  0.87162219530E+02 -0.49962932300E+02  0.10693447261E+03  0.00000000000E+00 0. -1.
        -14    1    6    6    0    0  0.12511037264E+02 -0.10745965781E+02 -0.39649409376E+02  0.42942723457E+02  0.00000000000E+00 0.  1.
</event>
<event>
12    1  0.2609167E-002  0.2152236E+03  0.7818608E-02  0.1137495E+00
          1   -1    0    0  502    0  0.00000000000E+00  0.00000000000E+00  0.62443808582E+03  0.62443808582E+03  0.00000000000E+00 0. -1.
         -1   -1    0    0    0  501 -0.00000000000E+00 -0.00000000000E+00 -0.74186350179E+02  0.74186350179E+02  0.00000000000E+00 0.  1.
          6    2    1    2  502    0 -0.80042818619E+01 -0.13218962254E+03  0.27869921364E+03  0.35240783028E+03  0.17023472714E+03 0.  0.
         24    2    3    3    0    0 -0.28694116349E+02 -0.27194151312E+02  0.53248023416E+02  0.10280324819E+03  0.78551140420E+02 0.  0.
         -6    2    1    2    0  501  0.80042818619E+01  0.13218962254E+03  0.27155252199E+03  0.34621660571E+03  0.16907690863E+03 0.  0.
        -24    2    5    5    0    0 -0.24825660117E+02  0.14964644622E+03  0.18431978836E+03  0.25127354067E+03  0.78448936197E+02 0.  0.
          5    1    3    3  502    0  0.20689834487E+02 -0.10499547123E+03  0.22545119023E+03  0.24960458210E+03  0.47000000000E+01 0. -1.
        -11    1    4    4    0    0  0.44912627386E+01 -0.21076231082E+02 -0.15280319942E+02  0.26417175003E+02  0.00000000000E+00 0.  1.
         12    1    4    4    0    0 -0.33185379088E+02 -0.61179202305E+01  0.68528343358E+02  0.76386073184E+02  0.00000000000E+00 0. -1.
         -5    1    5    5    0  501  0.32829941979E+02 -0.17456823681E+02  0.87232733630E+02  0.94943065044E+02  0.47000000000E+01 0.  1.
         11    1    6    6    0    0 -0.22896196968E+02  0.73562833878E+02  0.14819901161E+03  0.16702895978E+03  0.00000000000E+00 0. -1.
        -12    1    6    6    0    0 -0.19294631490E+01  0.76083612341E+02  0.36120776752E+02  0.84244580882E+02  0.00000000000E+00 0.  1.
</event>
<event>
12    1  0.2609167E-002  0.3449321E+03  0.7818608E-02  0.1064715E+00
          1   -1    0    0  502    0  0.00000000000E+00  0.00000000000E+00  0.13393721325E+04  0.13393721325E+04  0.00000000000E+00 0.  1.
         -1   -1    0    0    0  501 -0.00000000000E+00 -0.00000000000E+00 -0.10269203876E+03  0.10269203876E+03  0.00000000000E+00 0. -1.
          6    2    1    2  502    0 -0.14294183808E+03  0.26258305718E+03  0.88340001573E+03  0.94839109023E+03  0.17224355212E+03 0.  0.
         24    2    3    3    0    0 -0.21314470685E+02  0.50490499681E+02  0.23934806997E+03  0.25947783859E+03  0.83890720009E+02 0.  0.
         -6    2    1    2    0  501  0.14294183808E+03 -0.26258305718E+03  0.35328007804E+03  0.49367308106E+03  0.17182568619E+03 0.  0.
        -24    2    5    5    0    0  0.13426786106E+03 -0.21437318886E+03  0.35694016371E+03  0.44432821803E+03  0.77701751923E+02 0.  0.
          5    1    3    3  502    0 -0.12162736739E+03  0.21209255750E+03  0.64405194576E+03  0.68891325164E+03  0.47000000000E+01 0. -1.
        -13    1    4    4    0    0  0.39292156413E+01  0.50502574723E+02  0.22460069348E+03  0.23024209064E+03  0.00000000000E+00 0.  1.
         14    1    4    4    0    0 -0.25243686326E+02 -0.12075042053E-01  0.14747376489E+02  0.29235747954E+02  0.00000000000E+00 0. -1.
         -5    1    5    5    0  501  0.86739770122E+01 -0.48209868318E+02 -0.36600856680E+01  0.49344863031E+02  0.47000000000E+01 0.  1.
         11    1    6    6    0    0  0.45200581984E+02 -0.60184292590E+02  0.52954805575E+02  0.92029631749E+02  0.00000000000E+00 0. -1.
        -12    1    6    6    0    0  0.89067279080E+02 -0.15418889627E+03  0.30398535814E+03  0.35229858628E+03  0.00000000000E+00 0.  1.
</event>
<event>
12    1  0.2609167E-002  0.2185965E+03  0.7818608E-02  0.1134934E+00
          4   -1    0    0  502    0  0.00000000000E+00  0.00000000000E+00  0.11692133567E+04  0.11692133567E+04  0.00000000000E+00 0. -1.
         -4   -1    0    0    0  501 -0.00000000000E+00 -0.00000000000E+00 -0.42768902619E+02  0.42768902619E+02  0.00000000000E+00 0.  1.
          6    2    1    2  502    0 -0.11900994652E+03 -0.64133344778E+02  0.69303099701E+03  0.72694661035E+03  0.17286688000E+03 0.  0.
         24    2    3    3    0    0 -0.13664087882E+01 -0.54715401539E+02  0.39429839492E+03  0.40571156062E+03  0.78326265997E+02 0.  0.
         -6    2    1    2    0  501  0.11900994652E+03  0.64133344778E+02  0.43341345704E+03  0.48503564893E+03  0.17069242137E+03 0.  0.
        -24    2    5    5    0    0  0.70696054242E+02 -0.24624081798E+02  0.16397697882E+03  0.19723325361E+03  0.80051416336E+02 0.  0.
          5    1    3    3  502    0 -0.11764353773E+03 -0.94179432397E+01  0.29873260210E+03  0.32123504974E+03  0.47000000000E+01 0. -1.
        -13    1    4    4    0    0  0.28030908495E+02  0.47060975435E+01  0.95118345541E+02  0.99274260731E+02  0.00000000000E+00 0.  1.
         14    1    4    4    0    0 -0.29397317283E+02 -0.59421499082E+02  0.29918004937E+03  0.30643729988E+03  0.00000000000E+00 0. -1.
         -5    1    5    5    0  501  0.48313892280E+02  0.88757426576E+02  0.26943647821E+03  0.28780239532E+03  0.47000000000E+01 0.  1.
         11    1    6    6    0    0  0.31248585541E+02 -0.35455505147E+02  0.14429447473E+03  0.15183695987E+03  0.00000000000E+00 0. -1.
        -12    1    6    6    0    0  0.39447468701E+02  0.10831423349E+02  0.19682504092E+02  0.45396293747E+02  0.00000000000E+00 0.  1.
</event>
<event>
12    1  0.2609167E-002  0.2045383E+03  0.7818608E-02  0.1145966E+00
         -2   -1    0    0    0  501 -0.00000000000E+00  0.00000000000E+00  0.63648842485E+02  0.63648842485E+02  0.00000000000E+00 0. -1.
          2   -1    0    0  502    0  0.00000000000E+00 -0.00000000000E+00 -0.12147437236E+04  0.12147437236E+04  0.00000000000E+00 0.  1.
          6    2    1    2  502    0 -0.97625424397E+02  0.51129943100E+02 -0.14221544156E+03  0.24894560296E+03  0.17205721968E+03 0.  0.
         24    2    3    3    0    0 -0.11884938802E+03  0.64056082208E+02 -0.15495730216E+03  0.22062623299E+03  0.80223503358E+02 0.  0.
         -6    2    1    2    0  501  0.97625424397E+02 -0.51129943100E+02 -0.10088794396E+04  0.10294469631E+04  0.17256399327E+03 0.  0.
        -24    2    5    5    0    0  0.28831011319E+02 -0.90061159961E+02 -0.58495329350E+03  0.59818859716E+03  0.81957320847E+02 0.  0.
          5    1    3    3  502    0  0.21223963619E+02 -0.12926139108E+02  0.12741860597E+02  0.28319369968E+02  0.47000000000E+01 0. -1.
        -11    1    4    4    0    0 -0.94424673796E+02  0.22566821308E+02 -0.13970007225E+03  0.17012169360E+03  0.00000000000E+00 0.  1.
         12    1    4    4    0    0 -0.24424714220E+02  0.41489260900E+02 -0.15257229909E+02  0.50504539392E+02  0.00000000000E+00 0. -1.
         -5    1    5    5    0  501  0.68794413077E+02  0.38931216861E+02 -0.42392614606E+03  0.43125836599E+03  0.47000000000E+01 0.  1.
         13    1    6    6    0    0  0.31540833301E+02 -0.76614337215E+02 -0.25862691161E+03  0.27157404191E+03  0.00000000000E+00 0. -1.
        -14    1    6    6    0    0 -0.27098219811E+01 -0.13446822747E+02 -0.32632638190E+03  0.32661455525E+03  0.00000000000E+00 0.  1.
</event>
<event>
12    1  0.2609167E-002  0.1746685E+03  0.7818608E-02  0.1173065E+00
         -2   -1    0    0    0  501 -0.00000000000E+00  0.00000000000E+00  0.11359131666E+03  0.11359131666E+03  0.00000000000E+00 0.  1.
          2   -1    0    0  502    0  0.00000000000E+00 -0.00000000000E+00 -0.27910327161E+03  0.27910327161E+03  0.00000000000E+00 0. -1.
          6    2    1    2  502    0 -0.11524045556E+02  0.21893341514E+02 -0.12067580104E+03  0.21195664052E+03  0.17248433689E+03 0.  0.
         24    2    3    3    0    0  0.43107251953E+01 -0.19801823675E+02 -0.11841197540E+01  0.84326006806E+02  0.81846067173E+02 0.  0.
         -6    2    1    2    0  501  0.11524045556E+02 -0.21893341514E+02 -0.44836153914E+02  0.18073794775E+03  0.17333148309E+03 0.  0.
        -24    2    5    5    0    0 -0.43275108481E+00  0.43260214905E+02  0.13814033977E+02  0.92138368522E+02  0.80168684361E+02 0.  0.
          5    1    3    3  502    0 -0.15834770751E+02  0.41695165188E+02 -0.11949168129E+03  0.12763063371E+03  0.47000000000E+01 0. -1.
        -13    1    4    4    0    0 -0.91676263330E+01  0.30328226276E+02  0.49003467686E+01  0.32060257018E+02  0.00000000000E+00 0.  1.
         14    1    4    4    0    0  0.13478351528E+02 -0.50130049951E+02 -0.60844665226E+01  0.52265749788E+02  0.00000000000E+00 0. -1.
         -5    1    5    5    0  501  0.11956796641E+02 -0.65153556419E+02 -0.58650187891E+02  0.88599579229E+02  0.47000000000E+01 0.  1.
         11    1    6    6    0    0 -0.26557073781E+01  0.49981306553E+02 -0.22689667698E+02  0.54954570389E+02  0.00000000000E+00 0. -1.
        -12    1    6    6    0    0  0.22229562933E+01 -0.67210916478E+01  0.36503701675E+02  0.37183798133E+02  0.00000000000E+00 0.  1.
</event>
<event>
12    1  0.2609167E-002  0.2484000E+03  0.7818608E-02  0.1114320E+00
          2   -1    0    0  502    0  0.00000000000E+00  0.00000000000E+00  0.81990701831E+03  0.81990701831E+03  0.00000000000E+00 0.  1.
         -2   -1    0    0    0  501 -0.00000000000E+00 -0.00000000000E+00 -0.75489194106E+02  0.75489194106E+02  0.00000000000E+00 0. -1.
          6    2    1    2  502    0 -0.10539756234E+03  0.14433854490E+03  0.39702382160E+03  0.46829511669E+03  0.17242430140E+03 0.  0.
         24    2    3    3    0    0 -0.13263772330E+03  0.15228072590E+03  0.33013720662E+03  0.39548705484E+03  0.81469320785E+02 0.  0.
         -6    2    1    2    0  501  0.10539756234E+03 -0.14433854490E+03  0.34739400261E+03  0.42710109572E+03  0.17259922140E+03 0.  0.
        -24    2    5    5    0    0  0.10890422732E+03 -0.17202190072E+03  0.32069798260E+03  0.38819823756E+03  0.79993815656E+02 0.  0.
          5    1    3    3  502    0  0.27240160956E+02 -0.79421810005E+01  0.66886614972E+02  0.72808061850E+02  0.47000000000E+01 0. -1.
        -11    1    4    4    0    0 -0.56468702729E+02  0.12127260559E+03  0.17953928410E+03  0.22389755199E+03  0.00000000000E+00 0.  1.
         12    1    4    4    0    0 -0.76169020568E+02  0.31008120314E+02  0.15059792253E+03  0.17158950285E+03  0.00000000000E+00 0. -1.
         -5    1    5    5    0  501 -0.35066649815E+01  0.27683355823E+02  0.26696020005E+02  0.38902858160E+02  0.47000000000E+01 0.  1.
         13    1    6    6    0    0  0.86141543155E+02 -0.13242454596E+03  0.17618087389E+03  0.23663542878E+03  0.00000000000E+00 0. -1.
        -14    1    6    6    0    0  0.22762684168E+02 -0.39597354763E+02  0.14451710871E+03  0.15156280878E+03  0.00000000000E+00 0.  1.
</event>
<event>
12    1  0.2609167E-002  0.1847518E+03  0.7818608E-02  0.1163282E+00
         -2   -1    0    0    0  501 -0.00000000000E+00  0.00000000000E+00  0.17274495725E+02  0.17274495725E+02  0.00000000000E+00 0.  1.
          2   -1    0    0  502    0  0.00000000000E+00 -0.00000000000E+00 -0.25794994331E+04  0.25794994331E+04  0.00000000000E+00 0. -1.
          6    2    1    2  502    0  0.26952144710E+02  0.65826967962E+02 -0.19028765276E+04  0.19117114993E+04  0.16923997632E+03 0.  0.
         24    2    3    3    0    0  0.80830140482E+02  0.29154648444E+02 -0.11604576489E+04  0.11664225762E+04  0.80598798510E+02 0.  0.
         -6    2    1    2    0  501 -0.26952144710E+02 -0.65826967962E+02 -0.65934840983E+03  0.68506242955E+03  0.17178649252E+03 0.  0.
        -24    2    5    5    0    0 -0.27077393172E+02 -0.10724562314E+03 -0.39833450948E+03  0.42074090779E+03  0.78215862490E+02 0.  0.
          5    1    3    3  502    0 -0.53877995772E+02  0.36672319518E+02 -0.74241887872E+03  0.74528892312E+03  0.47000000000E+01 0. -1.
        -11    1    4    4    0    0  0.37315908967E+02  0.34716242281E+02 -0.26297945330E+03  0.26787289411E+03  0.00000000000E+00 0.  1.
         12    1    4    4    0    0  0.43514231515E+02 -0.55615938362E+01 -0.89747819556E+03  0.89854968208E+03  0.00000000000E+00 0. -1.
         -5    1    5    5    0  501  0.12524846188E+00  0.41418655181E+02 -0.26101390036E+03  0.26432152176E+03  0.47000000000E+01 0.  1.
         13    1    6    6    0    0  0.20010752864E+02 -0.23412260680E+02 -0.17344671010E+03  0.17615994274E+03  0.00000000000E+00 0. -1.
        -14    1    6    6    0    0 -0.47088146036E+02 -0.83833362463E+02 -0.22488779938E+03  0.24458096505E+03  0.00000000000E+00 0.  1.
</event>
<event>
12    1  0.2609167E-002  0.1965265E+03  0.7818608E-02  0.1152703E+00
          1   -1    0    0  502    0  0.00000000000E+00  0.00000000000E+00  0.38567481156E+03  0.38567481156E+03  0.00000000000E+00 0.  1.
         -1   -1    0    0    0  501 -0.00000000000E+00 -0.00000000000E+00 -0.11561234545E+03  0.11561234545E+03  0.00000000000E+00 0. -1.
          6    2    1    2  502    0  0.62709519566E+02  0.66466029138E+02  0.22709071158E+03  0.30074006343E+03  0.17471169850E+03 0.  0.
         24    2    3    3    0    0 -0.30586048839E+01 -0.25551015549E+02  0.76789871655E+02  0.11257785897E+03  0.78197701252E+02 0.  0.
         -6    2    1    2    0  501 -0.62709519566E+02 -0.66466029138E+02  0.42971754539E+02  0.20054709358E+03  0.17326958239E+03 0.  0.
        -24    2    5    5    0    0 -0.33138228177E+02 -0.24815807044E+02 -0.42603329040E+02  0.10077541822E+03  0.81404390709E+02 0.  0.
          5    1    3    3  502    0  0.65768124450E+02  0.92017044687E+02  0.15030083992E+03  0.18816220446E+03  0.47000000000E+01 0. -1.
        -11    1    4    4    0    0  0.30151954142E+02 -0.11382577704E+02  0.55401232982E+01  0.32701626564E+02  0.00000000000E+00 0.  1.
         12    1    4    4    0    0 -0.33210559026E+02 -0.14168437845E+02  0.71249748356E+02  0.79876232401E+02  0.00000000000E+00 0. -1.
         -5    1    5    5    0  501 -0.29571291390E+02 -0.41650222094E+02  0.85575083579E+02  0.99771675362E+02  0.47000000000E+01 0.  1.
         11    1    6    6    0    0 -0.37908966093E+02 -0.43970905584E+02 -0.52872269060E+02  0.78523926823E+02  0.00000000000E+00 0. -1.
        -12    1    6    6    0    0  0.47707379164E+01  0.19155098540E+02  0.10268940021E+02  0.22251491399E+02  0.00000000000E+00 0.  1.
</event>
<event>
12    1  0.2609167E-002  0.1933661E+03  0.7818608E-02  0.1155460E+00
         -1   -1    0    0    0  501 -0.00000000000E+00  0.00000000000E+00  0.41461815794E+03  0.41461815794E+03  0.00000000000E+00 0. -1.
          1   -1    0    0  502    0  0.00000000000E+00 -0.00000000000E+00 -0.10828799830E+03  0.10828799830E+03  0.00000000000E+00 0.  1.
          6    2    1    2  502    0 -0.12264791363E+02 -0.89223138848E+02  0.46653654024E+02  0.19950379636E+03  0.17179641357E+03 0.  0.
         24    2    3    3    0    0  0.54105576421E+02 -0.52687162351E+02 -0.11150441355E+02  0.10409254577E+03  0.70764223059E+02 0.  0.
         -6    2    1    2    0  501  0.12264791363E+02  0.89223138848E+02  0.25967650562E+03  0.32340235988E+03  0.17042888602E+03 0.  0.
        -24    2    5    5    0    0  0.20918024038E+02  0.90394484491E+02  0.27753748238E+03  0.30297309222E+03  0.78466004888E+02 0.  0.
          5    1    3    3  502    0 -0.66370367784E+02 -0.36535976496E+02  0.57804095379E+02  0.95411250599E+02  0.47000000000E+01 0. -1.
        -11    1    4    4    0    0 -0.70957306108E+00 -0.27931849055E+02 -0.30063878533E+02  0.41043007663E+02  0.00000000000E+00 0.  1.
         12    1    4    4    0    0  0.54815149482E+02 -0.24755313296E+02  0.18913437178E+02  0.63049538103E+02  0.00000000000E+00 0. -1.
         -5    1    5    5    0  501 -0.86532326747E+01 -0.11713456429E+01 -0.17860976763E+02  0.20429267663E+02  0.47000000000E+01 0.  1.
         11    1    6    6    0    0  0.47885910686E+02  0.70899315431E+02  0.16858275098E+03  0.18905003914E+03  0.00000000000E+00 0. -1.
        -12    1    6    6    0    0 -0.26967886648E+02  0.19495169060E+02  0.10895473140E+03  0.11392305308E+03  0.00000000000E+00 0.  1.
</event>
<event>
12    1  0.2609167E-002  0.1969949E+03  0.7818608E-02  0.1152299E+00
         -3   -1    0    0    0  501 -0.00000000000E+00  0.00000000000E+00  0.30958439078E+03  0.30958439078E+03  0.00000000000E+00 0. -1.
          3   -1    0    0  502    0  0.00000000000E+00 -0.00000000000E+00 -0.12958579048E+03  0.12958579048E+03  0.00000000000E+00 0.  1.
          6    2    1    2  502    0 -0.97397752717E+02 -0.34719363500E+01  0.50393401348E+02  0.20352400569E+03  0.17141805452E+03 0.  0.
         24    2    3    3    0    0 -0.49984620837E+02 -0.61833872640E+02 -0.29581835522E+01  0.11120606435E+03  0.77692649409E+02 0.  0.
         -6    2    1    2    0  501  0.97397752717E+02  0.34719363500E+01  0.12960519895E+03  0.23564617557E+03  0.17097729642E+03 0.  0.
        -24    2    5    5    0    0  0.85684466429E+02  0.49196828785E+02  0.13825914060E+03  0.18742846545E+03  0.79067591024E+02 0.  0.
          5    1    3    3  502    0 -0.47413131880E+02  0.58361936290E+02  0.53351584900E+02  0.92317941341E+02  0.47000000000E+01 0. -1.
        -11    1    4    4    0    0  0.18391801368E+02 -0.30518818162E+02 -0.49445180173E+01  0.35973669232E+02  0.00000000000E+00 0.  1.
         12    1    4    4    0    0 -0.68376422205E+02 -0.31315054478E+02  0.19863344651E+01  0.75232395117E+02  0.00000000000E+00 0. -1.
         -5    1    5    5    0  501  0.11713286288E+02 -0.45724892435E+02 -0.86539416481E+01  0.48217710127E+02  0.47000000000E+01 0.  1.
         13    1    6    6    0    0 -0.30600874543E+01 -0.13737287422E+02  0.33760743376E+02  0.36576836854E+02  0.00000000000E+00 0. -1.
        -14    1    6    6    0    0  0.88744553883E+02  0.62934116206E+02  0.10449839722E+03  0.15085162859E+03  0.00000000000E+00 0.  1.
</event>
<event>
12    1  0.2609167E-002  0.1837803E+03  0.7818608E-02  0.1164194E+00
         -1   -1    0    0    0  501 -0.00000000000E+00  0.00000000000E+00  0.43451781441E+02  0.43451781441E+02  0.00000000000E+00 0.  1.
          1   -1    0    0  502    0  0.00000000000E+00 -0.00000000000E+00 -0.20742063178E+04  0.20742063178E+04  0.00000000000E+00 0. -1.
          6    2    1    2  502    0  0.58381020775E+02  0.31034942702E+02 -0.18537041076E+04  0.18628437752E+04  0.17203633616E+03 0.  0.
         24    2    3    3    0    0 -0.13532935768E+02  0.53279386557E+02 -0.13436030486E+04  0.13471969845E+04  0.81539740340E+02 0.  0.
         -6    2    1    2    0  501 -0.58381020775E+02 -0.31034942702E+02 -0.17705042875E+03  0.25481432405E+03  0.17091510806E+03 0.  0.
        -24    2    5    5    0    0 -0.65769135157E+02 -0.61741447809E+01 -0.19625877106E+03  0.22220000324E+03  0.80570695786E+02 0.  0.
          5    1    3    3  502    0  0.71913956544E+02 -0.22244443855E+02 -0.51010105901E+03  0.51564679077E+03  0.47000000000E+01 0. -1.
        -11    1    4    4    0    0  0.21879577513E+02  0.19948495729E+00 -0.12326758520E+03  0.12519446181E+03  0.00000000000E+00 0.  1.
         12    1    4    4    0    0 -0.35412513281E+02  0.53079901600E+02 -0.12203354634E+04  0.12220025227E+04  0.00000000000E+00 0. -1.
         -5    1    5    5    0  501  0.73881143817E+01 -0.24860797921E+02  0.19208342309E+02  0.32614320806E+02  0.47000000000E+01 0.  1.
         13    1    6    6    0    0  0.29504365997E+01 -0.13101728545E+02 -0.11400801727E+03  0.11479629074E+03  0.00000000000E+00 0. -1.
        -14    1    6    6    0    0 -0.68719571757E+02  0.69275837637E+01 -0.82250753795E+02  0.10740371250E+03  0.00000000000E+00 0.  1.
</event>
<event>
12    1  0.2609167E-002  0.2032256E+03  0.7818608E-02  0.1147046E+00
         -2   -1    0    0    0  501 -0.00000000000E+00  0.00000000000E+00  0.20500385667E+02  0.20500385667E+02  0.00000000000E+00 0.  1.
          2   -1    0    0  502    0  0.00000000000E+00 -0.00000000000E+00 -0.20268548701E+04  0.20268548701E+04  0.00000000000E+00 0. -1.
          6    2    1    2  502    0 -0.10092847004E+03  0.42279762857E+02 -0.92384542213E+03  0.94594159337E+03  0.17129214712E+03 0.  0.
         24    2    3    3    0    0 -0.80357219949E+02  0.70570071720E+01 -0.28188703107E+03  0.30267144428E+03  0.75117379833E+02 0.  0.
         -6    2    1    2    0  501  0.10092847004E+03 -0.42279762857E+02 -0.10825090623E+04  0.11014136624E+04  0.17120762639E+03 0.  0.
        -24    2    5    5    0    0  0.74864413441E+02  0.36361494117E+02 -0.69411631076E+03  0.70425525345E+03  0.85153804944E+02 0.  0.
          5    1    3    3  502    0 -0.20571250094E+02  0.35222755685E+02 -0.64195839106E+03  0.64327014909E+03  0.47000000000E+01 0. -1.
        -13    1    4    4    0    0 -0.15755367020E+02 -0.30535424443E+02 -0.69794241358E+02  0.77793829206E+02  0.00000000000E+00 0.  1.
         14    1    4    4    0    0 -0.64601852929E+02  0.37592431614E+02 -0.21209278971E+03  0.22487761508E+03  0.00000000000E+00 0. -1.
         -5    1    5    5    0  501  0.26064056602E+02 -0.78641256974E+02 -0.38839275153E+03  0.39715840893E+03  0.47000000000E+01 0.  1.
         13    1    6    6    0    0  0.46347906268E+02  0.37896565771E+02 -0.18731354284E+03  0.19664852261E+03  0.00000000000E+00 0. -1.
        -14    1    6    6    0    0  0.28516507173E+02 -0.15350716532E+01 -0.50680276791E+03  0.50760673084E+03  0.00000000000E+00 0.  1.
</event>
<event>
12    1  0.2609167E-002  0.1829521E+03  0.7818608E-02  0.1164976E+00
         -4   -1    0    0    0  501 -0.00000000000E+00  0.00000000000E+00  0.45692878315E+02  0.45692878315E+02  0.00000000000E+00 0.  1.
          4   -1    0    0  502    0  0.00000000000E+00 -0.00000000000E+00 -0.87263117576E+03  0.87263117576E+03  0.00000000000E+00 0. -1.
          6    2    1    2  502    0 -0.52866110082E+02  0.37085381733E+02 -0.22806923471E+03  0.29191165175E+03  0.17037219688E+03 0.  0.
         24    2    3    3    0    0 -0.26328612975E+02  0.83539055067E+02 -0.19697631743E+03  0.22985488722E+03  0.79759826767E+02 0.  0.
         -6    2    1    2    0  501  0.52866110082E+02 -0.37085381733E+02 -0.59886906273E+03  0.62641240233E+03  0.17198311648E+03 0.  0.
        -24    2    5    5    0    0  0.23780354354E+00 -0.61185161275E+02 -0.51435551236E+03  0.52386890804E+03  0.78315766032E+02 0.  0.
          5    1    3    3  502    0 -0.26537497107E+02 -0.46453673334E+02 -0.31092917276E+02  0.62056764528E+02  0.47000000000E+01 0. -1.
        -11    1    4    4    0    0  0.57461869627E-01 -0.13226454211E+02 -0.51381519408E+02  0.53056601187E+02  0.00000000000E+00 0.  1.
         12    1    4    4    0    0 -0.26386074844E+02  0.96765509278E+02 -0.14559479802E+03  0.17679828603E+03  0.00000000000E+00 0. -1.
         -5    1    5    5    0  501  0.52628306538E+02  0.24099779543E+02 -0.84513550379E+02  0.10254349429E+03  0.47000000000E+01 0.  1.
         13    1    6    6    0    0  0.27130045868E+00 -0.40025977209E+02 -0.48989108400E+03  0.49152357689E+03  0.00000000000E+00 0. -1.
        -14    1    6    6    0    0 -0.33496915136E-01 -0.21159184066E+02 -0.24464428352E+02  0.32345331146E+02  0.00000000000E+00 0.  1.
</event>
<event>
12    1  0.2609167E-002  0.1956076E+03  0.7818608E-02  0.1153499E+00
         -2   -1    0    0    0  501 -0.00000000000E+00  0.00000000000E+00  0.26517237363E+02  0.26517237363E+02  0.00000000000E+00 0.  1.
          2   -1    0    0  502    0  0.00000000000E+00 -0.00000000000E+00 -0.15408611986E+04  0.15408611986E+04  0.00000000000E+00 0. -1.
          6    2    1    2  502    0  0.53375029130E+02  0.77799993101E+02 -0.55812333739E+03  0.59127390793E+03  0.17088429359E+03 0.  0.
         24    2    3    3    0    0 -0.98458845619E+01  0.97399003283E+01 -0.13313323427E+03  0.15622478667E+03  0.80560032287E+02 0.  0.
         -6    2    1    2    0  501 -0.53375029130E+02 -0.77799993101E+02 -0.95622062382E+03  0.97610452801E+03  0.17181512017E+03 0.  0.
        -24    2    5    5    0    0 -0.96750658415E+02 -0.26062958340E+02 -0.61953867392E+03  0.63268788402E+03  0.80161227524E+02 0.  0.
          5    1    3    3  502    0  0.63220913692E+02  0.68060092773E+02 -0.42499010312E+03  0.43504912126E+03  0.47000000000E+01 0. -1.
        -11    1    4    4    0    0  0.40919679475E+01  0.44274792109E+02 -0.74783925027E+02  0.87003660040E+02  0.00000000000E+00 0.  1.
         12    1    4    4    0    0 -0.13937852509E+02 -0.34534891781E+02 -0.58349309240E+02  0.69221126629E+02  0.00000000000E+00 0. -1.
         -5    1    5    5    0  501  0.43375629285E+02 -0.51737034761E+02 -0.33668194990E+03  0.34341664399E+03  0.47000000000E+01 0.  1.
         11    1    6    6    0    0 -0.53181892018E+02  0.22726226228E+01 -0.49338006200E+03  0.49624325087E+03  0.00000000000E+00 0. -1.
        -12    1    6    6    0    0 -0.43568766397E+02 -0.28335580962E+02 -0.12615861192E+03  0.13644463315E+03  0.00000000000E+00 0.  1.
</event>
<event>
12    1  0.2609167E-002  0.1755838E+03  0.7818608E-02  0.1172147E+00
         -1   -1    0    0    0  501 -0.00000000000E+00  0.00000000000E+00  0.61329509079E+03  0.61329509079E+03  0.00000000000E+00 0. -1.
          1   -1    0    0  502    0  0.00000000000E+00 -0.00000000000E+00 -0.67895288471E+02  0.67895288471E+02  0.00000000000E+00 0.  1.
          6    2    1    2  502    0 -0.81084893578E+00 -0.28959945366E+02  0.98827272463E+02  0.20123353323E+03  0.17288368692E+03 0.  0.
         24    2    3    3    0    0  0.58865898216E+02 -0.94041188056E+01  0.95424479996E+02  0.13816679478E+03  0.80191024265E+02 0.  0.
         -6    2    1    2    0  501  0.81084893578E+00  0.28959945366E+02  0.44657252986E+03  0.47995684603E+03  0.17347107458E+03 0.  0.
        -24    2    5    5    0    0 -0.56640618801E+02 -0.18315358475E+02  0.25699260071E+03  0.27624561651E+03  0.81992876306E+02 0.  0.
          5    1    3    3  502    0 -0.59676747151E+02 -0.19555826561E+02  0.34027924667E+01  0.63066738457E+02  0.47000000000E+01 0. -1.
        -13    1    4    4    0    0 -0.19645313068E+02 -0.78754107293E+01  0.24220924727E+02  0.32165410216E+02  0.00000000000E+00 0.  1.
         14    1    4    4    0    0  0.78511211284E+02 -0.15287080763E+01  0.71203555269E+02  0.10600138456E+03  0.00000000000E+00 0. -1.
         -5    1    5    5    0  501  0.57451467737E+02  0.47275303841E+02  0.18957992915E+03  0.20371122952E+03  0.47000000000E+01 0.  1.
         11    1    6    6    0    0 -0.60193147689E+01 -0.38510774491E+02  0.16299265688E+03  0.16758853809E+03  0.00000000000E+00 0. -1.
        -12    1    6    6    0    0 -0.50621304032E+02  0.20195416016E+02  0.93999943827E+02  0.10865707841E+03  0.00000000000E+00 0.  1.
</event>
<event>
12    1  0.2609167E-002  0.2249592E+03  0.7818608E-02  0.1130239E+00
         -2   -1    0    0    0  501 -0.00000000000E+00  0.00000000000E+00  0.58928832054E+02  0.58928832054E+02  0.00000000000E+00 0.  1.
          2   -1    0    0  502    0  0.00000000000E+00 -0.00000000000E+00 -0.86315755089E+03  0.86315755089E+03  0.00000000000E+00 0. -1.
          6    2    1    2  502    0  0.10103403157E+03  0.10202221838E+03 -0.43265599479E+03  0.48707474843E+03  0.17156395934E+03 0.  0.
         24    2    3    3    0    0  0.69775671304E+02 -0.10272830734E+02 -0.21752355209E+03  0.24234771468E+03  0.80260474331E+02 0.  0.
         -6    2    1    2    0  501 -0.10103403157E+03 -0.10202221838E+03 -0.37157272404E+03  0.43501163452E+03  0.17479251796E+03 0.  0.
        -24    2    5    5    0    0 -0.66690737608E+02  0.11767934544E+02 -0.14858900547E+03  0.18228354053E+03  0.81008998489E+02 0.  0.
          5    1    3    3  502    0  0.31258360269E+02  0.11229504911E+03 -0.21513244271E+03  0.24472703375E+03  0.47000000000E+01 0. -1.
        -11    1    4    4    0    0 -0.13532777553E+02  0.90259583078E+01 -0.13540088660E+02  0.21164545651E+02  0.00000000000E+00 0.  1.
         12    1    4    4    0    0  0.83308448857E+02 -0.19298789042E+02 -0.20398346343E+03  0.22118316903E+03  0.00000000000E+00 0. -1.
         -5    1    5    5    0  501 -0.34343293965E+02 -0.11379015292E+03 -0.22298371857E+03  0.25272809399E+03  0.47000000000E+01 0.  1.
         11    1    6    6    0    0 -0.16550639000E+02 -0.31692725469E+02 -0.75679563096E+02  0.83700351070E+02  0.00000000000E+00 0. -1.
        -12    1    6    6    0    0 -0.50140098607E+02  0.43460660012E+02 -0.72909442373E+02  0.98583189460E+02  0.00000000000E+00 0.  1.
</event>
<event>
12    1  0.2609167E-002  0.1801132E+03  0.7818608E-02  0.1167694E+00
         -1   -1    0    0    0  501 -0.00000000000E+00  0.00000000000E+00  0.10199181185E+03  0.10199181185E+03  0.00000000000E+00 0. -1.
          1   -1    0    0  502    0  0.00000000000E+00 -0.00000000000E+00 -0.36371154652E+03  0.36371154652E+03  0.00000000000E+00 0.  1.
          6    2    1    2  502    0  0.20702780386E+02 -0.49681982112E+02 -0.21357664622E+03  0.27962251117E+03  0.17226973176E+03 0.  0.
         24    2    3    3    0    0  0.26128300481E+02  0.18691697380E+02 -0.18813702407E+03  0.20631725426E+03  0.78353059557E+02 0.  0.
         -6    2    1    2    0  501 -0.20702780386E+02  0.49681982112E+02 -0.48143088455E+02  0.18608084720E+03  0.17149758093E+03 0.  0.
        -24    2    5    5    0    0 -0.38395838410E+01 -0.28100104988E+02  0.16218574473E+02  0.83616540603E+02  0.76969639469E+02 0.  0.
          5    1    3    3  502    0 -0.54255200948E+01 -0.68373679492E+02 -0.25439622148E+02  0.73305256909E+02  0.47000000000E+01 0. -1.
        -13    1    4    4    0    0 -0.22287936292E+02 -0.43398603634E+01 -0.10473751386E+03  0.10717058039E+03  0.00000000000E+00 0.  1.
         14    1    4    4    0    0  0.48416236773E+02  0.23031557743E+02 -0.83399510206E+02  0.99146673862E+02  0.00000000000E+00 0. -1.
         -5    1    5    5    0  501 -0.16863196545E+02  0.77782087100E+02 -0.64361662928E+02  0.10246430660E+03  0.47000000000E+01 0.  1.
         13    1    6    6    0    0 -0.39190441594E+02 -0.17857350597E+02 -0.78381009163E+00  0.43074238716E+02  0.00000000000E+00 0. -1.
        -14    1    6    6    0    0  0.35350857753E+02 -0.10242754391E+02  0.17002384565E+02  0.40542301887E+02  0.00000000000E+00 0.  1.
</event>
<event>
12    1  0.2609167E-002  0.1975451E+03  0.7818608E-02  0.1151827E+00
          2   -1    0    0  502    0  0.00000000000E+00  0.00000000000E+00  0.60943765488E+03  0.60943765488E+03  0.00000000000E+00 0. -1.
         -2   -1    0    0    0  501 -0.00000000000E+00 -0.00000000000E+00 -0.64653953671E+02  0.64653953671E+02  0.00000000000E+00 0.  1.
          6    2    1    2  502    0 -0.94379600936E+02 -0.21368533024E+02  0.30579329811E+03  0.36419901669E+03  0.17253190809E+03 0.  0.
         24    2    3    3    0    0 -0.44118414486E+02  0.97207994809E+01  0.55614815922E+02  0.10709184757E+03  0.79591002177E+02 0.  0.
         -6    2    1    2    0  501  0.94379600936E+02  0.21368533024E+02  0.23899040309E+03  0.30989259186E+03  0.17190951818E+03 0.  0.
        -24    2    5    5    0    0  0.74096234357E+02 -0.51129587006E+01  0.25147891903E+03  0.27396575796E+03  0.79367471432E+02 0.  0.
          5    1    3    3  502    0 -0.50261186450E+02 -0.31089332505E+02  0.25017848219E+03  0.25710716911E+03  0.47000000000E+01 0. -1.
        -13    1    4    4    0    0 -0.40755503728E+02  0.41420909724E+02  0.26299606593E+02  0.63783792248E+02  0.00000000000E+00 0.  1.
         14    1    4    4    0    0 -0.33629107577E+01 -0.31700110243E+02  0.29315209329E+02  0.43308055327E+02  0.00000000000E+00 0. -1.
         -5    1    5    5    0  501  0.20283366579E+02  0.26481491724E+02 -0.12488515942E+02  0.35926833901E+02  0.47000000000E+01 0.  1.
         11    1    6    6    0    0  0.21107428768E+02  0.63265860562E+01  0.19289215145E+03  0.19414667479E+03  0.00000000000E+00 0. -1.
        -12    1    6    6    0    0  0.52988805589E+02 -0.11439544757E+02  0.58586767588E+02  0.79819083171E+02  0.00000000000E+00 0.  1.
</event>
<event>
12    1  0.2609167E-002  0.2134029E+03  0.7818608E-02  0.1138899E+00
         -1   -1    0    0    0  501 -0.00000000000E+00  0.00000000000E+00  0.16785900866E+03  0.16785900866E+03  0.00000000000E+00 0. -1.
          1   -1    0    0  502    0  0.00000000000E+00 -0.00000000000E+00 -0.27644970463E+03  0.27644970463E+03  0.00000000000E+00 0.  1.
          6    2    1    2  502    0  0.29388940608E+02  0.12031232713E+03 -0.24301900792E+02  0.21594462571E+03  0.17522195383E+03 0.  0.
         24    2    3    3    0    0  0.43838837443E+01  0.10459554240E+02 -0.54053875885E+02  0.99324924969E+02  0.82553004248E+02 0.  0.
         -6    2    1    2    0  501 -0.29388940608E+02 -0.12031232713E+03 -0.84288795179E+02  0.22836408758E+03  0.17235657694E+03 0.  0.
        -24    2    5    5    0    0 -0.49612391555E+02 -0.14243891565E+03 -0.40730767552E+02  0.17527957327E+03  0.79458789906E+02 0.  0.
          5    1    3    3  502    0  0.25005056863E+02  0.10985277289E+03  0.29751975093E+02  0.11661970074E+03  0.47000000000E+01 0. -1.
        -13    1    4    4    0    0  0.15473706532E+02 -0.32116966465E+02 -0.99149377292E+01  0.37003258221E+02  0.00000000000E+00 0.  1.
         14    1    4    4    0    0 -0.11089822788E+02  0.42576520705E+02 -0.44138938156E+02  0.62321666749E+02  0.00000000000E+00 0. -1.
         -5    1    5    5    0  501  0.20223450947E+02  0.22126588529E+02 -0.43558027626E+02  0.53084514303E+02  0.47000000000E+01 0.  1.
         11    1    6    6    0    0 -0.64748158766E+02 -0.81566055290E+02 -0.77954830753E+01  0.10443234650E+03  0.00000000000E+00 0. -1.
        -12    1    6    6    0    0  0.15135767211E+02 -0.60872860364E+02 -0.32935284477E+02  0.70847226774E+02  0.00000000000E+00 0.  1.
</event>
<event>
12    1  0.2609167E-002  0.2890460E+03  0.7818608E-02  0.1090848E+00
          1   -1    0    0  502    0  0.00000000000E+00  0.00000000000E+00  0.60801388641E+03  0.60801388641E+03  0.00000000000E+00 0.  1.
         -1   -1    0    0    0  501 -0.00000000000E+00 -0.00000000000E+00 -0.23214310136E+03  0.23214310136E+03  0.00000000000E+00 0. -1.
          6    2    1    2  502    0  0.21471230798E+03  0.91211481794E+02 -0.80687717119E+02  0.29941047204E+03  0.16945563864E+03 0.  0.
         24    2    3    3    0    0  0.29898283549E+02  0.49224840208E+02 -0.24039756798E+02  0.10154641996E+03  0.80104764201E+02 0.  0.
         -6    2    1    2    0  501 -0.21471230798E+03 -0.91211481794E+02  0.45655850217E+03  0.54074651573E+03  0.17187268182E+03 0.  0.
        -24    2    5    5    0    0 -0.11809352225E+03 -0.10016799388E+03  0.37656846913E+03  0.41490572643E+03  0.79769937245E+02 0.  0.
          5    1    3    3  502    0  0.18481402443E+03  0.41986641586E+02 -0.56647960321E+02  0.19786405208E+03  0.47000000000E+01 0. -1.
        -13    1    4    4    0    0  0.15761055186E+02  0.67141043264E+02 -0.33705345194E+02  0.76761844987E+02  0.00000000000E+00 0.  1.
         14    1    4    4    0    0  0.14137228363E+02 -0.17916203056E+02  0.96655883958E+01  0.24784574976E+02  0.00000000000E+00 0. -1.
         -5    1    5    5    0  501 -0.96618785723E+02  0.89565120906E+01  0.79990033046E+02  0.12584078929E+03  0.47000000000E+01 0.  1.
         11    1    6    6    0    0 -0.28606202989E+02 -0.27175740390E+02  0.20049428968E+03  0.20433990289E+03  0.00000000000E+00 0. -1.
        -12    1    6    6    0    0 -0.89487319264E+02 -0.72992253495E+02  0.17607417944E+03  0.21056582355E+03  0.00000000000E+00 0.  1.
</event>
<event>
12    1  0.2609167E-002  0.1867697E+03  0.7818608E-02  0.1161408E+00
          2   -1    0    0  502    0  0.00000000000E+00  0.00000000000E+00  0.15621941380E+04  0.15621941380E+04  0.00000000000E+00 0. -1.
         -2   -1    0    0    0  501 -0.00000000000E+00 -0.00000000000E+00 -0.30156616445E+02  0.30156616445E+02  0.00000000000E+00 0.  1.
          6    2    1    2  502    0  0.36524711670E+02  0.61452278259E+02  0.11718382162E+04  0.11866390166E+04  0.17261782558E+03 0.  0.
         24    2    3    3    0    0  0.45807564135E+02 -0.12024618100E+02  0.39355300875E+03  0.40482383397E+03  0.82191492785E+02 0.  0.
         -6    2    1    2    0  501 -0.36524711670E+02 -0.61452278259E+02  0.36019930536E+03  0.40571173785E+03  0.17247619424E+03 0.  0.
        -24    2    5    5    0    0  0.30860488020E+02 -0.24668915610E+02  0.96788045190E+02  0.13130079986E+03  0.79442112467E+02 0.  0.
          5    1    3    3  502    0 -0.92828524647E+01  0.73476896359E+02  0.77828520746E+03  0.78181518264E+03  0.47000000000E+01 0. -1.
        -11    1    4    4    0    0 -0.84946450135E+01 -0.21633067140E+02  0.34736317907E+02  0.41794262400E+02  0.00000000000E+00 0.  1.
         12    1    4    4    0    0  0.54302209148E+02  0.96084490401E+01  0.35881669084E+03  0.36302957157E+03  0.00000000000E+00 0. -1.
         -5    1    5    5    0  501 -0.67385199690E+02 -0.36783362649E+02  0.26341126017E+03  0.27441093799E+03  0.47000000000E+01 0.  1.
         11    1    6    6    0    0  0.25684997999E+02 -0.53307430030E+02  0.70919265271E+02  0.92363106299E+02  0.00000000000E+00 0. -1.
        -12    1    6    6    0    0  0.51754900214E+01  0.28638514420E+02  0.25868779918E+02  0.38937693558E+02  0.00000000000E+00 0.  1.
</event>
<event>
12    1  0.2609167E-002  0.2010658E+03  0.7818608E-02  0.1148843E+00
         -1   -1    0    0    0  501 -0.00000000000E+00  0.00000000000E+00  0.16215818223E+04  0.16215818223E+04  0.00000000000E+00 0. -1.
          1   -1    0    0  502    0  0.00000000000E+00 -0.00000000000E+00 -0.25035326308E+02  0.25035326308E+02  0.00000000000E+00 0.  1.
          6    2    1    2  502    0 -0.90883915349E+02  0.50656446677E+02  0.85156994403E+03  0.87499180472E+03  0.17208523207E+03 0.  0.
         24    2    3    3    0    0 -0.68351077447E+01  0.10329549574E+02  0.36321987804E+03  0.37780136068E+03  0.10320741272E+03 0.  0.
         -6    2    1    2    0  501  0.90883915349E+02 -0.50656446677E+02  0.74497655194E+03  0.77162534386E+03  0.17201641402E+03 0.  0.
        -24    2    5    5    0    0  0.43453897471E+02 -0.80421692926E+02  0.65075531915E+03  0.66191979620E+03  0.79369019762E+02 0.  0.
          5    1    3    3  502    0 -0.84048807605E+02  0.40326897103E+02  0.48835006599E+03  0.49719044404E+03  0.47000000000E+01 0. -1.
        -13    1    4    4    0    0 -0.38887873923E+02 -0.29338598108E+02  0.12442237750E+03  0.13361866673E+03  0.00000000000E+00 0.  1.
         14    1    4    4    0    0  0.32052766179E+02  0.39668147683E+02  0.23879750054E+03  0.24418269395E+03  0.00000000000E+00 0. -1.
         -5    1    5    5    0  501  0.47430017878E+02  0.29765246249E+02  0.94221232790E+02  0.10970554767E+03  0.47000000000E+01 0.  1.
         11    1    6    6    0    0  0.44151696419E+02 -0.77913946266E+01  0.17499480162E+03  0.18064677888E+03  0.00000000000E+00 0. -1.
        -12    1    6    6    0    0 -0.69779894798E+00 -0.72630298300E+02  0.47576051753E+03  0.48127301732E+03  0.00000000000E+00 0.  1.
</event>
<event>
12    1  0.3307944E-002  0.1817249E+03  0.7818608E-02  0.1166144E+00
          2   -1    0    0  502    0  0.00000000000E+00  0.00000000000E+00  0.89903607853E+03  0.89903607853E+03  0.00000000000E+00 0.  1.
         -2   -1    0    0    0  501 -0.00000000000E+00 -0.00000000000E+00 -0.43167168164E+02  0.43167168164E+02  0.00000000000E+00 0. -1.
          6    2    1    2  502    0 -0.44958138059E+02 -0.38533499380E+02  0.24554207151E+03  0.30532402064E+03  0.17153945302E+03 0.  0.
         24    2    3    3    0    0  0.37328654924E+01  0.35637742443E+02  0.15640038832E+03  0.17946490646E+03  0.80390224598E+02 0.  0.
         -6    2    1    2    0  501  0.44958138059E+02  0.38533499380E+02  0.61032683885E+03  0.63687922605E+03  0.17207624358E+03 0.  0.
        -24    2    5    5    0    0  0.93693418419E+02  0.20211355759E+02  0.48650768128E+03  0.50247646462E+03  0.81276798655E+02 0.  0.
          5    1    3    3  502    0 -0.48691003551E+02 -0.74171241823E+02  0.89141683191E+02  0.12585911418E+03  0.47000000000E+01 0. -1.
        -13    1    4    4    0    0  0.21110281650E+02 -0.71573124263E+01  0.11593286037E+03  0.11805633920E+03  0.00000000000E+00 0.  1.
         14    1    4    4    0    0 -0.17377416158E+02  0.42795054869E+02  0.40467527954E+02  0.61408567255E+02  0.00000000000E+00 0. -1.
         -5    1    5    5    0  501 -0.48735280360E+02  0.18322143621E+02  0.12381915757E+03  0.13440276143E+03  0.47000000000E+01 0.  1.
         13    1    6    6    0    0  0.99183390190E+01 -0.53929166716E+01  0.38416467874E+01  0.11925403522E+02  0.00000000000E+00 0. -1.
        -14    1    6    6    0    0  0.83775079400E+02  0.25604272431E+02  0.48266603449E+03  0.49055106110E+03  0.00000000000E+00 0.  1.
</event>
<event>
12    1  0.2609167E-002  0.2781952E+03  0.7818608E-02  0.1096679E+00
         -2   -1    0    0    0  501 -0.00000000000E+00  0.00000000000E+00  0.72430075100E+02  0.72430075100E+02  0.00000000000E+00 0.  1.
          2   -1    0    0  502    0  0.00000000000E+00 -0.00000000000E+00 -0.12482430749E+04  0.12482430749E+04  0.00000000000E+00 0. -1.
          6    2    1    2  502    0 -0.21473024643E+03  0.42438323325E+02 -0.83843469392E+03  0.88337599545E+03  0.17166922656E+03 0.  0.
         24    2    3    3    0    0 -0.54503268100E+02  0.43611102713E+02 -0.47230863501E+03  0.48369557185E+03  0.77546276555E+02 0.  0.
         -6    2    1    2    0  501  0.21473024643E+03 -0.42438323325E+02 -0.33737830587E+03  0.43729715454E+03  0.17173989076E+03 0.  0.
        -24    2    5    5    0    0  0.13791518021E+03  0.32034993299E+02 -0.25394610839E+03  0.30154056772E+03  0.79945295606E+02 0.  0.
          5    1    3    3  502    0 -0.16022697833E+03 -0.11727793872E+01 -0.36612605891E+03  0.39968042360E+03  0.47000000000E+01 0. -1.
        -11    1    4    4    0    0 -0.12142649854E+02 -0.98020205393E+01 -0.16100545953E+02  0.22422112570E+02  0.00000000000E+00 0.  1.
         12    1    4    4    0    0 -0.42360618246E+02  0.53413123252E+02 -0.45620808905E+03  0.46127345928E+03  0.00000000000E+00 0. -1.
         -5    1    5    5    0  501  0.76815066217E+02 -0.74473316625E+02 -0.83432197483E+02  0.13575658682E+03  0.47000000000E+01 0.  1.
         11    1    6    6    0    0  0.19915660176E+02 -0.17348399587E+02 -0.88823374057E+02  0.92667104559E+02  0.00000000000E+00 0. -1.
        -12    1    6    6    0    0  0.11799952004E+03  0.49383392886E+02 -0.16512273433E+03  0.20887346316E+03  0.00000000000E+00 0.  1.
</event>
<event>
12    1  0.2609167E-002  0.1831991E+03  0.7818608E-02  0.1164742E+00
          2   -1    0    0  502    0  0.00000000000E+00  0.00000000000E+00  0.38811619150E+02  0.38811619150E+02  0.00000000000E+00 0. -1.
         -2   -1    0    0    0  501 -0.00000000000E+00 -0.00000000000E+00 -0.88445029246E+03  0.88445029246E+03  0.00000000000E+00 0.  1.
          6    2    1    2  502    0  0.57984449700E+02 -0.18601177574E+02 -0.49291698954E+03  0.52604539942E+03  0.17334475318E+03 0.  0.
         24    2    3    3    0    0 -0.10324611874E+02 -0.14211737870E+02 -0.11522140315E+03  0.14216854280E+03  0.81408548152E+02 0.  0.
         -6    2    1    2    0  501 -0.57984449700E+02  0.18601177574E+02 -0.35272168377E+03  0.39721651219E+03  0.17222128539E+03 0.  0.
        -24    2    5    5    0    0  0.28825599807E+02  0.35605752023E+02 -0.15417913888E+03  0.17980820421E+03  0.80380959529E+02 0.  0.
          5    1    3    3  502    0  0.68309061574E+02 -0.43894397040E+01 -0.37769558639E+03  0.38387685662E+03  0.47000000000E+01 0. -1.
        -11    1    4    4    0    0 -0.28844829160E+02 -0.25988934934E+02 -0.11372491313E+03  0.12016989962E+03  0.00000000000E+00 0.  1.
         12    1    4    4    0    0  0.18520217286E+02  0.11777197064E+02 -0.14964900195E+01  0.21998643172E+02  0.00000000000E+00 0. -1.
         -5    1    5    5    0  501 -0.86810049507E+02 -0.17004574449E+02 -0.19854254489E+03  0.21740830798E+03  0.47000000000E+01 0.  1.
         11    1    6    6    0    0 -0.14982712117E+02  0.26552944099E+02 -0.15720931114E+02  0.34302888768E+02  0.00000000000E+00 0. -1.
        -12    1    6    6    0    0  0.43808311924E+02  0.90528079241E+01 -0.13845820776E+03  0.14550531544E+03  0.00000000000E+00 0.  1.
</event>
<event>
12    1  0.2609167E-002  0.2065630E+03  0.7818608E-02  0.1144317E+00
          4   -1    0    0  502    0  0.00000000000E+00  0.00000000000E+00  0.52994753044E+03  0.52994753044E+03  0.00000000000E+00 0. -1.
         -4   -1    0    0    0  501 -0.00000000000E+00 -0.00000000000E+00 -0.11372172935E+03  0.11372172935E+03  0.00000000000E+00 0.  1.
          6    2    1    2  502    0  0.11536059301E+03  0.22211570842E+01  0.38191364630E+03  0.43412214099E+03  0.17114613670E+03 0.  0.
         24    2    3    3    0    0 -0.35175399781E+01 -0.23698339129E+02  0.18409711754E+03  0.20183503451E+03  0.79193737777E+02 0.  0.
         -6    2    1    2    0  501 -0.11536059301E+03 -0.22211570842E+01  0.34312154785E+02  0.20954711880E+03  0.17152163443E+03 0.  0.
        -24    2    5    5    0    0 -0.11333564232E+03  0.51318620937E+02  0.46742987289E+01  0.14813782987E+03  0.80277013496E+02 0.  0.
          5    1    3    3  502    0  0.11887813298E+03  0.25919496213E+02  0.19781652876E+03  0.23228710648E+03  0.47000000000E+01 0. -1.
        -11    1    4    4    0    0  0.37918487747E+01  0.19827240525E+02  0.10576465372E+02  0.22789453783E+02  0.00000000000E+00 0.  1.
         12    1    4    4    0    0 -0.73093887528E+01 -0.43525579654E+02  0.17352065217E+03  0.17904558073E+03  0.00000000000E+00 0. -1.
         -5    1    5    5    0  501 -0.20249506893E+01 -0.53539778022E+02  0.29637856056E+02  0.61409288935E+02  0.47000000000E+01 0.  1.
         11    1    6    6    0    0 -0.10148633102E+02  0.21394940493E+01  0.29409644014E+02  0.31184921832E+02  0.00000000000E+00 0. -1.
        -12    1    6    6    0    0 -0.10318700921E+03  0.49179126888E+02 -0.24735345285E+02  0.11695290804E+03  0.00000000000E+00 0.  1.
</event>
<event>
12    1  0.2609167E-002  0.2183091E+03  0.7818608E-02  0.1135150E+00
          1   -1    0    0  502    0  0.00000000000E+00  0.00000000000E+00  0.72826568220E+03  0.72826568220E+03  0.00000000000E+00 0. -1.
         -1   -1    0    0    0  501 -0.00000000000E+00 -0.00000000000E+00 -0.79975591858E+02  0.79975591858E+02  0.00000000000E+00 0.  1.
          6    2    1    2  502    0  0.11114528217E+03  0.70451490104E+02  0.49935445560E+03  0.54598625686E+03  0.17728348526E+03 0.  0.
         24    2    3    3    0    0  0.49443619322E+02  0.48804222651E+02  0.11554812659E+03  0.15662127696E+03  0.79701513139E+02 0.  0.
         -6    2    1    2    0  501 -0.11114528217E+03 -0.70451490104E+02  0.14893563474E+03  0.26225501720E+03  0.17111161429E+03 0.  0.
        -24    2    5    5    0    0 -0.94686335640E+02 -0.96145755655E+02  0.16469687438E+03  0.22759093092E+03  0.80393177059E+02 0.  0.
          5    1    3    3  502    0  0.61701662848E+02  0.21647267453E+02  0.38380632901E+03  0.38936497991E+03  0.47000000000E+01 0. -1.
        -13    1    4    4    0    0  0.36098251729E+02 -0.16041420419E+02  0.41591706426E+02  0.57360970967E+02  0.00000000000E+00 0.  1.
         14    1    4    4    0    0  0.13345367594E+02  0.64845643070E+02  0.73956420164E+02  0.99260305989E+02  0.00000000000E+00 0. -1.
         -5    1    5    5    0  501 -0.16458946530E+02  0.25694265551E+02 -0.15761239636E+02  0.34664086285E+02  0.47000000000E+01 0.  1.
         11    1    6    6    0    0 -0.26255916321E+02 -0.22872599465E+02  0.10564231341E+03  0.11123321146E+03  0.00000000000E+00 0. -1.
        -12    1    6    6    0    0 -0.68430419319E+02 -0.73273156190E+02  0.59054560963E+02  0.11635771946E+03  0.00000000000E+00 0.  1.
</event>
<event>
12    1  0.2609167E-002  0.1832336E+03  0.7818608E-02  0.1164710E+00
          1   -1    0    0  502    0  0.00000000000E+00  0.00000000000E+00  0.25087453329E+04  0.25087453329E+04  0.00000000000E+00 0. -1.
         -1   -1    0    0    0  501 -0.00000000000E+00 -0.00000000000E+00 -0.14121759428E+02  0.14121759428E+02  0.00000000000E+00 0.  1.
          6    2    1    2  502    0 -0.43413842597E+02 -0.51618843108E+02  0.15501252334E+04  0.15611885369E+04  0.17283559180E+03 0.  0.
         24    2    3    3    0    0 -0.40367754270E+02 -0.89666129223E+02  0.79733198531E+03  0.80741361093E+03  0.80677592921E+02 0.  0.
         -6    2    1    2    0  501  0.43413842597E+02  0.51618843108E+02  0.94449834005E+03  0.96167855542E+03  0.16792636154E+03 0.  0.
        -24    2    5    5    0    0  0.19659871295E+02 -0.37222465821E+01  0.81254588172E+03  0.81655643918E+03  0.78315022914E+02 0.  0.
          5    1    3    3  502    0 -0.30460883262E+01  0.38047286115E+02  0.75279324809E+03  0.75377492596E+03  0.47000000000E+01 0. -1.
        -11    1    4    4    0    0 -0.60926717598E+02 -0.46482360148E+02  0.56808952595E+03  0.57323501657E+03  0.00000000000E+00 0.  1.
         12    1    4    4    0    0  0.20558963327E+02 -0.43183769075E+02  0.22924245935E+03  0.23417859436E+03  0.00000000000E+00 0. -1.
         -5    1    5    5    0  501  0.23753971302E+02  0.55341089691E+02  0.13195245833E+03  0.14512211623E+03  0.47000000000E+01 0.  1.
         11    1    6    6    0    0 -0.23585899051E+02  0.20507974079E+02  0.30996051926E+03  0.31153233401E+03  0.00000000000E+00 0. -1.
        -12    1    6    6    0    0  0.43245770346E+02 -0.24230220661E+02  0.50258536246E+03  0.50502410517E+03  0.00000000000E+00 0.  1.
</event>
<event>
12    1  0.2609167E-002  0.1998406E+03  0.7818608E-02  0.1149874E+00
         -2   -1    0    0    0  501 -0.00000000000E+00  0.00000000000E+00  0.24551859677E+02  0.24551859677E+02  0.00000000000E+00 0. -1.
          2   -1    0    0  502    0  0.00000000000E+00 -0.00000000000E+00 -0.16498643821E+04  0.16498643821E+04  0.00000000000E+00 0.  1.
          6    2    1    2  502    0 -0.93159765685E+02  0.37804293518E+02 -0.90990910916E+03  0.93148275775E+03  0.17209774694E+03 0.  0.
         24    2    3    3    0    0  0.19891594931E+02  0.18088454395E+02 -0.39222056310E+03  0.40120656069E+03  0.80042904047E+02 0.  0.
         -6    2    1    2    0  501  0.93159765685E+02 -0.37804293518E+02 -0.71540341328E+03  0.74293348405E+03  0.17332112229E+03 0.  0.
        -24    2    5    5    0    0  0.13284778960E+03 -0.41202090404E+02 -0.56811166839E+03  0.59027821103E+03  0.79569788267E+02 0.  0.
          5    1    3    3  502    0 -0.11305136062E+03  0.19715839123E+02 -0.51768854606E+03  0.53027619707E+03  0.47000000000E+01 0. -1.
        -13    1    4    4    0    0  0.79686712200E+01  0.45011961311E+02 -0.14001866178E+03  0.14729155451E+03  0.00000000000E+00 0.  1.
         14    1    4    4    0    0  0.11922923711E+02 -0.26923506916E+02 -0.25220190132E+03  0.25391500618E+03  0.00000000000E+00 0. -1.
         -5    1    5    5    0  501 -0.39688023911E+02  0.33977968865E+01 -0.14729174489E+03  0.15265527301E+03  0.47000000000E+01 0.  1.
         11    1    6    6    0    0  0.99123108241E+02  0.91140305920E+01 -0.36451693363E+03  0.37786379959E+03  0.00000000000E+00 0. -1.
        -12    1    6    6    0    0  0.33724681354E+02 -0.50316120996E+02 -0.20359473476E+03  0.21241441144E+03  0.00000000000E+00 0.  1.
</event>
<event>
12    1  0.2609167E-002  0.2121378E+03  0.7818608E-02  0.1139884E+00
          2   -1    0    0  502    0  0.00000000000E+00  0.00000000000E+00  0.18508271543E+04  0.18508271543E+04  0.00000000000E+00 0. -1.
         -2   -1    0    0    0  501 -0.00000000000E+00 -0.00000000000E+00 -0.26772896938E+02  0.26772896938E+02  0.00000000000E+00 0.  1.
          6    2    1    2  502    0 -0.10783388770E+03  0.43659477716E+02  0.60494257615E+03  0.63908980429E+03  0.17013512332E+03 0.  0.
         24    2    3    3    0    0 -0.14972633481E+02  0.12781538635E+02  0.12605526430E+03  0.15028329134E+03  0.79420340690E+02 0.  0.
         -6    2    1    2    0  501  0.10783388770E+03 -0.43659477716E+02  0.12191116812E+04  0.12385102469E+04  0.18477024431E+03 0.  0.
        -24    2    5    5    0    0  0.98442013635E+02 -0.85515379743E+02  0.11213734956E+04  0.11316693992E+04  0.78698170762E+02 0.  0.
          5    1    3    3  502    0 -0.92861254215E+02  0.30877939081E+02  0.47888731185E+03  0.48880651295E+03  0.47000000000E+01 0. -1.
        -13    1    4    4    0    0 -0.22947208250E+02 -0.30238873800E+02  0.62465422084E+02  0.73095094304E+02  0.00000000000E+00 0.  1.
         14    1    4    4    0    0  0.79745747692E+01  0.43020412435E+02  0.63589842218E+02  0.77188197039E+02  0.00000000000E+00 0. -1.
         -5    1    5    5    0  501  0.93918740613E+01  0.41855902027E+02  0.97738185568E+02  0.10684084776E+03  0.47000000000E+01 0.  1.
         13    1    6    6    0    0  0.83947873308E+02 -0.35680117672E+02  0.88370218912E+03  0.88839736340E+03  0.00000000000E+00 0. -1.
        -14    1    6    6    0    0  0.14494140327E+02 -0.49835262071E+02  0.23767130652E+03  0.24327203578E+03  0.00000000000E+00 0.  1.
</event>
<event>
12    1  0.2609167E-002  0.1988272E+03  0.7818608E-02  0.1150732E+00
          2   -1    0    0  502    0  0.00000000000E+00  0.00000000000E+00  0.72462652153E+03  0.72462652153E+03  0.00000000000E+00 0.  1.
         -2   -1    0    0    0  501 -0.00000000000E+00 -0.00000000000E+00 -0.56456002835E+02  0.56456002835E+02  0.00000000000E+00 0. -1.
          6    2    1    2  502    0  0.68394722957E+01 -0.10219188923E+03  0.40671817438E+03  0.45298337885E+03  0.17112658336E+03 0.  0.
         24    2    3    3    0    0  0.10358271165E+02 -0.11256262042E+03  0.41573476684E+03  0.43803938505E+03  0.79154716822E+02 0.  0.
         -6    2    1    2    0  501 -0.68394722957E+01  0.10219188923E+03  0.26145234431E+03  0.32809914551E+03  0.16971081385E+03 0.  0.
        -24    2    5    5    0    0 -0.65367261177E+02  0.90575484763E+02  0.16718417373E+03  0.21643437529E+03  0.80103018603E+02 0.  0.
          5    1    3    3  502    0 -0.35187988693E+01  0.10370731192E+02 -0.90165924617E+01  0.14943993796E+02  0.47000000000E+01 0. -1.
        -11    1    4    4    0    0  0.24361862788E+02 -0.45653723794E+02  0.29315692434E+03  0.29768900742E+03  0.00000000000E+00 0.  1.
         12    1    4    4    0    0 -0.14003591623E+02 -0.66908896626E+02  0.12257784251E+03  0.14035037763E+03  0.00000000000E+00 0. -1.
         -5    1    5    5    0  501  0.58527788881E+02  0.11616404464E+02  0.94268170580E+02  0.11166477022E+03  0.47000000000E+01 0.  1.
         13    1    6    6    0    0 -0.62267872305E+02  0.47396828952E+02  0.15126921209E+03  0.17031183706E+03  0.00000000000E+00 0. -1.
        -14    1    6    6    0    0 -0.30993888723E+01  0.43178655811E+02  0.15914961636E+02  0.46122538232E+02  0.00000000000E+00 0.  1.
</event>
<event>
12    1  0.2609167E-002  0.1848941E+03  0.7818608E-02  0.1163149E+00
         -2   -1    0    0    0  501 -0.00000000000E+00  0.00000000000E+00  0.65114983202E+02  0.65114983202E+02  0.00000000000E+00 0. -1.
          2   -1    0    0  502    0  0.00000000000E+00 -0.00000000000E+00 -0.91572824873E+03  0.91572824873E+03  0.00000000000E+00 0.  1.
          6    2    1    2  502    0  0.51557774507E+02 -0.45106472608E+02 -0.10450849695E+03  0.21208751452E+03  0.17136595314E+03 0.  0.
         24    2    3    3    0    0 -0.46049030961E+01  0.88915775488E+01 -0.10553390830E+03  0.13402870819E+03  0.82012337702E+02 0.  0.
         -6    2    1    2    0  501 -0.51557774507E+02  0.45106472608E+02 -0.74610476858E+03  0.76875571742E+03  0.17210528573E+03 0.  0.
        -24    2    5    5    0    0 -0.88135828640E+00 -0.25469703195E+02 -0.19029172465E+03  0.20617298967E+03  0.75145715958E+02 0.  0.
          5    1    3    3  502    0  0.56162677603E+02 -0.53998050157E+02  0.10254113490E+01  0.78058806324E+02  0.47000000000E+01 0. -1.
        -13    1    4    4    0    0  0.11707976506E+02 -0.33576923503E+02 -0.33643333526E+02  0.48952634215E+02  0.00000000000E+00 0.  1.
         14    1    4    4    0    0 -0.16312879602E+02  0.42468501052E+02 -0.71890574774E+02  0.85076073980E+02  0.00000000000E+00 0. -1.
         -5    1    5    5    0  501 -0.50676416221E+02  0.70576175804E+02 -0.55581304393E+03  0.56258272774E+03  0.47000000000E+01 0.  1.
         13    1    6    6    0    0 -0.14109677002E+02 -0.31911584310E+02 -0.32456675862E+02  0.47653625322E+02  0.00000000000E+00 0. -1.
        -14    1    6    6    0    0  0.13228318716E+02  0.64418811144E+01 -0.15783504879E+03  0.15851936435E+03  0.00000000000E+00 0.  1.
</event>
<event>
12    1  0.2609167E-002  0.2301577E+03  0.7818608E-02  0.1126529E+00
          2   -1    0    0  502    0  0.00000000000E+00  0.00000000000E+00  0.61590908163E+03  0.61590908163E+03  0.00000000000E+00 0. -1.
         -2   -1    0    0    0  501 -0.00000000000E+00 -0.00000000000E+00 -0.87489517606E+02  0.87489517606E+02  0.00000000000E+00 0.  1.
          6    2    1    2  502    0 -0.61482661410E+01 -0.15315985263E+03  0.21812853388E+03  0.31690574923E+03  0.17132850016E+03 0.  0.
         24    2    3    3    0    0 -0.24311426467E+02 -0.28053111963E+02  0.38019749878E+02  0.96808359357E+02  0.80921780213E+02 0.  0.
         -6    2    1    2    0  501  0.61482661410E+01  0.15315985263E+03  0.31029103015E+03  0.38649285001E+03  0.17204783661E+03 0.  0.
        -24    2    5    5    0    0  0.11174067767E+02  0.18795159025E+02  0.18409033782E+03  0.20202649992E+03  0.80295307452E+02 0.  0.
          5    1    3    3  502    0  0.18163160326E+02 -0.12510674067E+03  0.18010878401E+03  0.22009738988E+03  0.47000000000E+01 0. -1.
        -11    1    4    4    0    0  0.90872728364E+01 -0.44361186726E+02  0.24275570467E+01  0.45347397374E+02  0.00000000000E+00 0.  1.
         12    1    4    4    0    0 -0.33398699303E+02  0.16308074763E+02  0.35592192831E+02  0.51460961983E+02  0.00000000000E+00 0. -1.
         -5    1    5    5    0  501 -0.50258016263E+01  0.13436469361E+03  0.12620069233E+03  0.18446635009E+03  0.47000000000E+01 0.  1.
         11    1    6    6    0    0  0.49356207938E+01  0.49384198293E+02  0.13517342838E+03  0.14399658028E+03  0.00000000000E+00 0. -1.
        -12    1    6    6    0    0  0.62384469735E+01 -0.30589039269E+02  0.48916909445E+02  0.58029919642E+02  0.00000000000E+00 0.  1.
</event>
<event>
12    1  0.2609167E-002  0.2395981E+03  0.7818608E-02  0.1120061E+00
         -2   -1    0    0    0  501 -0.00000000000E+00  0.00000000000E+00  0.29149067717E+03  0.29149067717E+03  0.00000000000E+00 0.  1.
          2   -1    0    0  502    0  0.00000000000E+00 -0.00000000000E+00 -0.21932744920E+03  0.21932744920E+03  0.00000000000E+00 0. -1.
          6    2    1    2  502    0 -0.44906651312E+02  0.16026364375E+03 -0.45487081984E+02  0.24405659504E+03  0.17260794917E+03 0.  0.
         24    2    3    3    0    0 -0.27038117960E+02  0.17636309214E+03 -0.72738287413E+02  0.20740697131E+03  0.76758017180E+02 0.  0.
         -6    2    1    2    0  501  0.44906651312E+02 -0.16026364375E+03  0.11765030995E+03  0.26676153132E+03  0.17210193583E+03 0.  0.
        -24    2    5    5    0    0  0.41028811860E+02 -0.16996372779E+02  0.51591066658E+02  0.10888036653E+03  0.84976796631E+02 0.  0.
          5    1    3    3  502    0 -0.17868533352E+02 -0.16099448385E+02  0.27251205429E+02  0.36649623734E+02  0.47000000000E+01 0. -1.
        -13    1    4    4    0    0  0.15224999821E+02  0.32910498167E+02  0.84616379251E+01  0.37235746609E+02  0.00000000000E+00 0.  1.
         14    1    4    4    0    0 -0.42263117782E+02  0.14345259397E+03 -0.81199925338E+02  0.17017122470E+03  0.00000000000E+00 0. -1.
         -5    1    5    5    0  501  0.38778394524E+01 -0.14326727097E+03  0.66059243296E+02  0.15788116479E+03  0.47000000000E+01 0.  1.
         11    1    6    6    0    0  0.17504122666E+02 -0.20360189726E+02 -0.19979248725E+02  0.33467925177E+02  0.00000000000E+00 0. -1.
        -12    1    6    6    0    0  0.23524689194E+02  0.33638169471E+01  0.71570315384E+02  0.75412441349E+02  0.00000000000E+00 0.  1.
</event>
<event>
12    1  0.2609167E-002  0.2009855E+03  0.7818608E-02  0.1148910E+00
          1   -1    0    0  502    0  0.00000000000E+00  0.00000000000E+00  0.56674307113E+03  0.56674307113E+03  0.00000000000E+00 0. -1.
         -1   -1    0    0    0  501 -0.00000000000E+00 -0.00000000000E+00 -0.76972507042E+02  0.76972507042E+02  0.00000000000E+00 0.  1.
          6    2    1    2  502    0 -0.95777315337E+01  0.10345129244E+03  0.33287174165E+03  0.38903984105E+03  0.17249492365E+03 0.  0.
         24    2    3    3    0    0 -0.53701567652E+02  0.34144287123E+02  0.25888795601E+03  0.27837790343E+03  0.80134840374E+02 0.  0.
         -6    2    1    2    0  501  0.95777315337E+01 -0.10345129244E+03  0.15689882244E+03  0.25467573713E+03  0.17160590826E+03 0.  0.
        -24    2    5    5    0    0  0.63415454284E+02 -0.51930695164E+02  0.13309953962E+03  0.17630885511E+03  0.81553712368E+02 0.  0.
          5    1    3    3  502    0  0.44123836118E+02  0.69307005312E+02  0.73983785637E+02  0.11066193761E+03  0.47000000000E+01 0. -1.
        -13    1    4    4    0    0 -0.13663759759E+02  0.22403740263E+02  0.13580707498E+02  0.29547614534E+02  0.00000000000E+00 0.  1.
         14    1    4    4    0    0 -0.40037807892E+02  0.11740546861E+02  0.24530724851E+03  0.24883028890E+03  0.00000000000E+00 0. -1.
         -5    1    5    5    0  501 -0.53837722750E+02 -0.51520597271E+02  0.23799282821E+02  0.78366882016E+02  0.47000000000E+01 0.  1.
         13    1    6    6    0    0  0.55862013537E+00 -0.50826133663E+02  0.75689749363E+02  0.91173165340E+02  0.00000000000E+00 0. -1.
        -14    1    6    6    0    0  0.62856834148E+02 -0.11045615010E+01  0.57409790260E+02  0.85135689772E+02  0.00000000000E+00 0.  1.
</event>
<event>
12    1  0.2609167E-002  0.2307897E+03  0.7818608E-02  0.1126085E+00
          2   -1    0    0  502    0  0.00000000000E+00  0.00000000000E+00  0.67872175693E+03  0.67872175693E+03  0.00000000000E+00 0.  1.
         -2   -1    0    0    0  501 -0.00000000000E+00 -0.00000000000E+00 -0.19093918289E+03  0.19093918289E+03  0.00000000000E+00 0. -1.
          6    2    1    2  502    0 -0.10968110750E+03 -0.10614259323E+03  0.57735759146E+03  0.62156485620E+03  0.17235105630E+03 0.  0.
         24    2    3    3    0    0 -0.32885948933E+02 -0.11911828884E+03  0.40957922985E+03  0.43653098449E+03  0.86795751738E+02 0.  0.
         -6    2    1    2    0  501  0.10968110750E+03  0.10614259323E+03 -0.89575017420E+02  0.24809608362E+03  0.17387290624E+03 0.  0.
        -24    2    5    5    0    0  0.13922849301E+03  0.93014652727E+02 -0.42789277704E+02  0.19103132871E+03  0.81398693925E+02 0.  0.
          5    1    3    3  502    0 -0.76795158566E+02  0.12975695615E+02  0.16777836161E+03  0.18503387171E+03  0.47000000000E+01 0. -1.
        -11    1    4    4    0    0 -0.11202907059E+02 -0.54664873759E+02  0.31579302269E+03  0.32068518321E+03  0.00000000000E+00 0.  1.
         12    1    4    4    0    0 -0.21683041873E+02 -0.64453415083E+02  0.93786207161E+02  0.11584580128E+03  0.00000000000E+00 0. -1.
         -5    1    5    5    0  501 -0.29547385514E+02  0.13127940500E+02 -0.46785739716E+02  0.57064754913E+02  0.47000000000E+01 0.  1.
         13    1    6    6    0    0  0.48814518012E+02  0.55364338694E+02 -0.55391783143E+02  0.92283892460E+02  0.00000000000E+00 0. -1.
        -14    1    6    6    0    0  0.90413975000E+02  0.37650314033E+02  0.12602505439E+02  0.98747436247E+02  0.00000000000E+00 0.  1.
</event>
<event>
12    1  0.2609167E-002  0.1741322E+03  0.7818608E-02  0.1173606E+00
          2   -1    0    0  502    0  0.00000000000E+00  0.00000000000E+00  0.32317997734E+03  0.32317997734E+03  0.00000000000E+00 0. -1.
         -2   -1    0    0    0  501 -0.00000000000E+00 -0.00000000000E+00 -0.12338605109E+03  0.12338605109E+03  0.00000000000E+00 0.  1.
          6    2    1    2  502    0  0.21170945006E+02  0.21817418096E+02 -0.91063781971E+01  0.17502612719E+03  0.17212498491E+03 0.  0.
         24    2    3    3    0    0  0.25181427049E+02 -0.50109092217E+02 -0.27110059655E+02  0.10062364471E+03  0.79026180154E+02 0.  0.
         -6    2    1    2    0  501 -0.21170945006E+02 -0.21817418096E+02  0.20890030444E+03  0.27153990125E+03  0.17079336090E+03 0.  0.
        -24    2    5    5    0    0 -0.58341375440E+02  0.11380446911E+02  0.19533088781E+03  0.21967509422E+03  0.81054059929E+02 0.  0.
          5    1    3    3  502    0 -0.40104820438E+01  0.71926510313E+02  0.18003681458E+02  0.74402482472E+02  0.47000000000E+01 0. -1.
        -13    1    4    4    0    0  0.28552376631E+02  0.13337996481E+02 -0.18400975056E+02  0.36492961574E+02  0.00000000000E+00 0.  1.
         14    1    4    4    0    0 -0.33709495813E+01 -0.63447088698E+02 -0.87090845985E+01  0.64130683139E+02  0.00000000000E+00 0. -1.
         -5    1    5    5    0  501  0.37170430434E+02 -0.33197865007E+02  0.13569416636E+02  0.51864807023E+02  0.47000000000E+01 0.  1.
         11    1    6    6    0    0  0.20294233339E+02 -0.26410458844E+01  0.45223693784E+02  0.49638830663E+02  0.00000000000E+00 0. -1.
        -12    1    6    6    0    0 -0.78635608779E+02  0.14021492796E+02  0.15010719402E+03  0.17003626356E+03  0.00000000000E+00 0.  1.
</event>
<event>
12    1  0.2609167E-002  0.2083212E+03  0.7818608E-02  0.1142902E+00
          2   -1    0    0  502    0  0.00000000000E+00  0.00000000000E+00  0.13413636644E+04  0.13413636644E+04  0.00000000000E+00 0.  1.
         -2   -1    0    0    0  501 -0.00000000000E+00 -0.00000000000E+00 -0.36160249687E+02  0.36160249687E+02  0.00000000000E+00 0. -1.
          6    2    1    2  502    0 -0.68887893947E+02  0.94221976630E+02  0.42897755360E+03  0.47686237194E+03  0.17248958655E+03 0.  0.
         24    2    3    3    0    0 -0.11351288387E+03  0.64715466739E+02  0.29121003393E+03  0.32899755758E+03  0.79767428137E+02 0.  0.
         -6    2    1    2    0  501  0.68887893947E+02 -0.94221976630E+02  0.87622586113E+03  0.90066154216E+03  0.17261555841E+03 0.  0.
        -24    2    5    5    0    0 -0.65159231131E+01  0.65210737071E+01  0.18554707297E+03  0.19859731701E+03  0.70201113818E+02 0.  0.
          5    1    3    3  502    0  0.44624989918E+02  0.29506509891E+02  0.13776751967E+03  0.14786481437E+03  0.47000000000E+01 0. -1.
        -13    1    4    4    0    0 -0.49345149696E+02  0.56886456448E+01  0.18516857027E+03  0.19171516347E+03  0.00000000000E+00 0.  1.
         14    1    4    4    0    0 -0.64167734170E+02  0.59026821094E+02  0.10604146365E+03  0.13728239410E+03  0.00000000000E+00 0. -1.
         -5    1    5    5    0  501  0.75403817060E+02 -0.10074305034E+03  0.69067878816E+03  0.70206422515E+03  0.47000000000E+01 0.  1.
         11    1    6    6    0    0  0.17975961720E+02 -0.11471275870E+02  0.15136221914E+03  0.15285694866E+03  0.00000000000E+00 0. -1.
        -12    1    6    6    0    0 -0.24491884834E+02  0.17992349577E+02  0.34184853828E+02  0.45740368355E+02  0.00000000000E+00 0.  1.
</event>
<event>
12    1  0.2609167E-002  0.1952768E+03  0.7818608E-02  0.1153786E+00
         -2   -1    0    0    0  501 -0.00000000000E+00  0.00000000000E+00  0.52645191355E+02  0.52645191355E+02  0.00000000000E+00 0.  1.
          2   -1    0    0  502    0  0.00000000000E+00 -0.00000000000E+00 -0.72747871649E+03  0.72747871649E+03  0.00000000000E+00 0. -1.
          6    2    1    2  502    0 -0.79670902171E+02  0.47311271814E+02 -0.36140959239E+03  0.41036191653E+03  0.17086310303E+03 0.  0.
         24    2    3    3    0    0 -0.42884356119E+02  0.66232296680E+02 -0.11606966122E+03  0.16151451956E+03  0.79931149437E+02 0.  0.
         -6    2    1    2    0  501  0.79670902171E+02 -0.47311271814E+02 -0.31342393274E+03  0.36976199131E+03  0.17292645693E+03 0.  0.
        -24    2    5    5    0    0  0.36346254244E+02 -0.65172439225E+02 -0.30265548650E+03  0.32144950996E+03  0.78491699646E+02 0.  0.
          5    1    3    3  502    0 -0.36786546053E+02 -0.18921024866E+02 -0.24533993117E+03  0.24884739697E+03  0.47000000000E+01 0. -1.
        -13    1    4    4    0    0 -0.73157018569E+01  0.59747346384E+02 -0.10923108427E+03  0.12471846161E+03  0.00000000000E+00 0.  1.
         14    1    4    4    0    0 -0.35568654262E+02  0.64849502958E+01 -0.68385769430E+01  0.36796057954E+02  0.00000000000E+00 0. -1.
         -5    1    5    5    0  501  0.43324647928E+02  0.17861167411E+02 -0.10768446238E+02  0.48312481345E+02  0.47000000000E+01 0.  1.
         11    1    6    6    0    0 -0.19846447006E+02  0.20424650667E+01 -0.42776562239E+02  0.47200502109E+02  0.00000000000E+00 0. -1.
        -12    1    6    6    0    0  0.56192701250E+02 -0.67214904291E+02 -0.25987892426E+03  0.27424900785E+03  0.00000000000E+00 0.  1.
</event>
<event>
12    1  0.2609167E-002  0.1827021E+03  0.7818608E-02  0.1165213E+00
          1   -1    0    0  502    0  0.00000000000E+00  0.00000000000E+00  0.10973423921E+04  0.10973423921E+04  0.00000000000E+00 0.  1.
         -1   -1    0    0    0  501 -0.00000000000E+00 -0.00000000000E+00 -0.50784844215E+02  0.50784844215E+02  0.00000000000E+00 0. -1.
          6    2    1    2  502    0 -0.58811319211E+02 -0.18837773867E+02  0.15995611253E+03  0.24292150865E+03  0.17207925046E+03 0.  0.
         24    2    3    3    0    0 -0.31504972630E+02 -0.52960015069E+01  0.65261981621E+01  0.86422803272E+02  0.80035609141E+02 0.  0.
         -6    2    1    2    0  501  0.58811319211E+02  0.18837773867E+02  0.88660143540E+03  0.90520572771E+03  0.17181871619E+03 0.  0.
        -24    2    5    5    0    0  0.81941462968E+02  0.34599140678E+02  0.38997965746E+03  0.40777361721E+03  0.79269702715E+02 0.  0.
          5    1    3    3  502    0 -0.27306346581E+02 -0.13541772360E+02  0.15342991437E+03  0.15649870538E+03  0.47000000000E+01 0. -1.
        -13    1    4    4    0    0  0.87516246291E+01 -0.31757328201E+02  0.17079732662E+02  0.37105742088E+02  0.00000000000E+00 0.  1.
         14    1    4    4    0    0 -0.40256597259E+02  0.26461326694E+02 -0.10553534500E+02  0.49317061183E+02  0.00000000000E+00 0. -1.
         -5    1    5    5    0  501 -0.23130143757E+02 -0.15761366810E+02  0.49662177794E+03  0.49743211050E+03  0.47000000000E+01 0.  1.
         13    1    6    6    0    0  0.62971452658E+02  0.58170015402E+02  0.24208349782E+03  0.25681428010E+03  0.00000000000E+00 0. -1.
        -14    1    6    6    0    0  0.18970010310E+02 -0.23570874725E+02  0.14789615963E+03  0.15095933711E+03  0.00000000000E+00 0.  1.
</event>
<event>
12    1  0.2609167E-002  0.1831162E+03  0.7818608E-02  0.1164821E+00
          1   -1    0    0  502    0  0.00000000000E+00  0.00000000000E+00  0.12810623786E+03  0.12810623786E+03  0.00000000000E+00 0.  1.
         -1   -1    0    0    0  501 -0.00000000000E+00 -0.00000000000E+00 -0.36835911253E+03  0.36835911253E+03  0.00000000000E+00 0. -1.
          6    2    1    2  502    0  0.15160616007E+02  0.61708850389E+02  0.13286647653E+02  0.18387696980E+03  0.17203598031E+03 0.  0.
         24    2    3    3    0    0  0.48464312756E+02  0.96510545977E+02  0.16101589390E+02  0.13539699321E+03  0.80062534896E+02 0.  0.
         -6    2    1    2    0  501 -0.15160616007E+02 -0.61708850389E+02 -0.25353952231E+03  0.31258838059E+03  0.17143914317E+03 0.  0.
        -24    2    5    5    0    0 -0.36868486659E+02  0.25135696948E+02 -0.14917100673E+03  0.17500900679E+03  0.79906662039E+02 0.  0.
          5    1    3    3  502    0 -0.33303696749E+02 -0.34801695588E+02 -0.28149417377E+01  0.48479976587E+02  0.47000000000E+01 0. -1.
        -13    1    4    4    0    0  0.37081809998E+02  0.22021708286E+02 -0.24706166772E+02  0.49703228720E+02  0.00000000000E+00 0.  1.
         14    1    4    4    0    0  0.11382502758E+02  0.74488837691E+02  0.40807756162E+02  0.85693764491E+02  0.00000000000E+00 0. -1.
         -5    1    5    5    0  501  0.21707870651E+02 -0.86844547338E+02 -0.10436851558E+03  0.13757937380E+03  0.47000000000E+01 0.  1.
         11    1    6    6    0    0 -0.13186246025E+02 -0.54253861944E+01 -0.13189205186E+03  0.13266056401E+03  0.00000000000E+00 0. -1.
        -12    1    6    6    0    0 -0.23682240633E+02  0.30561083143E+02 -0.17278954870E+02  0.42348442777E+02  0.00000000000E+00 0.  1.
</event>
<event>
12    1  0.2609167E-002  0.2029555E+03  0.7818608E-02  0.1147269E+00
         -1   -1    0    0    0  501 -0.00000000000E+00  0.00000000000E+00  0.15009602526E+03  0.15009602526E+03  0.00000000000E+00 0.  1.
          1   -1    0    0  502    0  0.00000000000E+00 -0.00000000000E+00 -0.27607142221E+03  0.27607142221E+03  0.00000000000E+00 0. -1.
          6    2    1    2  502    0  0.32358268256E+02 -0.10186148640E+03 -0.46612438895E+02  0.20840202780E+03  0.17273061626E+03 0.  0.
         24    2    3    3    0    0  0.65651500208E+02 -0.24996888376E+02 -0.61600245747E+02  0.12317685501E+03  0.80268196851E+02 0.  0.
         -6    2    1    2    0  501 -0.32358268256E+02  0.10186148640E+03 -0.79362958059E+02  0.21776541967E+03  0.17233826898E+03 0.  0.
        -24    2    5    5    0    0 -0.53157420493E+02  0.12916997310E+03 -0.86081588575E+02  0.18247252838E+03  0.79847294358E+02 0.  0.
          5    1    3    3  502    0 -0.33293231952E+02 -0.76864598022E+02  0.14987806851E+02  0.85225172790E+02  0.47000000000E+01 0. -1.
        -11    1    4    4    0    0  0.76817054963E+01  0.19948778562E+02  0.72511770124E+01  0.22573035541E+02  0.00000000000E+00 0.  1.
         12    1    4    4    0    0  0.57969794712E+02 -0.44945666939E+02 -0.68851422759E+02  0.10060381947E+03  0.00000000000E+00 0. -1.
         -5    1    5    5    0  501  0.20799152237E+02 -0.27308486702E+02  0.67186305162E+01  0.35292891292E+02  0.47000000000E+01 0.  1.
         13    1    6    6    0    0  0.31606070865E+01 -0.33336007761E+00 -0.30569897192E+02  0.30734657642E+02  0.00000000000E+00 0. -1.
        -14    1    6    6    0    0 -0.56318027580E+02  0.12950333318E+03 -0.55511691383E+02  0.15173787073E+03  0.00000000000E+00 0.  1.
</event>
<event>
12    1  0.2609167E-002  0.2178360E+03  0.7818608E-02  0.1135507E+00
          1   -1    0    0  502    0  0.00000000000E+00  0.00000000000E+00  0.21183617105E+03  0.21183617105E+03  0.00000000000E+00 0.  1.
         -1   -1    0    0    0  501 -0.00000000000E+00 -0.00000000000E+00 -0.24486177110E+03  0.24486177110E+03  0.00000000000E+00 0. -1.
          6    2    1    2  502    0 -0.10239103553E+03  0.86577651709E+02 -0.83175894000E+02  0.23345493346E+03  0.17205627766E+03 0.  0.
         24    2    3    3    0    0 -0.65092441948E+02 -0.17565380710E+02 -0.20193019318E+02  0.10607405268E+03  0.79362321194E+02 0.  0.
         -6    2    1    2    0  501  0.10239103553E+03 -0.86577651709E+02  0.50150293947E+02  0.22324300869E+03  0.17129732927E+03 0.  0.
        -24    2    5    5    0    0  0.11884168811E+03 -0.36080221384E+02 -0.26922214240E+00  0.14986159386E+03  0.83864746021E+02 0.  0.
          5    1    3    3  502    0 -0.37298593578E+02  0.10414303242E+03 -0.62982874682E+02  0.12738088078E+03  0.47000000000E+01 0. -1.
        -13    1    4    4    0    0 -0.10488084162E+02 -0.41838818490E+02 -0.43395841410E+00  0.43135541749E+02  0.00000000000E+00 0.  1.
         14    1    4    4    0    0 -0.54604357787E+02  0.24273437780E+02 -0.19759060904E+02  0.62938510936E+02  0.00000000000E+00 0. -1.
         -5    1    5    5    0  501 -0.16450652589E+02 -0.50497430325E+02  0.50419516090E+02  0.73381414832E+02  0.47000000000E+01 0.  1.
         11    1    6    6    0    0  0.74782759311E+02 -0.47523181949E+02 -0.32182094669E+02  0.94268770704E+02  0.00000000000E+00 0. -1.
        -12    1    6    6    0    0  0.44058928804E+02  0.11442960565E+02  0.31912872526E+02  0.55592823158E+02  0.00000000000E+00 0.  1.
</event>
<event>
12    1  0.2609167E-002  0.1950773E+03  0.7818608E-02  0.1153960E+00
          2   -1    0    0  502    0  0.00000000000E+00  0.00000000000E+00  0.11545452020E+04  0.11545452020E+04  0.00000000000E+00 0. -1.
         -2   -1    0    0    0  501 -0.00000000000E+00 -0.00000000000E+00 -0.32963694835E+02  0.32963694835E+02  0.00000000000E+00 0.  1.
          6    2    1    2  502    0  0.75040651106E+02 -0.60789728237E+02  0.55669985055E+03  0.59000479383E+03  0.16989538771E+03 0.  0.
         24    2    3    3    0    0 -0.99968026857E+01 -0.73839096062E+02  0.31620303292E+03  0.33453960278E+03  0.79876402219E+02 0.  0.
         -6    2    1    2    0  501 -0.75040651106E+02  0.60789728237E+02  0.56488165660E+03  0.59750410299E+03  0.16909576206E+03 0.  0.
        -24    2    5    5    0    0 -0.26179648649E+02 -0.10170103082E+02  0.41668353945E+03  0.42601804773E+03  0.84127284165E+02 0.  0.
          5    1    3    3  502    0  0.85037453791E+02  0.13049367825E+02  0.24049681763E+03  0.25546519105E+03  0.47000000000E+01 0. -1.
        -11    1    4    4    0    0  0.18934475535E+02  0.35508098831E+01  0.12171091597E+03  0.12322609172E+03  0.00000000000E+00 0.  1.
         12    1    4    4    0    0 -0.28931278220E+02 -0.77389905945E+02  0.19449211695E+03  0.21131351106E+03  0.00000000000E+00 0. -1.
         -5    1    5    5    0  501 -0.48861002456E+02  0.70959831319E+02  0.14819811715E+03  0.17148605526E+03  0.47000000000E+01 0.  1.
         11    1    6    6    0    0 -0.49076409645E+02  0.22323984688E+01  0.36346739150E+03  0.36677243935E+03  0.00000000000E+00 0. -1.
        -12    1    6    6    0    0  0.22896760996E+02 -0.12402501551E+02  0.53216147951E+02  0.59245608374E+02  0.00000000000E+00 0.  1.
</event>
<event>
12    1  0.2609167E-002  0.2068330E+03  0.7818608E-02  0.1144099E+00
          2   -1    0    0  502    0  0.00000000000E+00  0.00000000000E+00  0.12732838350E+04  0.12732838350E+04  0.00000000000E+00 0. -1.
         -2   -1    0    0    0  501 -0.00000000000E+00 -0.00000000000E+00 -0.33837576924E+02  0.33837576924E+02  0.00000000000E+00 0.  1.
          6    2    1    2  502    0  0.39878206092E+02  0.10898589952E+03  0.56368516654E+03  0.60031077036E+03  0.17077428500E+03 0.  0.
         24    2    3    3    0    0  0.45905764856E+02  0.30160096722E+02  0.27106915167E+03  0.29716713970E+03  0.10868695068E+03 0.  0.
         -6    2    1    2    0  501 -0.39878206092E+02 -0.10898589952E+03  0.67576109157E+03  0.70681064159E+03  0.17163925128E+03 0.  0.
        -24    2    5    5    0    0  0.12259567275E+02  0.56633958930E+01  0.30503068906E+03  0.31524209115E+03  0.78431395012E+02 0.  0.
          5    1    3    3  502    0 -0.60275587633E+01  0.78825802802E+02  0.29261601487E+03  0.30314363066E+03  0.47000000000E+01 0. -1.
        -13    1    4    4    0    0  0.10118878031E+02  0.25790551768E+02  0.43758929520E+01  0.28048042574E+02  0.00000000000E+00 0.  1.
         14    1    4    4    0    0  0.35786886825E+02  0.43695449538E+01  0.26669325872E+03  0.26911909713E+03  0.00000000000E+00 0. -1.
         -5    1    5    5    0  501 -0.52137773367E+02 -0.11464929542E+03  0.37073040251E+03  0.39156855044E+03  0.47000000000E+01 0.  1.
         13    1    6    6    0    0 -0.29120881482E+02 -0.15625641626E+02  0.12766842845E+03  0.13187651056E+03  0.00000000000E+00 0. -1.
        -14    1    6    6    0    0  0.41380448757E+02  0.21289037519E+02  0.17736226061E+03  0.18336558060E+03  0.00000000000E+00 0.  1.
</event>
<event>
12    1  0.2609167E-002  0.2695362E+03  0.7818608E-02  0.1101545E+00
         -1   -1    0    0    0  501 -0.00000000000E+00  0.00000000000E+00  0.21008926254E+03  0.21008926254E+03  0.00000000000E+00 0.  1.
          1   -1    0    0  502    0  0.00000000000E+00 -0.00000000000E+00 -0.40904193584E+03  0.40904193584E+03  0.00000000000E+00 0. -1.
          6    2    1    2  502    0 -0.20541801968E+03 -0.29709064593E+02 -0.22116111473E+03  0.34857424439E+03  0.17179224037E+03 0.  0.
         24    2    3    3    0    0 -0.18556304767E+03  0.30367055365E+02 -0.15105249368E+03  0.25401913427E+03  0.79706097742E+02 0.  0.
         -6    2    1    2    0  501  0.20541801968E+03  0.29709064593E+02  0.22208441430E+02  0.27055695399E+03  0.17212977417E+03 0.  0.
        -24    2    5    5    0    0  0.58167821408E+02  0.31507209721E+02  0.57286092473E+02  0.11910271727E+03  0.80793323732E+02 0.  0.
          5    1    3    3  502    0 -0.19854972009E+02 -0.60076119958E+02 -0.70108621055E+02  0.94555110115E+02  0.47000000000E+01 0. -1.
        -13    1    4    4    0    0 -0.85935653934E+01  0.18971923457E+02 -0.39101496936E+02  0.44302486482E+02  0.00000000000E+00 0.  1.
         14    1    4    4    0    0 -0.17696948228E+03  0.11395131908E+02 -0.11195099674E+03  0.20971664779E+03  0.00000000000E+00 0. -1.
         -5    1    5    5    0  501  0.14725019827E+03 -0.17981451281E+01 -0.35077651042E+02  0.15145423672E+03  0.47000000000E+01 0.  1.
         11    1    6    6    0    0 -0.26263243323E+00 -0.10304134079E+02 -0.14333497926E+02  0.17654838365E+02  0.00000000000E+00 0. -1.
        -12    1    6    6    0    0  0.58430453841E+02  0.41811343799E+02  0.71619590398E+02  0.10144787891E+03  0.00000000000E+00 0.  1.
</event>
<event>
12    1  0.2609167E-002  0.2121017E+03  0.7818608E-02  0.1139912E+00
         -2   -1    0    0    0  501 -0.00000000000E+00  0.00000000000E+00  0.17471322446E+03  0.17471322446E+03  0.00000000000E+00 0.  1.
          2   -1    0    0  502    0  0.00000000000E+00 -0.00000000000E+00 -0.32539461545E+03  0.32539461545E+03  0.00000000000E+00 0. -1.
          6    2    1    2  502    0  0.28207036735E+02  0.11929125148E+03 -0.18970153851E+03  0.28491414959E+03  0.17367601828E+03 0.  0.
         24    2    3    3    0    0 -0.15167819412E+02  0.14196639309E+03 -0.14932839479E+03  0.22129323380E+03  0.79291905790E+02 0.  0.
         -6    2    1    2    0  501 -0.28207036735E+02 -0.11929125148E+03  0.39020147516E+02  0.21519369032E+03  0.17251003693E+03 0.  0.
        -24    2    5    5    0    0 -0.58656343220E+02 -0.13435554267E+03  0.57107973504E+02  0.17642059935E+03  0.79818098154E+02 0.  0.
          5    1    3    3  502    0  0.43374856147E+02 -0.22675141610E+02 -0.40373143721E+02  0.63620915796E+02  0.47000000000E+01 0. -1.
        -13    1    4    4    0    0  0.69928525472E+01  0.14345899689E+02  0.77124212156E+01  0.17725300157E+02  0.00000000000E+00 0.  1.
         14    1    4    4    0    0 -0.22160671959E+02  0.12762049340E+03 -0.15704081600E+03  0.20356793364E+03  0.00000000000E+00 0. -1.
         -5    1    5    5    0  501  0.30449306485E+02  0.15064291189E+02 -0.18087825988E+02  0.38773090971E+02  0.47000000000E+01 0.  1.
         13    1    6    6    0    0 -0.61158927101E+02 -0.88026784540E+02  0.59429746997E+01  0.10735198232E+03  0.00000000000E+00 0. -1.
        -14    1    6    6    0    0  0.25025838803E+01 -0.46328758127E+02  0.51164998805E+02  0.69068617029E+02  0.00000000000E+00 0.  1.
</event>
<event>
12    1  0.2609167E-002  0.2011775E+03  0.7818608E-02  0.1148749E+00
         -1   -1    0    0    0  501 -0.00000000000E+00  0.00000000000E+00  0.27501411826E+03  0.27501411826E+03  0.00000000000E+00 0.  1.
          1   -1    0    0  502    0  0.00000000000E+00 -0.00000000000E+00 -0.14908914286E+03  0.14908914286E+03  0.00000000000E+00 0. -1.
          6    2    1    2  502    0 -0.23809115483E+02 -0.10222470948E+03  0.87134313893E+02  0.21947937810E+03  0.17193616125E+03 0.  0.
         24    2    3    3    0    0 -0.66388571328E+02 -0.75844171317E+02  0.11829234362E+02  0.12891510337E+03  0.79494605889E+02 0.  0.
         -6    2    1    2    0  501  0.23809115483E+02  0.10222470948E+03  0.38790661509E+02  0.20462388302E+03  0.17131682017E+03 0.  0.
        -24    2    5    5    0    0  0.42125137004E+02  0.11285666683E+03 -0.18392170681E+02  0.14346440740E+03  0.75714000231E+02 0.  0.
          5    1    3    3  502    0  0.42579455844E+02 -0.26380538166E+02  0.75305079532E+02  0.90564274729E+02  0.47000000000E+01 0. -1.
        -11    1    4    4    0    0 -0.21167661508E+02 -0.34380068519E+02  0.43935565065E+02  0.59669027834E+02  0.00000000000E+00 0.  1.
         12    1    4    4    0    0 -0.45220909820E+02 -0.41464102798E+02 -0.32106330704E+02  0.69246075535E+02  0.00000000000E+00 0. -1.
         -5    1    5    5    0  501 -0.18316021521E+02 -0.10631957349E+02  0.57182832190E+02  0.61159475624E+02  0.47000000000E+01 0.  1.
         11    1    6    6    0    0  0.30077101822E+01  0.31812135073E+02 -0.39722709075E+02  0.50979916385E+02  0.00000000000E+00 0. -1.
        -12    1    6    6    0    0  0.39117426822E+02  0.81044531760E+02  0.21330538394E+02  0.92484491010E+02  0.00000000000E+00 0.  1.
</event>
<event>
12    1  0.2609167E-002  0.3948447E+03  0.7818608E-02  0.1045580E+00
          1   -1    0    0  502    0  0.00000000000E+00  0.00000000000E+00  0.30702425114E+03  0.30702425114E+03  0.00000000000E+00 0. -1.
         -1   -1    0    0    0  501 -0.00000000000E+00 -0.00000000000E+00 -0.53051270600E+03  0.53051270600E+03  0.00000000000E+00 0.  1.
          6    2    1    2  502    0  0.23118784098E+03  0.27103143531E+03 -0.19826027456E+03  0.44130244348E+03  0.16892262551E+03 0.  0.
         24    2    3    3    0    0  0.71179466975E+02  0.14165722532E+03 -0.14330947703E+03  0.22827182101E+03  0.80231739697E+02 0.  0.
         -6    2    1    2    0  501 -0.23118784098E+03 -0.27103143531E+03 -0.25228180300E+02  0.39623451367E+03  0.17163761825E+03 0.  0.
        -24    2    5    5    0    0 -0.22905341065E+03 -0.19474955783E+03 -0.54233336657E+02  0.31446123124E+03  0.74510106303E+02 0.  0.
          5    1    3    3  502    0  0.16000837400E+03  0.12937420999E+03 -0.54950797527E+02  0.21303062247E+03  0.47000000000E+01 0. -1.
        -11    1    4    4    0    0  0.38487347715E+02  0.11392738046E+03 -0.59573327062E+02  0.13420024310E+03  0.00000000000E+00 0.  1.
         12    1    4    4    0    0  0.32692119260E+02  0.27729844867E+02 -0.83736149968E+02  0.94071577905E+02  0.00000000000E+00 0. -1.
         -5    1    5    5    0  501 -0.21344303291E+01 -0.76281877478E+02  0.29005156358E+02  0.81773282432E+02  0.47000000000E+01 0.  1.
         13    1    6    6    0    0 -0.74981797167E+02 -0.11205802216E+03 -0.26654423289E+02  0.13743990875E+03  0.00000000000E+00 0. -1.
        -14    1    6    6    0    0 -0.15407161348E+03 -0.82691535675E+02 -0.27578913368E+02  0.17702132249E+03  0.00000000000E+00 0.  1.
</event>
<event>
12    1  0.2609167E-002  0.1803496E+03  0.7818608E-02  0.1167465E+00
         -2   -1    0    0    0  501 -0.00000000000E+00  0.00000000000E+00  0.16034258197E+03  0.16034258197E+03  0.00000000000E+00 0. -1.
          2   -1    0    0  502    0  0.00000000000E+00 -0.00000000000E+00 -0.20338306976E+03  0.20338306976E+03  0.00000000000E+00 0.  1.
          6    2    1    2  502    0  0.47413337638E+02  0.28772395990E+02 -0.30761470296E+02  0.18263990338E+03  0.17127519054E+03 0.  0.
         24    2    3    3    0    0  0.50156837846E+02  0.77648372671E+02  0.40087220725E+01  0.12241163620E+03  0.80147118877E+02 0.  0.
         -6    2    1    2    0  501 -0.47413337638E+02 -0.28772395990E+02 -0.12279017500E+02  0.18108574835E+03  0.17194591774E+03 0.  0.
        -24    2    5    5    0    0  0.31436112923E+02 -0.32956806576E+02  0.20798383612E+02  0.95348069289E+02  0.81143707464E+02 0.  0.
          5    1    3    3  502    0 -0.27435002082E+01 -0.48875976681E+02 -0.34770192368E+02  0.60228267178E+02  0.47000000000E+01 0. -1.
        -13    1    4    4    0    0  0.31484914306E+02 -0.78177558155E+01 -0.97043964845E+01  0.33861371000E+02  0.00000000000E+00 0.  1.
         14    1    4    4    0    0  0.18671923540E+02  0.85466128487E+02  0.13713118557E+02  0.88550265204E+02  0.00000000000E+00 0. -1.
         -5    1    5    5    0  501 -0.78849450561E+02  0.41844105860E+01 -0.33077401112E+02  0.85737679057E+02  0.47000000000E+01 0.  1.
         13    1    6    6    0    0 -0.32603165843E+01 -0.52840638766E+02  0.94398769874E+01  0.53776147565E+02  0.00000000000E+00 0. -1.
        -14    1    6    6    0    0  0.34696429508E+02  0.19883832190E+02  0.11358506625E+02  0.41571921724E+02  0.00000000000E+00 0.  1.
</event>
<event>
12    1  0.2609167E-002  0.2094745E+03  0.7818608E-02  0.1141983E+00
         -1   -1    0    0    0  501 -0.00000000000E+00  0.00000000000E+00  0.21014989856E+03  0.21014989856E+03  0.00000000000E+00 0.  1.
          1   -1    0    0  502    0  0.00000000000E+00 -0.00000000000E+00 -0.20935694094E+03  0.20935694094E+03  0.00000000000E+00 0. -1.
          6    2    1    2  502    0 -0.19907738027E+02  0.12186230334E+03 -0.10130967437E+02  0.20728148086E+03  0.16618133709E+03 0.  0.
         24    2    3    3    0    0 -0.69457284770E+02  0.50761894877E+02 -0.20184379212E+02  0.11991108109E+03  0.81056608774E+02 0.  0.
         -6    2    1    2    0  501  0.19907738027E+02 -0.12186230334E+03  0.10923925056E+02  0.21222535864E+03  0.17226006995E+03 0.  0.
        -24    2    5    5    0    0 -0.38294025778E+02 -0.10736641894E+03 -0.25695361866E+02  0.14179356078E+03  0.80319250065E+02 0.  0.
          5    1    3    3  502    0  0.49549546743E+02  0.71100408465E+02  0.10053411775E+02  0.87370399762E+02  0.47000000000E+01 0. -1.
        -13    1    4    4    0    0 -0.29721419396E+02  0.55989510358E+02  0.16583220679E+02  0.65522448437E+02  0.00000000000E+00 0.  1.
         14    1    4    4    0    0 -0.39735865374E+02 -0.52276154810E+01 -0.36767599891E+02  0.54388632658E+02  0.00000000000E+00 0. -1.
         -5    1    5    5    0  501  0.58201763805E+02 -0.14495884404E+02  0.36619286922E+02  0.70431797857E+02  0.47000000000E+01 0.  1.
         13    1    6    6    0    0 -0.58780503887E+01 -0.10334785315E+03 -0.60821712136E+01  0.10369340882E+03  0.00000000000E+00 0. -1.
        -14    1    6    6    0    0 -0.32415975389E+02 -0.40185657893E+01 -0.19613190652E+02  0.38100151955E+02  0.00000000000E+00 0.  1.
</event>
<event>
12    1  0.2609167E-002  0.1857016E+03  0.7818608E-02  0.1162396E+00
         -1   -1    0    0    0  501 -0.00000000000E+00  0.00000000000E+00  0.49452255287E+02  0.49452255287E+02  0.00000000000E+00 0. -1.
          1   -1    0    0  502    0  0.00000000000E+00 -0.00000000000E+00 -0.98645059508E+03  0.98645059508E+03  0.00000000000E+00 0.  1.
          6    2    1    2  502    0  0.13167726597E+01 -0.70566598375E+02 -0.74946568761E+03  0.77220574868E+03  0.17210904302E+03 0.  0.
         24    2    3    3    0    0  0.14129274248E+02 -0.10763337125E+03 -0.41947012597E+03  0.43985462930E+03  0.75712147898E+02 0.  0.
         -6    2    1    2    0  501 -0.13167726597E+01  0.70566598375E+02 -0.18753265219E+03  0.26369710169E+03  0.17142428973E+03 0.  0.
        -24    2    5    5    0    0 -0.92298970780E+01  0.20716293644E+02 -0.15044074870E+02  0.83913705005E+02  0.79377766891E+02 0.  0.
          5    1    3    3  502    0 -0.12812501588E+02  0.37066772876E+02 -0.32999556164E+03  0.33235111938E+03  0.47000000000E+01 0. -1.
        -11    1    4    4    0    0  0.26438831660E+02 -0.87289147561E+02 -0.39628023326E+03  0.40664041901E+03  0.00000000000E+00 0.  1.
         12    1    4    4    0    0 -0.12309557412E+02 -0.20344223689E+02 -0.23189892706E+02  0.33214210286E+02  0.00000000000E+00 0. -1.
         -5    1    5    5    0  501  0.79131244183E+01  0.49850304730E+02 -0.17248857732E+03  0.17978339669E+03  0.47000000000E+01 0.  1.
         13    1    6    6    0    0  0.33640234033E+02  0.15340223636E+02  0.29935132405E+01  0.37093785579E+02  0.00000000000E+00 0. -1.
        -14    1    6    6    0    0 -0.42870131111E+02  0.53760700080E+01 -0.18037588111E+02  0.46819919426E+02  0.00000000000E+00 0.  1.
</event>
<event>
12    1  0.2609167E-002  0.2271398E+03  0.7818608E-02  0.1128669E+00
         -2   -1    0    0    0  501 -0.00000000000E+00  0.00000000000E+00  0.10535359615E+03  0.10535359615E+03  0.00000000000E+00 0. -1.
          2   -1    0    0  502    0  0.00000000000E+00 -0.00000000000E+00 -0.53834937063E+03  0.53834937063E+03  0.00000000000E+00 0.  1.
          6    2    1    2  502    0  0.49667963425E+02  0.14031923377E+03 -0.31313910168E+03  0.38677434148E+03  0.17141149399E+03 0.  0.
         24    2    3    3    0    0  0.22427012377E+02  0.20320865079E+01 -0.84422432697E+02  0.11807598052E+03  0.79420965584E+02 0.  0.
         -6    2    1    2    0  501 -0.49667963425E+02 -0.14031923377E+03 -0.11985667280E+03  0.25692862530E+03  0.17172740762E+03 0.  0.
        -24    2    5    5    0    0 -0.31107046430E+02 -0.12704031367E+03 -0.20414059619E+02  0.15479263422E+03  0.80231765172E+02 0.  0.
          5    1    3    3  502    0  0.27240951048E+02  0.13828714726E+03 -0.22871666898E+03  0.26869836096E+03  0.47000000000E+01 0. -1.
        -13    1    4    4    0    0 -0.22375413626E+02 -0.12969741590E+02 -0.60458395591E+01  0.26559847662E+02  0.00000000000E+00 0.  1.
         14    1    4    4    0    0  0.44802426003E+02  0.15001828097E+02 -0.78376593138E+02  0.91516132862E+02  0.00000000000E+00 0. -1.
         -5    1    5    5    0  501 -0.18560916995E+02 -0.13278920099E+02 -0.99442613180E+02  0.10213599108E+03  0.47000000000E+01 0.  1.
         13    1    6    6    0    0 -0.50417041404E+02 -0.46152595545E+02 -0.21408970949E+02  0.71626002098E+02  0.00000000000E+00 0. -1.
        -14    1    6    6    0    0  0.19309994973E+02 -0.80887718128E+02  0.99491132999E+00  0.83166632121E+02  0.00000000000E+00 0.  1.
</event>
<event>
12    1  0.2609167E-002  0.2180437E+03  0.7818608E-02  0.1135350E+00
          1   -1    0    0  502    0  0.00000000000E+00  0.00000000000E+00  0.44347529480E+02  0.44347529480E+02  0.00000000000E+00 0. -1.
         -1   -1    0    0    0  501 -0.00000000000E+00 -0.00000000000E+00 -0.15579287819E+04  0.15579287819E+04  0.00000000000E+00 0.  1.
          6    2    1    2  502    0  0.90819966982E+02 -0.93306698075E+02 -0.12080344794E+04  0.12278453853E+04  0.17692535290E+03 0.  0.
         24    2    3    3    0    0  0.32099444807E+02  0.37722216628E+00 -0.25434292024E+03  0.26775452677E+03  0.77276444511E+02 0.  0.
         -6    2    1    2    0  501 -0.90819966982E+02  0.93306698075E+02 -0.30554677299E+03  0.37443092604E+03  0.17287360002E+03 0.  0.
        -24    2    5    5    0    0 -0.82819015431E+02  0.13071607270E+03 -0.22305844835E+03  0.28338209169E+03  0.81269044103E+02 0.  0.
          5    1    3    3  502    0  0.58720522175E+02 -0.93683920242E+02 -0.95369155917E+03  0.96009085855E+03  0.47000000000E+01 0. -1.
        -13    1    4    4    0    0 -0.13579421149E+02  0.48294334514E+01 -0.17867856868E+03  0.17925890498E+03  0.00000000000E+00 0.  1.
         14    1    4    4    0    0  0.45678865956E+02 -0.44522112851E+01 -0.75664351552E+02  0.88495621790E+02  0.00000000000E+00 0. -1.
         -5    1    5    5    0  501 -0.80009515517E+01 -0.37409374624E+02 -0.82488324634E+02  0.91048834349E+02  0.47000000000E+01 0.  1.
         11    1    6    6    0    0 -0.71309034711E+02  0.37123029267E+02 -0.98004780217E+02  0.12675975181E+03  0.00000000000E+00 0. -1.
        -12    1    6    6    0    0 -0.11509980720E+02  0.93593043432E+02 -0.12505366813E+03  0.15662233988E+03  0.00000000000E+00 0.  1.
</event>
<event>
12    1  0.2609167E-002  0.2744772E+03  0.7818608E-02  0.1098744E+00
         -1   -1    0    0    0  501 -0.00000000000E+00  0.00000000000E+00  0.16447902310E+03  0.16447902310E+03  0.00000000000E+00 0. -1.
          1   -1    0    0  502    0  0.00000000000E+00 -0.00000000000E+00 -0.45857255545E+03  0.45857255545E+03  0.00000000000E+00 0.  1.
          6    2    1    2  502    0 -0.94721857351E+02  0.18632390694E+03 -0.13549791278E+03  0.30399984606E+03  0.17426242704E+03 0.  0.
         24    2    3    3    0    0 -0.83792957123E+02  0.14323009202E+03 -0.16681775456E+03  0.24941468110E+03  0.82724851064E+02 0.  0.
         -6    2    1    2    0  501  0.94721857351E+02 -0.18632390694E+03 -0.15859561958E+03  0.31905173250E+03  0.18152853468E+03 0.  0.
        -24    2    5    5    0    0 -0.13859008122E+01 -0.24983121611E+02 -0.23060404973E+02  0.87406670847E+02  0.80511283338E+02 0.  0.
          5    1    3    3  502    0 -0.10928900228E+02  0.43093814919E+02  0.31319841788E+02  0.54585164964E+02  0.47000000000E+01 0. -1.
        -13    1    4    4    0    0 -0.71498613575E+02  0.42613172960E+02 -0.63645871543E+02  0.10477944081E+03  0.00000000000E+00 0.  1.
         14    1    4    4    0    0 -0.12294343548E+02  0.10061691906E+03 -0.10317188302E+03  0.14463524028E+03  0.00000000000E+00 0. -1.
         -5    1    5    5    0  501  0.96107758163E+02 -0.16134078533E+03 -0.13553521460E+03  0.23164506165E+03  0.47000000000E+01 0.  1.
         11    1    6    6    0    0 -0.17148806224E+02 -0.42863161517E+02  0.94208291084E+01  0.47117769379E+02  0.00000000000E+00 0. -1.
        -12    1    6    6    0    0  0.15762905412E+02  0.17880039906E+02 -0.32481234081E+02  0.40288901469E+02  0.00000000000E+00 0.  1.
</event>
<event>
12    1  0.2609167E-002  0.2324010E+03  0.7818608E-02  0.1124961E+00
          1   -1    0    0  502    0  0.00000000000E+00  0.00000000000E+00  0.34025113913E+03  0.34025113913E+03  0.00000000000E+00 0. -1.
         -1   -1    0    0    0  501 -0.00000000000E+00 -0.00000000000E+00 -0.15875753189E+03  0.15875753189E+03  0.00000000000E+00 0.  1.
          6    2    1    2  502    0  0.11922953402E+03 -0.10479029268E+03  0.93729379232E+02  0.25088639057E+03  0.17018254088E+03 0.  0.
         24    2    3    3    0    0  0.38053859045E+02 -0.52781829679E+02 -0.14619529749E+02  0.10577971771E+03  0.82107248748E+02 0.  0.
         -6    2    1    2    0  501 -0.11922953402E+03  0.10479029268E+03  0.87764228013E+02  0.24812228044E+03  0.16930865043E+03 0.  0.
        -24    2    5    5    0    0 -0.70784386781E+02  0.12437061660E+03  0.10275661159E+03  0.19355871255E+03  0.80172154114E+02 0.  0.
          5    1    3    3  502    0  0.81175674974E+02 -0.52008463002E+02  0.10834890898E+03  0.14510667286E+03  0.47000000000E+01 0. -1.
        -11    1    4    4    0    0  0.57175898663E+02 -0.57307902796E+02  0.55176773584E+00  0.80954206552E+02  0.00000000000E+00 0.  1.
         12    1    4    4    0    0 -0.19122039619E+02  0.45260731168E+01 -0.15171297485E+02  0.24825511161E+02  0.00000000000E+00 0. -1.
         -5    1    5    5    0  501 -0.48445147237E+02 -0.19580323914E+02 -0.14992383579E+02  0.54563567889E+02  0.47000000000E+01 0.  1.
         13    1    6    6    0    0 -0.54789621903E+02  0.75158107113E+02  0.18729214506E+02  0.94875851559E+02  0.00000000000E+00 0. -1.
        -14    1    6    6    0    0 -0.15994764879E+02  0.49212509483E+02  0.84027397086E+02  0.98682860995E+02  0.00000000000E+00 0.  1.
</event>
<event>
12    1  0.2609167E-002  0.2458504E+03  0.7818608E-02  0.1115956E+00
          1   -1    0    0  502    0  0.00000000000E+00  0.00000000000E+00  0.19091944058E+03  0.19091944058E+03  0.00000000000E+00 0.  1.
         -1   -1    0    0    0  501 -0.00000000000E+00 -0.00000000000E+00 -0.32119738006E+03  0.32119738006E+03  0.00000000000E+00 0. -1.
          6    2    1    2  502    0 -0.66644665062E+02  0.16121802068E+03 -0.34779195905E+02  0.24943199532E+03  0.17485412849E+03 0.  0.
         24    2    3    3    0    0 -0.17787836668E+02  0.61685648136E+02 -0.79858100643E+02  0.12964935669E+03  0.79436220539E+02 0.  0.
         -6    2    1    2    0  501  0.66644665062E+02 -0.16121802068E+03 -0.95498743575E+02  0.26268482531E+03  0.17161161340E+03 0.  0.
        -24    2    5    5    0    0 -0.30568273385E+01 -0.51616900062E+02 -0.94092724493E+02  0.13270494005E+03  0.77996870108E+02 0.  0.
          5    1    3    3  502    0 -0.48856828394E+02  0.99532372540E+02  0.45078904738E+02  0.11978263863E+03  0.47000000000E+01 0. -1.
        -13    1    4    4    0    0  0.56711637939E+01 -0.17237205357E+02 -0.62042178187E+01  0.19177478094E+02  0.00000000000E+00 0.  1.
         14    1    4    4    0    0 -0.23459000462E+02  0.78922853493E+02 -0.73653882824E+02  0.11047187860E+03  0.00000000000E+00 0. -1.
         -5    1    5    5    0  501  0.69701492401E+02 -0.10960112061E+03 -0.14060190816E+01  0.12997988526E+03  0.47000000000E+01 0.  1.
         11    1    6    6    0    0  0.32433012718E+01 -0.57316634158E+02 -0.10452395434E+03  0.11925171942E+03  0.00000000000E+00 0. -1.
        -12    1    6    6    0    0 -0.63001286103E+01  0.56997340960E+01  0.10431229846E+02  0.13453220632E+02  0.00000000000E+00 0.  1.
</event>
<event>
12    1  0.2609167E-002  0.1824309E+03  0.7818608E-02  0.1165471E+00
          2   -1    0    0  502    0  0.00000000000E+00  0.00000000000E+00  0.55151275545E+03  0.55151275545E+03  0.00000000000E+00 0. -1.
         -2   -1    0    0    0  501 -0.00000000000E+00 -0.00000000000E+00 -0.10415593544E+03  0.10415593544E+03  0.00000000000E+00 0.  1.
          6    2    1    2  502    0 -0.55553529869E+02 -0.21924559998E+02  0.10931209387E+02  0.18257890541E+03  0.17218793323E+03 0.  0.
         24    2    3    3    0    0 -0.40461861406E+02  0.18744582807E+02  0.65786506252E+02  0.11248660036E+03  0.79604329293E+02 0.  0.
         -6    2    1    2    0  501  0.55553529869E+02  0.21924559998E+02  0.43642561063E+03  0.47308978548E+03  0.17256810394E+03 0.  0.
        -24    2    5    5    0    0  0.91777522997E+02 -0.22481949985E+02  0.27161435549E+03  0.29853619592E+03  0.80130832793E+02 0.  0.
          5    1    3    3  502    0 -0.15091668463E+02 -0.40669142805E+02 -0.54855296865E+02  0.70092305053E+02  0.47000000000E+01 0. -1.
        -11    1    4    4    0    0 -0.50990950596E+02 -0.77674684307E+01  0.14134423078E+02  0.53480767798E+02  0.00000000000E+00 0.  1.
         12    1    4    4    0    0  0.10529089189E+02  0.26512051237E+02  0.51652083173E+02  0.59005832560E+02  0.00000000000E+00 0. -1.
         -5    1    5    5    0  501 -0.36223993127E+02  0.44406509983E+02  0.16481125513E+03  0.17455358955E+03  0.47000000000E+01 0.  1.
         11    1    6    6    0    0  0.46731850401E+02 -0.44239782775E+02  0.20729229845E+03  0.21705096456E+03  0.00000000000E+00 0. -1.
        -12    1    6    6    0    0  0.45045672596E+02  0.21757832790E+02  0.64322057043E+02  0.81485231359E+02  0.00000000000E+00 0.  1.
</event>
<event>
12    1  0.2609167E-002  0.2261967E+03  0.7818608E-02  0.1129346E+00
         -2   -1    0    0    0  501 -0.00000000000E+00  0.00000000000E+00  0.16926181928E+03  0.16926181928E+03  0.00000000000E+00 0. -1.
          2   -1    0    0  502    0  0.00000000000E+00 -0.00000000000E+00 -0.31674202376E+03  0.31674202376E+03  0.00000000000E+00 0.  1.
          6    2    1    2  502    0 -0.29114098789E+02 -0.14385270392E+03 -0.21863315760E+02  0.22738554769E+03  0.17229321388E+03 0.  0.
         24    2    3    3    0    0 -0.47091096570E+02 -0.16088316625E+03 -0.47159108488E+02  0.19167593797E+03  0.80091941698E+02 0.  0.
         -6    2    1    2    0  501  0.29114098789E+02  0.14385270392E+03 -0.12561688871E+03  0.25861829535E+03  0.17193774683E+03 0.  0.
        -24    2    5    5    0    0  0.26465957248E+01  0.71952302155E+02 -0.83404606697E+01  0.11845393802E+03  0.93689027601E+02 0.  0.
          5    1    3    3  502    0  0.17976997781E+02  0.17030462335E+02  0.25295792728E+02  0.35709609719E+02  0.47000000000E+01 0. -1.
        -13    1    4    4    0    0 -0.15185324147E+02 -0.13689098594E+03 -0.59294921962E+02  0.14995207192E+03  0.00000000000E+00 0.  1.
         14    1    4    4    0    0 -0.31905772423E+02 -0.23992180309E+02  0.12135813475E+02  0.41723866055E+02  0.00000000000E+00 0. -1.
         -5    1    5    5    0  501  0.26467503064E+02  0.71900401763E+02 -0.11727642804E+03  0.14016435733E+03  0.47000000000E+01 0.  1.
         11    1    6    6    0    0  0.25723890175E+02 -0.77844329960E+01  0.16832379132E+02  0.31711904863E+02  0.00000000000E+00 0. -1.
        -12    1    6    6    0    0 -0.23077294450E+02  0.79736735151E+02 -0.25172839802E+02  0.86742033152E+02  0.00000000000E+00 0.  1.
</event>
<event>
12    1  0.2609167E-002  0.2666482E+03  0.7818608E-02  0.1103213E+00
         -1   -1    0    0    0  501 -0.00000000000E+00  0.00000000000E+00  0.17606468026E+03  0.17606468026E+03  0.00000000000E+00 0.  1.
          1   -1    0    0  502    0  0.00000000000E+00 -0.00000000000E+00 -0.43081530977E+03  0.43081530977E+03  0.00000000000E+00 0. -1.
          6    2    1    2  502    0  0.84721331020E+02  0.18599602625E+03 -0.51292737920E+02  0.27121107153E+03  0.17074037204E+03 0.  0.
         24    2    3    3    0    0  0.52664406013E+02  0.47276253164E+02  0.26181129125E+02  0.10905339530E+03  0.78731237317E+02 0.  0.
         -6    2    1    2    0  501 -0.84721331020E+02 -0.18599602625E+03 -0.20345789159E+03  0.33566891850E+03  0.17177393133E+03 0.  0.
        -24    2    5    5    0    0 -0.85689330038E+02 -0.59048941777E+02 -0.62885053439E+02  0.14619778058E+03  0.81177720417E+02 0.  0.
          5    1    3    3  502    0  0.32056925007E+02  0.13871977309E+03 -0.77473867045E+02  0.16215767623E+03  0.47000000000E+01 0. -1.
        -11    1    4    4    0    0  0.54495477229E+01  0.53659636656E+02 -0.14902791418E+01  0.53956233267E+02  0.00000000000E+00 0.  1.
         12    1    4    4    0    0  0.47214858290E+02 -0.63833834927E+01  0.27671408266E+02  0.55097162029E+02  0.00000000000E+00 0. -1.
         -5    1    5    5    0  501  0.96799901757E+00 -0.12694708448E+03 -0.14057283816E+03  0.18947113792E+03  0.47000000000E+01 0.  1.
         11    1    6    6    0    0 -0.33354739895E+01 -0.78861535098E+01 -0.47217377394E+02  0.47987472655E+02  0.00000000000E+00 0. -1.
        -12    1    6    6    0    0 -0.82353856048E+02 -0.51162788267E+02 -0.15667676046E+02  0.98210307921E+02  0.00000000000E+00 0.  1.
</event>
<event>
12    1  0.2609167E-002  0.2561874E+03  0.7818608E-02  0.1109456E+00
          2   -1    0    0  502    0  0.00000000000E+00  0.00000000000E+00  0.62119211899E+03  0.62119211899E+03  0.00000000000E+00 0.  1.
         -2   -1    0    0    0  501 -0.00000000000E+00 -0.00000000000E+00 -0.13550216078E+03  0.13550216078E+03  0.00000000000E+00 0. -1.
          6    2    1    2  502    0  0.14494259000E+02 -0.18766394383E+03  0.41956831763E+03  0.49100948718E+03  0.17211886587E+03 0.  0.
         24    2    3    3    0    0 -0.23705932473E+02 -0.16944900629E+03  0.22293784348E+03  0.28982133658E+03  0.70853285846E+02 0.  0.
         -6    2    1    2    0  501 -0.14494259000E+02  0.18766394383E+03  0.66121640580E+02  0.26568479259E+03  0.17546651618E+03 0.  0.
        -24    2    5    5    0    0  0.50622560775E+00  0.95066110878E+02 -0.34158618745E+02  0.12828903714E+03  0.79078720986E+02 0.  0.
          5    1    3    3  502    0  0.38200191473E+02 -0.18214937533E+02  0.19663047414E+03  0.20118815060E+03  0.47000000000E+01 0. -1.
        -11    1    4    4    0    0 -0.12543473284E+02 -0.14573318629E+03  0.21894061383E+03  0.26330684134E+03  0.00000000000E+00 0.  1.
         12    1    4    4    0    0 -0.11162459189E+02 -0.23715820000E+02  0.39972296497E+01  0.26514495248E+02  0.00000000000E+00 0. -1.
         -5    1    5    5    0  501 -0.15000484608E+02  0.92597832950E+02  0.10028025933E+03  0.13739575545E+03  0.47000000000E+01 0.  1.
         11    1    6    6    0    0 -0.11605356197E+02  0.10182290715E+03 -0.13443798383E+02  0.10336016848E+03  0.00000000000E+00 0. -1.
        -12    1    6    6    0    0  0.12111581805E+02 -0.67567962756E+01 -0.20714820362E+02  0.24928868654E+02  0.00000000000E+00 0.  1.
</event>
<event>
12    1  0.2609167E-002  0.1733341E+03  0.7818608E-02  0.1174415E+00
         -1   -1    0    0    0  501 -0.00000000000E+00  0.00000000000E+00  0.60123119433E+03  0.60123119433E+03  0.00000000000E+00 0. -1.
          1   -1    0    0  502    0  0.00000000000E+00 -0.00000000000E+00 -0.65246079734E+02  0.65246079734E+02  0.00000000000E+00 0.  1.
          6    2    1    2  502    0  0.42841839625E+01 -0.59009363956E-01  0.42935705685E+03  0.46306645359E+03  0.17339175429E+03 0.  0.
         24    2    3    3    0    0  0.53265425614E+02  0.43236688887E+02  0.30035843564E+03  0.31837224570E+03  0.80243879165E+02 0.  0.
         -6    2    1    2    0  501 -0.42841839625E+01  0.59009363956E-01  0.10662805775E+03  0.20341082048E+03  0.17317061377E+03 0.  0.
        -24    2    5    5    0    0  0.76647310490E+01 -0.60627505008E+02  0.96991193511E+02  0.14063671157E+03  0.81467481598E+02 0.  0.
          5    1    3    3  502    0 -0.48981241652E+02 -0.43295698251E+02  0.12899862121E+03  0.14469420788E+03  0.47000000000E+01 0. -1.
        -11    1    4    4    0    0  0.62135275986E+02  0.24206916448E+01  0.15149866535E+03  0.16376354256E+03  0.00000000000E+00 0.  1.
         12    1    4    4    0    0 -0.88698503723E+01  0.40815997242E+02  0.14885977029E+03  0.15460870314E+03  0.00000000000E+00 0. -1.
         -5    1    5    5    0  501 -0.11948915011E+02  0.60686514372E+02  0.96368642370E+01  0.62774108906E+02  0.47000000000E+01 0.  1.
         11    1    6    6    0    0  0.34362699748E+02 -0.20214662674E+02  0.79864892535E+02  0.89262695346E+02  0.00000000000E+00 0. -1.
        -12    1    6    6    0    0 -0.26697968699E+02 -0.40412842334E+02  0.17126300977E+02  0.51374016227E+02  0.00000000000E+00 0.  1.
</event>
<event>
12    1  0.2609167E-002  0.1872781E+03  0.7818608E-02  0.1160939E+00
         -2   -1    0    0    0  501 -0.00000000000E+00  0.00000000000E+00  0.13603969713E+04  0.13603969713E+04  0.00000000000E+00 0. -1.
          2   -1    0    0  502    0  0.00000000000E+00 -0.00000000000E+00 -0.30210268763E+02  0.30210268763E+02  0.00000000000E+00 0.  1.
          6    2    1    2  502    0  0.17329028911E+02  0.72417461677E+02  0.93160678531E+03  0.95026356677E+03  0.17194493275E+03 0.  0.
         24    2    3    3    0    0 -0.71558755704E+01  0.10529854514E+03  0.51831183586E+03  0.53491373659E+03  0.79665276184E+02 0.  0.
         -6    2    1    2    0  501 -0.17329028911E+02 -0.72417461677E+02  0.39857991723E+03  0.44034367330E+03  0.17173239704E+03 0.  0.
        -24    2    5    5    0    0 -0.12314267687E+02 -0.12848345029E+02  0.35990897375E+03  0.36899131273E+03  0.79393943897E+02 0.  0.
          5    1    3    3  502    0  0.24484904481E+02 -0.32881083461E+02  0.41329494945E+03  0.41534983019E+03  0.47000000000E+01 0. -1.
        -11    1    4    4    0    0  0.25283494824E+02  0.42612772262E+02  0.11135249106E+03  0.12187895937E+03  0.00000000000E+00 0.  1.
         12    1    4    4    0    0 -0.32439370394E+02  0.62685772875E+02  0.40695934480E+03  0.41303477722E+03  0.00000000000E+00 0. -1.
         -5    1    5    5    0  501 -0.50147612235E+01 -0.59569116648E+02  0.38670943482E+02  0.71352360565E+02  0.47000000000E+01 0.  1.
         11    1    6    6    0    0  0.88991119249E+01  0.24667019762E+02  0.53661192313E+02  0.59725870588E+02  0.00000000000E+00 0. -1.
        -12    1    6    6    0    0 -0.21213379612E+02 -0.37515364791E+02  0.30624778144E+03  0.30926544214E+03  0.00000000000E+00 0.  1.
</event>
<event>
12    1  0.2609167E-002  0.2678913E+03  0.7818608E-02  0.1102493E+00
          1   -1    0    0  502    0  0.00000000000E+00  0.00000000000E+00  0.55359593333E+03  0.55359593333E+03  0.00000000000E+00 0. -1.
         -1   -1    0    0    0  501 -0.00000000000E+00 -0.00000000000E+00 -0.13599957206E+03  0.13599957206E+03  0.00000000000E+00 0.  1.
          6    2    1    2  502    0 -0.15142515072E+03  0.13843864761E+03  0.28323288533E+03  0.38971479446E+03  0.17193579694E+03 0.  0.
         24    2    3    3    0    0 -0.15281529411E+03  0.63993000091E+02  0.14970842735E+03  0.23676069085E+03  0.78710820970E+02 0.  0.
         -6    2    1    2    0  501  0.15142515072E+03 -0.13843864761E+03  0.13436347595E+03  0.29988071093E+03  0.17256900560E+03 0.  0.
        -24    2    5    5    0    0  0.13996544473E+02 -0.14816744750E+02  0.38343816895E+02  0.91527977310E+02  0.80570982085E+02 0.  0.
          5    1    3    3  502    0  0.13901433932E+01  0.74445647520E+02  0.13352445798E+03  0.15295410361E+03  0.47000000000E+01 0. -1.
        -13    1    4    4    0    0 -0.30245501013E+02  0.49140483880E+02  0.31083564314E+02  0.65542089209E+02  0.00000000000E+00 0.  1.
         14    1    4    4    0    0 -0.12256979310E+03  0.14852516211E+02  0.11862486304E+03  0.17121860164E+03  0.00000000000E+00 0. -1.
         -5    1    5    5    0  501  0.13742860624E+03 -0.12362190286E+03  0.96019659053E+02  0.20835273362E+03  0.47000000000E+01 0.  1.
         11    1    6    6    0    0  0.63816298524E+00 -0.47646620388E+02  0.21138130903E+02  0.52128958022E+02  0.00000000000E+00 0. -1.
        -12    1    6    6    0    0  0.13358381488E+02  0.32829875638E+02  0.17205685992E+02  0.39399019288E+02  0.00000000000E+00 0.  1.
</event>
<event>
12    1  0.2609167E-002  0.2209873E+03  0.7818608E-02  0.1133149E+00
         -1   -1    0    0    0  501 -0.00000000000E+00  0.00000000000E+00  0.12388880158E+03  0.12388880158E+03  0.00000000000E+00 0. -1.
          1   -1    0    0  502    0  0.00000000000E+00 -0.00000000000E+00 -0.43593748714E+03  0.43593748714E+03  0.00000000000E+00 0.  1.
          6    2    1    2  502    0 -0.68708081074E+02 -0.12761332971E+03 -0.24499142347E+03  0.33257181424E+03  0.17198038181E+03 0.  0.
         24    2    3    3    0    0 -0.54831588998E+02 -0.99299574322E+02 -0.26185053602E+03  0.29650873821E+03  0.80528380120E+02 0.  0.
         -6    2    1    2    0  501  0.68708081074E+02  0.12761332971E+03 -0.67057262092E+02  0.22725447449E+03  0.16168474712E+03 0.  0.
        -24    2    5    5    0    0  0.60661848094E+02  0.54196579047E+02  0.17892336524E+02  0.11458999274E+03  0.78699439233E+02 0.  0.
          5    1    3    3  502    0 -0.13876492075E+02 -0.28313755387E+02  0.16859112557E+02  0.36063076029E+02  0.47000000000E+01 0. -1.
        -13    1    4    4    0    0  0.17508982503E+02 -0.32683136035E+02 -0.10525916463E+03  0.11159858238E+03  0.00000000000E+00 0.  1.
         14    1    4    4    0    0 -0.72340571501E+02 -0.66616438287E+02 -0.15659137139E+03  0.18491015583E+03  0.00000000000E+00 0. -1.
         -5    1    5    5    0  501  0.80462329800E+01  0.73416750662E+02 -0.84949598616E+02  0.11266448175E+03  0.47000000000E+01 0.  1.
         11    1    6    6    0    0  0.78488880921E+02  0.38912989918E+02  0.48739679477E+01  0.87740986866E+02  0.00000000000E+00 0. -1.
        -12    1    6    6    0    0 -0.17827032828E+02  0.15283589128E+02  0.13018368576E+02  0.26849005875E+02  0.00000000000E+00 0.  1.
</event>
<event>
12    1  0.2609167E-002  0.1936405E+03  0.7818608E-02  0.1155218E+00
         -2   -1    0    0    0  501 -0.00000000000E+00  0.00000000000E+00  0.59510904990E+02  0.59510904990E+02  0.00000000000E+00 0. -1.
          2   -1    0    0  502    0  0.00000000000E+00 -0.00000000000E+00 -0.71968409129E+03  0.71968409129E+03  0.00000000000E+00 0.  1.
          6    2    1    2  502    0 -0.89183076140E+02 -0.16108821269E+02 -0.46834743306E+03  0.50700371193E+03  0.17172748953E+03 0.  0.
         24    2    3    3    0    0 -0.52245497840E+02 -0.46466272497E+02 -0.43703690756E+03  0.44965915209E+03  0.79393878635E+02 0.  0.
         -6    2    1    2    0  501  0.89183076140E+02  0.16108821269E+02 -0.19182575324E+03  0.27219128435E+03  0.17052231666E+03 0.  0.
        -24    2    5    5    0    0 -0.45133604692E+01  0.17856124938E+02 -0.30947949482E+02  0.85949954232E+02  0.78041062491E+02 0.  0.
          5    1    3    3  502    0 -0.36937578299E+02  0.30357451228E+02 -0.31310525500E+02  0.57344559836E+02  0.47000000000E+01 0. -1.
        -11    1    4    4    0    0 -0.57888077877E+02 -0.62912341695E+02 -0.31522494508E+03  0.32661255073E+03  0.00000000000E+00 0.  1.
         12    1    4    4    0    0  0.56425800365E+01  0.16446069198E+02 -0.12181196249E+03  0.12304660136E+03  0.00000000000E+00 0. -1.
         -5    1    5    5    0  501  0.93696436609E+02 -0.17473036688E+01 -0.16087780376E+03  0.18624133012E+03  0.47000000000E+01 0.  1.
         13    1    6    6    0    0  0.12351333855E+02 -0.66088328099E+01  0.21505000828E+02  0.25665096527E+02  0.00000000000E+00 0. -1.
        -14    1    6    6    0    0 -0.16864694324E+02  0.24464957748E+02 -0.52452950310E+02  0.60284857705E+02  0.00000000000E+00 0.  1.
</event>
<event>
12    1  0.2609167E-002  0.2260389E+03  0.7818608E-02  0.1129459E+00
          2   -1    0    0  502    0  0.00000000000E+00  0.00000000000E+00  0.55477560398E+03  0.55477560398E+03  0.00000000000E+00 0. -1.
         -2   -1    0    0    0  501 -0.00000000000E+00 -0.00000000000E+00 -0.10659931774E+03  0.10659931774E+03  0.00000000000E+00 0.  1.
          6    2    1    2  502    0  0.13781890947E+03  0.49658423709E+02  0.10211826856E+03  0.24803433481E+03  0.17214203326E+03 0.  0.
         24    2    3    3    0    0  0.13516654033E+03  0.70746602945E+02  0.32827584416E+02  0.17540489673E+03  0.80088401449E+02 0.  0.
         -6    2    1    2    0  501 -0.13781890947E+03 -0.49658423709E+02  0.34605801768E+03  0.41334058691E+03  0.17214609590E+03 0.  0.
        -24    2    5    5    0    0 -0.67456438477E+02 -0.11492657379E+02  0.30457495182E+03  0.32306081178E+03  0.83186144092E+02 0.  0.
          5    1    3    3  502    0  0.26523691477E+01 -0.21088179235E+02  0.69290684148E+02  0.72629438076E+02  0.47000000000E+01 0. -1.
        -11    1    4    4    0    0  0.95959416053E+02  0.15231314992E+02 -0.56130566976E+01  0.97322704911E+02  0.00000000000E+00 0.  1.
         12    1    4    4    0    0  0.39207124273E+02  0.55515287953E+02  0.38440641113E+02  0.78082191820E+02  0.00000000000E+00 0. -1.
         -5    1    5    5    0  501 -0.70362470997E+02 -0.38165766330E+02  0.41483065866E+02  0.90279775133E+02  0.47000000000E+01 0.  1.
         13    1    6    6    0    0 -0.67402227619E+02 -0.39892827070E+02  0.24159165122E+03  0.25397051773E+03  0.00000000000E+00 0. -1.
        -14    1    6    6    0    0 -0.54210857819E-01  0.28400169691E+02  0.62983300602E+02  0.69090294051E+02  0.00000000000E+00 0.  1.
</event>
<event>
12    1  0.2609167E-002  0.1792150E+03  0.7818608E-02  0.1168565E+00
         -2   -1    0    0    0  501 -0.00000000000E+00  0.00000000000E+00  0.47769383415E+02  0.47769383415E+02  0.00000000000E+00 0.  1.
          2   -1    0    0  502    0  0.00000000000E+00 -0.00000000000E+00 -0.79155038803E+03  0.79155038803E+03  0.00000000000E+00 0. -1.
          6    2    1    2  502    0  0.33652072387E+02  0.36931670744E+02 -0.53372129800E+03  0.56282421520E+03  0.17151169928E+03 0.  0.
         24    2    3    3    0    0  0.73260422835E+02  0.38836917625E+02 -0.23026808920E+03  0.25675495617E+03  0.77616485924E+02 0.  0.
         -6    2    1    2    0  501 -0.33652072387E+02 -0.36931670744E+02 -0.21005970661E+03  0.27649555625E+03  0.17270872011E+03 0.  0.
        -24    2    5    5    0    0 -0.26987806353E+02  0.16805379808E+02 -0.20524844560E+03  0.22193072072E+03  0.78202032550E+02 0.  0.
          5    1    3    3  502    0 -0.39608350448E+02 -0.19052468816E+01 -0.30345320880E+03  0.30606925903E+03  0.47000000000E+01 0. -1.
        -11    1    4    4    0    0  0.39443575159E+02 -0.20174990445E+02 -0.11000287692E+03  0.11858945481E+03  0.00000000000E+00 0.  1.
         12    1    4    4    0    0  0.33816847677E+02  0.59011908070E+02 -0.12026521228E+03  0.13816550136E+03  0.00000000000E+00 0. -1.
         -5    1    5    5    0  501 -0.66642660338E+01 -0.53737050551E+02 -0.48112610094E+01  0.54564835528E+02  0.47000000000E+01 0.  1.
         11    1    6    6    0    0  0.23944643403E+02 -0.68009802016E+01 -0.95078607806E+02  0.98282963639E+02  0.00000000000E+00 0. -1.
        -12    1    6    6    0    0 -0.50932449756E+02  0.23606360009E+02 -0.11016983780E+03  0.12364775708E+03  0.00000000000E+00 0.  1.
</event>
<event>
12    1  0.2609167E-002  0.2101582E+03  0.7818608E-02  0.1141441E+00
          2   -1    0    0  502    0  0.00000000000E+00  0.00000000000E+00  0.11833538832E+04  0.11833538832E+04  0.00000000000E+00 0.  1.
         -2   -1    0    0    0  501 -0.00000000000E+00 -0.00000000000E+00 -0.48280949603E+02  0.48280949603E+02  0.00000000000E+00 0. -1.
          6    2    1    2  502    0 -0.49303125411E+02 -0.11000546438E+03  0.86032207374E+03  0.88555172220E+03  0.17180157669E+03 0.  0.
         24    2    3    3    0    0 -0.46125011159E+02 -0.10065737995E+03  0.86332776925E+03  0.87421103006E+03  0.81551597873E+02 0.  0.
         -6    2    1    2    0  501  0.49303125411E+02  0.11000546438E+03  0.27475085990E+03  0.34608311065E+03  0.17249198269E+03 0.  0.
        -24    2    5    5    0    0 -0.93852738447E+01  0.71871012535E+02  0.24975102827E+03  0.27161401500E+03  0.78390504629E+02 0.  0.
          5    1    3    3  502    0 -0.31781142525E+01 -0.93480844344E+01 -0.30056955100E+01  0.11340692144E+02  0.47000000000E+01 0. -1.
        -11    1    4    4    0    0 -0.11435862471E+02 -0.69546157338E+02  0.26969501514E+03  0.27875230608E+03  0.00000000000E+00 0.  1.
         12    1    4    4    0    0 -0.34689148687E+02 -0.31111222611E+02  0.59363275411E+03  0.59545872398E+03  0.00000000000E+00 0. -1.
         -5    1    5    5    0  501  0.58688399256E+02  0.38134451849E+02  0.24999831629E+02  0.74469095647E+02  0.47000000000E+01 0.  1.
         13    1    6    6    0    0  0.29702765435E+02  0.66038507169E+01  0.80165387908E+02  0.85745871838E+02  0.00000000000E+00 0. -1.
        -14    1    6    6    0    0 -0.39088039280E+02  0.65267161818E+02  0.16958564036E+03  0.18586814316E+03  0.00000000000E+00 0.  1.
</event>
<event>
12    1  0.2609167E-002  0.1941015E+03  0.7818608E-02  0.1154813E+00
          2   -1    0    0  502    0  0.00000000000E+00  0.00000000000E+00  0.26021937324E+04  0.26021937324E+04  0.00000000000E+00 0.  1.
         -2   -1    0    0    0  501 -0.00000000000E+00 -0.00000000000E+00 -0.16752872663E+02  0.16752872663E+02  0.00000000000E+00 0. -1.
          6    2    1    2  502    0 -0.66287782065E+02  0.61456238165E+02  0.17772081495E+04  0.17878139421E+04  0.17215965179E+03 0.  0.
         24    2    3    3    0    0  0.57934085877E+01  0.19355932970E+02  0.13497467622E+04  0.13522528541E+04  0.79769942175E+02 0.  0.
         -6    2    1    2    0  501  0.66287782065E+02 -0.61456238165E+02  0.80823271022E+03  0.83113266293E+03  0.17137809156E+03 0.  0.
        -24    2    5    5    0    0  0.51208885026E+01  0.19201084729E+02  0.49998872977E+03  0.50665857447E+03  0.79493874148E+02 0.  0.
          5    1    3    3  502    0 -0.72081190653E+02  0.42100305195E+02  0.42746138731E+03  0.43556108801E+03  0.47000000000E+01 0. -1.
        -13    1    4    4    0    0  0.34056585346E+01  0.68143292639E+01  0.13181812400E+04  0.13182032526E+04  0.00000000000E+00 0.  1.
         14    1    4    4    0    0  0.23877500530E+01  0.12541603706E+02  0.31565522190E+02  0.34049601539E+02  0.00000000000E+00 0. -1.
         -5    1    5    5    0  501  0.61166893562E+02 -0.80657322894E+02  0.30824398044E+03  0.32447408846E+03  0.47000000000E+01 0.  1.
         13    1    6    6    0    0  0.24812865250E+02  0.77923178262E+01  0.52473722825E+02  0.58565263477E+02  0.00000000000E+00 0. -1.
        -14    1    6    6    0    0 -0.19691976747E+02  0.11408766903E+02  0.44751500695E+03  0.44809331099E+03  0.00000000000E+00 0.  1.
</event>
<event>
12    1  0.2609167E-002  0.1831814E+03  0.7818608E-02  0.1164759E+00
          2   -1    0    0  502    0  0.00000000000E+00  0.00000000000E+00  0.14331812711E+03  0.14331812711E+03  0.00000000000E+00 0.  1.
         -2   -1    0    0    0  501 -0.00000000000E+00 -0.00000000000E+00 -0.24799547961E+03  0.24799547961E+03  0.00000000000E+00 0. -1.
          6    2    1    2  502    0  0.36923477284E+02  0.32712822777E+02 -0.50617488994E+01  0.17847662664E+03  0.17144915575E+03 0.  0.
         24    2    3    3    0    0  0.42736836760E+02  0.14195206948E+02 -0.66512906244E+02  0.11386213923E+03  0.80701170605E+02 0.  0.
         -6    2    1    2    0  501 -0.36923477284E+02 -0.32712822777E+02 -0.99615603601E+02  0.21283698008E+03  0.18150162440E+03 0.  0.
        -24    2    5    5    0    0  0.13824271438E+02 -0.39568150900E+02  0.94636421852E+01  0.92243856785E+02  0.81624870871E+02 0.  0.
          5    1    3    3  502    0 -0.58133594753E+01  0.18517615830E+02  0.61451157345E+02  0.64614487411E+02  0.47000000000E+01 0. -1.
        -13    1    4    4    0    0  0.19410085378E+01  0.40092607075E+02 -0.14027506602E+02  0.42520061120E+02  0.00000000000E+00 0.  1.
         14    1    4    4    0    0  0.40795828222E+02 -0.25897400127E+02 -0.52485399643E+02  0.71342078112E+02  0.00000000000E+00 0. -1.
         -5    1    5    5    0  501 -0.50747748723E+02  0.68553281225E+01 -0.10907924579E+03  0.12059312329E+03  0.47000000000E+01 0.  1.
         11    1    6    6    0    0  0.39964383237E+01 -0.51889913677E+02  0.34656595305E+02  0.62526908278E+02  0.00000000000E+00 0. -1.
        -12    1    6    6    0    0  0.98278331144E+01  0.12321762777E+02 -0.25192953120E+02  0.29716948507E+02  0.00000000000E+00 0.  1.
</event>
<event>
12    1  0.2609167E-002  0.1745118E+03  0.7818608E-02  0.1173223E+00
          2   -1    0    0  502    0  0.00000000000E+00  0.00000000000E+00  0.19367095244E+04  0.19367095244E+04  0.00000000000E+00 0. -1.
         -2   -1    0    0    0  501 -0.00000000000E+00 -0.00000000000E+00 -0.22209767158E+02  0.22209767158E+02  0.00000000000E+00 0.  1.
          6    2    1    2  502    0  0.15985439996E+01  0.28612756551E+02  0.14868675385E+04  0.14970843969E+04  0.17223637624E+03 0.  0.
         24    2    3    3    0    0 -0.94534145512E+01 -0.50663375319E+02  0.76532152156E+03  0.77109707236E+03  0.78851245987E+02 0.  0.
         -6    2    1    2    0  501 -0.15985439996E+01 -0.28612756551E+02  0.42763221883E+03  0.46183489471E+03  0.17204915058E+03 0.  0.
        -24    2    5    5    0    0 -0.54159645538E+02 -0.24909285177E+02  0.15484560832E+03  0.18396620276E+03  0.79452260193E+02 0.  0.
          5    1    3    3  502    0  0.11051958551E+02  0.79276131870E+02  0.72154601690E+03  0.72598732453E+03  0.47000000000E+01 0. -1.
        -13    1    4    4    0    0 -0.20165151106E+01  0.21017211890E+02  0.13031152784E+03  0.13201092310E+03  0.00000000000E+00 0.  1.
         14    1    4    4    0    0 -0.74368994406E+01 -0.71680587210E+02  0.63500999372E+03  0.63908614926E+03  0.00000000000E+00 0. -1.
         -5    1    5    5    0  501  0.52561101539E+02 -0.37034713737E+01  0.27278661051E+03  0.27786869195E+03  0.47000000000E+01 0.  1.
         11    1    6    6    0    0 -0.45243296002E+02 -0.48807241058E+02  0.13853106859E+03  0.15368786412E+03  0.00000000000E+00 0. -1.
        -12    1    6    6    0    0 -0.89163495367E+01  0.23897955881E+02  0.16314539727E+02  0.30278338641E+02  0.00000000000E+00 0.  1.
</event>
<event>
12    1  0.2609167E-002  0.2394454E+03  0.7818608E-02  0.1120163E+00
         -2   -1    0    0    0  501 -0.00000000000E+00  0.00000000000E+00  0.39781601129E+02  0.39781601129E+02  0.00000000000E+00 0.  1.
          2   -1    0    0  502    0  0.00000000000E+00 -0.00000000000E+00 -0.18346800407E+04  0.18346800407E+04  0.00000000000E+00 0. -1.
          6    2    1    2  502    0  0.86716601260E+02  0.14170843368E+03 -0.13291760473E+04  0.13504339849E+04  0.17135324273E+03 0.  0.
         24    2    3    3    0    0  0.10972393205E+03  0.87991896141E+02 -0.68732463618E+03  0.70591080641E+03  0.78185651222E+02 0.  0.
         -6    2    1    2    0  501 -0.86716601260E+02 -0.14170843368E+03 -0.46572239228E+03  0.52402765693E+03  0.17351250513E+03 0.  0.
        -24    2    5    5    0    0 -0.60007696378E+02 -0.15782995543E+03 -0.28537304400E+03  0.34093957296E+03  0.79314561782E+02 0.  0.
          5    1    3    3  502    0 -0.23007330788E+02  0.53716537539E+02 -0.64185141112E+03  0.64452317851E+03  0.47000000000E+01 0. -1.
        -13    1    4    4    0    0  0.79493417968E+02  0.68124138703E+02 -0.62614308965E+03  0.63483483717E+03  0.00000000000E+00 0.  1.
         14    1    4    4    0    0  0.30230514080E+02  0.19867757438E+02 -0.61181546537E+02  0.71075969243E+02  0.00000000000E+00 0. -1.
         -5    1    5    5    0  501 -0.26708904882E+02  0.16121521755E+02 -0.18034934829E+03  0.18308808397E+03  0.47000000000E+01 0.  1.
         13    1    6    6    0    0 -0.63448879743E+01 -0.75150036875E+02 -0.18720691887E+03  0.20182719370E+03  0.00000000000E+00 0. -1.
        -14    1    6    6    0    0 -0.53662808403E+02 -0.82679918560E+02 -0.98166125126E+02  0.13911237925E+03  0.00000000000E+00 0.  1.
</event>
<event>
12    1  0.2609167E-002  0.2218218E+03  0.7818608E-02  0.1132532E+00
         -2   -1    0    0    0  501 -0.00000000000E+00  0.00000000000E+00  0.16406532406E+02  0.16406532406E+02  0.00000000000E+00 0. -1.
          2   -1    0    0  502    0  0.00000000000E+00 -0.00000000000E+00 -0.34962841284E+04  0.34962841284E+04  0.00000000000E+00 0.  1.
          6    2    1    2  502    0 -0.25182354337E+02  0.13833797962E+03 -0.10776207969E+04  0.11002141323E+04  0.17156050655E+03 0.  0.
         24    2    3    3    0    0  0.50876558670E+02  0.68485944652E+02 -0.65617383161E+03  0.66627415995E+03  0.77964159072E+02 0.  0.
         -6    2    1    2    0  501  0.25182354337E+02 -0.13833797962E+03 -0.24022567991E+04  0.24124765285E+04  0.17156259575E+03 0.  0.
        -24    2    5    5    0    0  0.73892225896E+02 -0.51612346967E+02 -0.13850105619E+04  0.13903679315E+04  0.82126932488E+02 0.  0.
          5    1    3    3  502    0 -0.76058913007E+02  0.69852034970E+02 -0.42144696526E+03  0.43393997230E+03  0.47000000000E+01 0. -1.
        -11    1    4    4    0    0  0.26616797323E+02  0.51036664311E+02 -0.59902222567E+03  0.60178137379E+03  0.00000000000E+00 0.  1.
         12    1    4    4    0    0  0.24259761347E+02  0.17449280341E+02 -0.57151605941E+02  0.64492786160E+02  0.00000000000E+00 0. -1.
         -5    1    5    5    0  501 -0.48709871559E+02 -0.86725632655E+02 -0.10172462372E+04  0.10221085970E+04  0.47000000000E+01 0.  1.
         11    1    6    6    0    0  0.74987577437E+02 -0.58590147451E+02 -0.13739681657E+04  0.13772597658E+04  0.00000000000E+00 0. -1.
        -12    1    6    6    0    0 -0.10953515414E+01  0.69778004840E+01 -0.11042396152E+02  0.13108165675E+02  0.00000000000E+00 0.  1.
</event>
<event>
12    1  0.2609167E-002  0.1967334E+03  0.7818608E-02  0.1152525E+00
         -1   -1    0    0    0  501 -0.00000000000E+00  0.00000000000E+00  0.66072461657E+02  0.66072461657E+02  0.00000000000E+00 0.  1.
          1   -1    0    0  502    0  0.00000000000E+00 -0.00000000000E+00 -0.88033723637E+03  0.88033723637E+03  0.00000000000E+00 0. -1.
          6    2    1    2  502    0 -0.64707623300E+02  0.57541726027E+02 -0.67419295867E+03  0.70102768474E+03  0.17148044349E+03 0.  0.
         24    2    3    3    0    0  0.18104155949E+02  0.67367747323E+02 -0.44171614897E+03  0.45400157574E+03  0.78346031639E+02 0.  0.
         -6    2    1    2    0  501  0.64707623300E+02 -0.57541726027E+02 -0.14007181605E+03  0.24538201329E+03  0.18191781675E+03 0.  0.
        -24    2    5    5    0    0  0.11120306173E+03 -0.45907216433E+02 -0.70731005478E+02  0.16095793131E+03  0.80193435252E+02 0.  0.
          5    1    3    3  502    0 -0.82811779248E+02 -0.98260212964E+01 -0.23247680970E+03  0.24702610899E+03  0.47000000000E+01 0. -1.
        -13    1    4    4    0    0  0.42582943548E+02  0.11810972933E+02 -0.18565881817E+03  0.19084549491E+03  0.00000000000E+00 0.  1.
         14    1    4    4    0    0 -0.24478787600E+02  0.55556774391E+02 -0.25605733080E+03  0.26315608084E+03  0.00000000000E+00 0. -1.
         -5    1    5    5    0  501 -0.46495438430E+02 -0.11634509594E+02 -0.69340810569E+02  0.84424081983E+02  0.47000000000E+01 0.  1.
         11    1    6    6    0    0  0.67978348701E+02  0.14115228115E+01 -0.68961975547E+02  0.96844216968E+02  0.00000000000E+00 0. -1.
        -12    1    6    6    0    0  0.43224713028E+02 -0.47318739245E+02 -0.17690299311E+01  0.64113714344E+02  0.00000000000E+00 0.  1.
</event>
<event>
12    1  0.2609167E-002  0.2180642E+03  0.7818608E-02  0.1135335E+00
         -2   -1    0    0    0  501 -0.00000000000E+00  0.00000000000E+00  0.73977626707E+02  0.73977626707E+02  0.00000000000E+00 0.  1.
          2   -1    0    0  502    0  0.00000000000E+00 -0.00000000000E+00 -0.69575643718E+03  0.69575643718E+03  0.00000000000E+00 0. -1.
          6    2    1    2  502    0 -0.39569889596E+02  0.12878955117E+03 -0.20471825450E+03  0.29911211372E+03  0.17148168472E+03 0.  0.
         24    2    3    3    0    0  0.24569424278E+02  0.95132101519E+02 -0.18464761823E+03  0.22380211477E+03  0.79617022734E+02 0.  0.
         -6    2    1    2    0  501  0.39569889596E+02 -0.12878955117E+03 -0.41706055597E+03  0.47062195017E+03  0.17144383332E+03 0.  0.
        -24    2    5    5    0    0  0.91013156181E+02 -0.10294380958E+03 -0.28463530184E+03  0.32614721201E+03  0.80460712884E+02 0.  0.
          5    1    3    3  502    0 -0.64139313874E+02  0.33657449650E+02 -0.20070636273E+02  0.75309998948E+02  0.47000000000E+01 0. -1.
        -13    1    4    4    0    0  0.34008817186E+02  0.59823833971E+02 -0.52113496810E+02  0.86320955203E+02  0.00000000000E+00 0.  1.
         14    1    4    4    0    0 -0.94393929077E+01  0.35308267548E+02 -0.13253412142E+03  0.13748115957E+03  0.00000000000E+00 0. -1.
         -5    1    5    5    0  501 -0.51443266585E+02 -0.25845741584E+02 -0.13242525414E+03  0.14447473817E+03  0.47000000000E+01 0.  1.
         11    1    6    6    0    0  0.79321429356E+02 -0.10315668221E+03 -0.28615702758E+03  0.31435495013E+03  0.00000000000E+00 0. -1.
        -12    1    6    6    0    0  0.11691726825E+02  0.21287262607E+00  0.15217257409E+01  0.11792261875E+02  0.00000000000E+00 0.  1.
</event>
<event>
12    1  0.2609167E-002  0.2081156E+03  0.7818608E-02  0.1143067E+00
          1   -1    0    0  502    0  0.00000000000E+00  0.00000000000E+00  0.29206014690E+04  0.29206014690E+04  0.00000000000E+00 0. -1.
         -1   -1    0    0    0  501 -0.00000000000E+00 -0.00000000000E+00 -0.22312843241E+02  0.22312843241E+02  0.00000000000E+00 0.  1.
          6    2    1    2  502    0 -0.11641492795E+03  0.10251597264E+02  0.23083176762E+04  0.23178192349E+04  0.17406315108E+03 0.  0.
         24    2    3    3    0    0 -0.60538465224E+02  0.27516992963E+02  0.20605678881E+04  0.20632169558E+04  0.80635567742E+02 0.  0.
         -6    2    1    2    0  501  0.11641492795E+03 -0.10251597264E+02  0.58997094950E+03  0.62509507731E+03  0.17035434756E+03 0.  0.
        -24    2    5    5    0    0  0.54985632443E+01  0.25596069336E+02  0.32686965520E+03  0.33728980248E+03  0.78963576439E+02 0.  0.
          5    1    3    3  502    0 -0.55876462726E+02 -0.17265395699E+02  0.24774978819E+03  0.25460227910E+03  0.47000000000E+01 0. -1.
        -13    1    4    4    0    0  0.47104555345E+01  0.35389426390E+02  0.50442987928E+03  0.50569170747E+03  0.00000000000E+00 0.  1.
         14    1    4    4    0    0 -0.65248920758E+02 -0.78724334276E+01  0.15561380088E+04  0.15575252483E+04  0.00000000000E+00 0. -1.
         -5    1    5    5    0  501  0.11091636471E+03 -0.35847666600E+02  0.26310129430E+03  0.28780527483E+03  0.47000000000E+01 0.  1.
         13    1    6    6    0    0  0.31328762369E+02  0.42143498278E+02  0.20524647465E+03  0.21185769081E+03  0.00000000000E+00 0. -1.
        -14    1    6    6    0    0 -0.25830199125E+02 -0.16547428942E+02  0.12162318055E+03  0.12543211167E+03  0.00000000000E+00 0.  1.
</event>
<event>
12    1  0.2609167E-002  0.1847801E+03  0.7818608E-02  0.1163255E+00
         -4   -1    0    0    0  501 -0.00000000000E+00  0.00000000000E+00  0.14178373113E+03  0.14178373113E+03  0.00000000000E+00 0.  1.
          4   -1    0    0  502    0  0.00000000000E+00 -0.00000000000E+00 -0.45747791086E+03  0.45747791086E+03  0.00000000000E+00 0. -1.
          6    2    1    2  502    0 -0.19471449709E+02  0.63647809793E+02 -0.36405411506E+03  0.40826836228E+03  0.17238757467E+03 0.  0.
         24    2    3    3    0    0 -0.22201612729E+02 -0.32491671195E+02 -0.17839593599E+03  0.19912414637E+03  0.79225598023E+02 0.  0.
         -6    2    1    2    0  501  0.19471449709E+02 -0.63647809793E+02  0.48359935331E+02  0.19099327971E+03  0.17236463821E+03 0.  0.
        -24    2    5    5    0    0 -0.36813202432E+01 -0.28918219671E+02 -0.40181140092E+02  0.92994263271E+02  0.78635827931E+02 0.  0.
          5    1    3    3  502    0  0.27301630199E+01  0.96139480988E+02 -0.18565817907E+03  0.20914421591E+03  0.47000000000E+01 0. -1.
        -13    1    4    4    0    0 -0.40980962601E+02 -0.20219095563E+02 -0.45997102933E+02  0.64838141547E+02  0.00000000000E+00 0.  1.
         14    1    4    4    0    0  0.18779349872E+02 -0.12272575632E+02 -0.13239883306E+03  0.13428600482E+03  0.00000000000E+00 0. -1.
         -5    1    5    5    0  501  0.23152769952E+02 -0.34729590122E+02  0.88541075423E+02  0.97999016441E+02  0.47000000000E+01 0.  1.
         11    1    6    6    0    0  0.26399062863E+02 -0.44075617145E+01  0.10855644546E+02  0.28882211459E+02  0.00000000000E+00 0. -1.
        -12    1    6    6    0    0 -0.30080383106E+02 -0.24510657957E+02 -0.51036784638E+02  0.64112051811E+02  0.00000000000E+00 0.  1.
</event>
<event>
12    1  0.2609167E-002  0.1853027E+03  0.7818608E-02  0.1162768E+00
          2   -1    0    0  502    0  0.00000000000E+00  0.00000000000E+00  0.17141896858E+04  0.17141896858E+04  0.00000000000E+00 0.  1.
         -2   -1    0    0    0  501 -0.00000000000E+00 -0.00000000000E+00 -0.40889650914E+02  0.40889650914E+02  0.00000000000E+00 0. -1.
          6    2    1    2  502    0  0.43891869981E+02  0.63143516525E+02  0.14705511146E+04  0.14825989659E+04  0.17223679357E+03 0.  0.
         24    2    3    3    0    0 -0.37752501196E+02  0.39896283425E+01  0.72446625826E+03  0.72971803991E+03  0.78713975482E+02 0.  0.
         -6    2    1    2    0  501 -0.43891869981E+02 -0.63143516525E+02  0.20274892028E+03  0.27248037083E+03  0.16499947843E+03 0.  0.
        -24    2    5    5    0    0 -0.37941700654E+02 -0.96177097521E+02  0.95994111283E+02  0.16047456190E+03  0.76469659870E+02 0.  0.
          5    1    3    3  502    0  0.81644371177E+02  0.59153888183E+02  0.74608485638E+03  0.75288092602E+03  0.47000000000E+01 0. -1.
        -13    1    4    4    0    0 -0.18731784048E+02  0.40809611259E+02  0.43259761960E+03  0.43492183733E+03  0.00000000000E+00 0.  1.
         14    1    4    4    0    0 -0.19020717148E+02 -0.36819982917E+02  0.29186863866E+03  0.29479620258E+03  0.00000000000E+00 0. -1.
         -5    1    5    5    0  501 -0.59501693269E+01  0.33033580996E+02  0.10675480900E+03  0.11200580892E+03  0.47000000000E+01 0.  1.
         13    1    6    6    0    0 -0.27242840717E+02 -0.27083407492E+02 -0.38251464328E+01  0.38604599168E+02  0.00000000000E+00 0. -1.
        -14    1    6    6    0    0 -0.10698859936E+02 -0.69093690029E+02  0.99819257716E+02  0.12186996273E+03  0.00000000000E+00 0.  1.
</event>
<event>
12    1  0.2609167E-002  0.2064393E+03  0.7818608E-02  0.1144417E+00
         -2   -1    0    0    0  501 -0.00000000000E+00  0.00000000000E+00  0.90562502401E+03  0.90562502401E+03  0.00000000000E+00 0. -1.
          2   -1    0    0  502    0  0.00000000000E+00 -0.00000000000E+00 -0.49791626038E+02  0.49791626038E+02  0.00000000000E+00 0.  1.
          6    2    1    2  502    0  0.11147883893E+03 -0.24501659871E+02  0.31595982300E+03  0.37741384732E+03  0.17199633581E+03 0.  0.
         24    2    3    3    0    0  0.56062955171E+02 -0.12160526128E+02  0.59463382472E+02  0.11466731973E+03  0.79509540441E+02 0.  0.
         -6    2    1    2    0  501 -0.11147883893E+03  0.24501659871E+02  0.53987357497E+03  0.57800280273E+03  0.17203458997E+03 0.  0.
        -24    2    5    5    0    0 -0.92618139181E+02  0.80698967623E+02  0.36908421390E+03  0.39715767770E+03  0.80128777111E+02 0.  0.
          5    1    3    3  502    0  0.55415883763E+02 -0.12341133743E+02  0.25649644053E+03  0.26274652759E+03  0.47000000000E+01 0. -1.
        -13    1    4    4    0    0  0.47102880441E+02 -0.29596436880E+02  0.72307802728E+02  0.91230744584E+02  0.00000000000E+00 0.  1.
         14    1    4    4    0    0  0.89600747300E+01  0.17435910752E+02 -0.12844420256E+02  0.23436575148E+02  0.00000000000E+00 0. -1.
         -5    1    5    5    0  501 -0.18860699753E+02 -0.56197307752E+02  0.17078936107E+03  0.18084512503E+03  0.47000000000E+01 0.  1.
         13    1    6    6    0    0 -0.62711791101E+02  0.63096348907E+01  0.20607451963E+03  0.21549776768E+03  0.00000000000E+00 0. -1.
        -14    1    6    6    0    0 -0.29906348080E+02  0.74389332732E+02  0.16300969428E+03  0.18165991002E+03  0.00000000000E+00 0.  1.
</event>
<event>
12    1  0.2609167E-002  0.1844858E+03  0.7818608E-02  0.1163531E+00
         -1   -1    0    0    0  501 -0.00000000000E+00  0.00000000000E+00  0.44487900634E+03  0.44487900634E+03  0.00000000000E+00 0. -1.
          1   -1    0    0  502    0  0.00000000000E+00 -0.00000000000E+00 -0.10991583952E+03  0.10991583952E+03  0.00000000000E+00 0.  1.
          6    2    1    2  502    0 -0.17419531659E+02  0.60974702246E+02  0.13902456972E+02  0.18399300748E+03  0.17215921147E+03 0.  0.
         24    2    3    3    0    0 -0.31589925177E+02  0.98468910012E+02  0.39576677124E+02  0.13616131036E+03  0.79243545202E+02 0.  0.
         -6    2    1    2    0  501  0.17419531659E+02 -0.60974702246E+02  0.32106070984E+03  0.37080183839E+03  0.17433493496E+03 0.  0.
        -24    2    5    5    0    0 -0.14773824524E+02  0.28102659301E+02  0.17572086949E+03  0.19725948702E+03  0.83817992674E+02 0.  0.
          5    1    3    3  502    0  0.14170393518E+02 -0.37494207766E+02 -0.25674220152E+02  0.47831697115E+02  0.47000000000E+01 0. -1.
        -13    1    4    4    0    0 -0.37248813644E+02  0.18253442957E+02 -0.86786305606E+01  0.42379015162E+02  0.00000000000E+00 0.  1.
         14    1    4    4    0    0  0.56588884673E+01  0.80215467055E+02  0.48255307684E+02  0.93782295202E+02  0.00000000000E+00 0. -1.
         -5    1    5    5    0  501  0.32193356183E+02 -0.89077361546E+02  0.14533984035E+03  0.17354235136E+03  0.47000000000E+01 0.  1.
         11    1    6    6    0    0 -0.45584031151E+02 -0.20130900622E+01  0.76260377044E+02  0.88868450727E+02  0.00000000000E+00 0. -1.
        -12    1    6    6    0    0  0.30810206627E+02  0.30115749363E+02  0.99460492445E+02  0.10839103630E+03  0.00000000000E+00 0.  1.
</event>
<event>
12    1  0.2609167E-002  0.1836959E+03  0.7818608E-02  0.1164273E+00
         -2   -1    0    0    0  501 -0.00000000000E+00  0.00000000000E+00  0.60627189373E+02  0.60627189373E+02  0.00000000000E+00 0.  1.
          2   -1    0    0  502    0  0.00000000000E+00 -0.00000000000E+00 -0.65671605306E+03  0.65671605306E+03  0.00000000000E+00 0. -1.
          6    2    1    2  502    0 -0.60329006077E+02 -0.16492995663E+02 -0.43836106349E+03  0.47536846380E+03  0.17292526280E+03 0.  0.
         24    2    3    3    0    0 -0.17809580335E+01 -0.57722297782E+02 -0.15984148489E+03  0.18775244382E+03  0.79791255151E+02 0.  0.
         -6    2    1    2    0  501  0.60329006077E+02  0.16492995663E+02 -0.15772780020E+03  0.24197477863E+03  0.17251703295E+03 0.  0.
        -24    2    5    5    0    0  0.28344792398E+02  0.79732226578E+02 -0.85845688829E+02  0.14092371141E+03  0.73002431031E+02 0.  0.
          5    1    3    3  502    0 -0.58548048044E+02  0.41229302119E+02 -0.27851957860E+03  0.28761601998E+03  0.47000000000E+01 0. -1.
        -11    1    4    4    0    0  0.25694851592E+02 -0.32507530777E+02 -0.26244735253E+02  0.49048456490E+02  0.00000000000E+00 0.  1.
         12    1    4    4    0    0 -0.27475809626E+02 -0.25214767004E+02 -0.13359674963E+03  0.13870398733E+03  0.00000000000E+00 0. -1.
         -5    1    5    5    0  501  0.31984213680E+02 -0.63239230915E+02 -0.71882111372E+02  0.10105106722E+03  0.47000000000E+01 0.  1.
         13    1    6    6    0    0  0.89028309025E+01  0.29130962189E+02 -0.80954586193E+02  0.86495770890E+02  0.00000000000E+00 0. -1.
        -14    1    6    6    0    0  0.19441961495E+02  0.50601264389E+02 -0.48911026361E+01  0.54427940522E+02  0.00000000000E+00 0.  1.
</event>
<event>
12    1  0.2609167E-002  0.2404536E+03  0.7818608E-02  0.1119491E+00
         -1   -1    0    0    0  501 -0.00000000000E+00  0.00000000000E+00  0.34449331741E+02  0.34449331741E+02  0.00000000000E+00 0.  1.
          1   -1    0    0  502    0  0.00000000000E+00 -0.00000000000E+00 -0.17401756359E+04  0.17401756359E+04  0.00000000000E+00 0. -1.
          6    2    1    2  502    0  0.90016859768E+02 -0.14220481057E+03 -0.68556494942E+03  0.72650590061E+03  0.17171569688E+03 0.  0.
         24    2    3    3    0    0  0.12325850169E+03 -0.12261942344E+03 -0.46912148231E+03  0.50660033315E+03  0.79628833560E+02 0.  0.
         -6    2    1    2    0  501 -0.90016859768E+02  0.14220481057E+03 -0.10201613548E+04  0.10481190671E+04  0.17175315363E+03 0.  0.
        -24    2    5    5    0    0  0.18485137567E+02  0.53185139466E+02 -0.45165122925E+03  0.46252275723E+03  0.82268515866E+02 0.  0.
          5    1    3    3  502    0 -0.33241641923E+02 -0.19585387131E+02 -0.21644346711E+03  0.21990556746E+03  0.47000000000E+01 0. -1.
        -13    1    4    4    0    0  0.22724202487E+02 -0.54743461224E+02 -0.83851958130E+02  0.10268586469E+03  0.00000000000E+00 0.  1.
         14    1    4    4    0    0  0.10053429920E+03 -0.67875962217E+02 -0.38526952418E+03  0.40391446846E+03  0.00000000000E+00 0. -1.
         -5    1    5    5    0  501 -0.10850199733E+03  0.89019671105E+02 -0.56851012552E+03  0.58559630983E+03  0.47000000000E+01 0.  1.
         11    1    6    6    0    0 -0.26134292652E+01 -0.95917545904E+01 -0.52633647294E+01  0.11248767796E+02  0.00000000000E+00 0. -1.
        -12    1    6    6    0    0  0.21098566832E+02  0.62776894057E+02 -0.44638786452E+03  0.45127398943E+03  0.00000000000E+00 0.  1.
</event>
<event>
12    1  0.2609167E-002  0.1764540E+03  0.7818608E-02  0.1171280E+00
         -2   -1    0    0    0  501 -0.00000000000E+00  0.00000000000E+00  0.38362854866E+02  0.38362854866E+02  0.00000000000E+00 0.  1.
          2   -1    0    0  502    0  0.00000000000E+00 -0.00000000000E+00 -0.82721198522E+03  0.82721198522E+03  0.00000000000E+00 0. -1.
          6    2    1    2  502    0  0.18070053150E+02  0.42354564200E+02 -0.45904151943E+03  0.49270249148E+03  0.17296298049E+03 0.  0.
         24    2    3    3    0    0  0.73267550424E+02  0.43469511072E+02 -0.36864800298E+03  0.38667851010E+03  0.79757054436E+02 0.  0.
         -6    2    1    2    0  501 -0.18070053150E+02 -0.42354564200E+02 -0.32980761093E+03  0.37287234861E+03  0.16775068465E+03 0.  0.
        -24    2    5    5    0    0  0.18672278916E+02 -0.73106945210E+02 -0.29052176609E+03  0.31073399082E+03  0.80370623016E+02 0.  0.
          5    1    3    3  502    0 -0.55197497273E+02 -0.11149468728E+01 -0.90393516445E+02  0.10602398138E+03  0.47000000000E+01 0. -1.
        -13    1    4    4    0    0  0.43554301506E+02 -0.18826759659E+02 -0.16228076930E+03  0.16907534458E+03  0.00000000000E+00 0.  1.
         14    1    4    4    0    0  0.29713248917E+02  0.62296270731E+02 -0.20636723368E+03  0.21760316552E+03  0.00000000000E+00 0. -1.
         -5    1    5    5    0  501 -0.36742332067E+02  0.30752381010E+02 -0.39285844835E+02  0.62138357783E+02  0.47000000000E+01 0.  1.
         13    1    6    6    0    0  0.14267547198E+00 -0.81953545859E+01 -0.18680121421E+03  0.18698095578E+03  0.00000000000E+00 0. -1.
        -14    1    6    6    0    0  0.18529603445E+02 -0.64911590624E+02 -0.10372055188E+03  0.12375303505E+03  0.00000000000E+00 0.  1.
</event>
<event>
12    1  0.2609167E-002  0.1959283E+03  0.7818608E-02  0.1153221E+00
         -3   -1    0    0    0  501 -0.00000000000E+00  0.00000000000E+00  0.27307863181E+03  0.27307863181E+03  0.00000000000E+00 0.  1.
          3   -1    0    0  502    0  0.00000000000E+00 -0.00000000000E+00 -0.14205465223E+03  0.14205465223E+03  0.00000000000E+00 0. -1.
          6    2    1    2  502    0  0.90786923714E+02  0.14732744326E+02  0.44342349040E+02  0.20093658160E+03  0.17306052882E+03 0.  0.
         24    2    3    3    0    0  0.24529060819E+02 -0.53707324326E+02  0.35737054756E+02  0.10517495838E+03  0.79362984295E+02 0.  0.
         -6    2    1    2    0  501 -0.90786923714E+02 -0.14732744326E+02  0.86681630535E+02  0.21419670244E+03  0.17293699139E+03 0.  0.
        -24    2    5    5    0    0 -0.14799617746E+02  0.11368888967E+02 -0.15779350237E+02  0.83905841252E+02  0.80267814101E+02 0.  0.
          5    1    3    3  502    0  0.66257862894E+02  0.68440068652E+02  0.86052942838E+01  0.95761623222E+02  0.47000000000E+01 0. -1.
        -13    1    4    4    0    0 -0.21408795606E+02 -0.17119878897E+02 -0.11579511545E+02  0.29757551485E+02  0.00000000000E+00 0.  1.
         14    1    4    4    0    0  0.45937856425E+02 -0.36587445429E+02  0.47316566301E+02  0.75417406893E+02  0.00000000000E+00 0. -1.
         -5    1    5    5    0  501 -0.75987305967E+02 -0.26101633293E+02  0.10246098077E+03  0.13029086119E+03  0.47000000000E+01 0.  1.
         11    1    6    6    0    0  0.10521656873E+02 -0.23100165357E+02 -0.29566983106E+02  0.38968312677E+02  0.00000000000E+00 0. -1.
        -12    1    6    6    0    0 -0.25321274619E+02  0.34469054325E+02  0.13787632869E+02  0.44937528576E+02  0.00000000000E+00 0.  1.
</event>
<event>
12    1  0.2609167E-002  0.1873888E+03  0.7818608E-02  0.1160838E+00
         -1   -1    0    0    0  501 -0.00000000000E+00  0.00000000000E+00  0.38057858480E+03  0.38057858480E+03  0.00000000000E+00 0. -1.
          1   -1    0    0  502    0  0.00000000000E+00 -0.00000000000E+00 -0.23016231166E+03  0.23016231166E+03  0.00000000000E+00 0.  1.
          6    2    1    2  502    0  0.59486832803E+02 -0.43194249936E+02  0.31164932911E+03  0.36389062210E+03  0.17287756943E+03 0.  0.
         24    2    3    3    0    0  0.95391561142E+02 -0.34019421708E+02  0.15511389731E+03  0.20295971021E+03  0.82918344424E+02 0.  0.
         -6    2    1    2    0  501 -0.59486832803E+02  0.43194249936E+02 -0.16123305597E+03  0.24685027436E+03  0.17185614074E+03 0.  0.
        -24    2    5    5    0    0 -0.38853911591E+02  0.61755437058E+02 -0.18204906781E+03  0.21184125475E+03  0.80071803220E+02 0.  0.
          5    1    3    3  502    0 -0.35904728338E+02 -0.91748282276E+01  0.15653543180E+03  0.16093091189E+03  0.47000000000E+01 0. -1.
        -13    1    4    4    0    0  0.50506142046E+02  0.10182656336E+02  0.22654348916E+02  0.56283002756E+02  0.00000000000E+00 0.  1.
         14    1    4    4    0    0  0.44885419096E+02 -0.44202078045E+02  0.13245954839E+03  0.14667670746E+03  0.00000000000E+00 0. -1.
         -5    1    5    5    0  501 -0.20632921212E+02 -0.18561187122E+02  0.20816011840E+02  0.35009019610E+02  0.47000000000E+01 0.  1.
         11    1    6    6    0    0 -0.17424877412E+02  0.10521366657E+02  0.11719678293E+01  0.20388698285E+02  0.00000000000E+00 0. -1.
        -12    1    6    6    0    0 -0.21429034179E+02  0.51234070401E+02 -0.18322103564E+03  0.19145255647E+03  0.00000000000E+00 0.  1.
</event>
<event>
12    1  0.2609167E-002  0.1702035E+03  0.7818608E-02  0.1177636E+00
          2   -1    0    0  502    0  0.00000000000E+00  0.00000000000E+00  0.74798741596E+03  0.74798741596E+03  0.00000000000E+00 0. -1.
         -2   -1    0    0    0  501 -0.00000000000E+00 -0.00000000000E+00 -0.38754955531E+02  0.38754955531E+02  0.00000000000E+00 0.  1.
          6    2    1    2  502    0  0.11998164876E+02  0.80017484343E+01  0.36780070425E+03  0.40616292971E+03  0.17170609624E+03 0.  0.
         24    2    3    3    0    0  0.54184890842E+02  0.40537622280E+02  0.15946685508E+03  0.19107367930E+03  0.80623643147E+02 0.  0.
         -6    2    1    2    0  501 -0.11998164876E+02 -0.80017484343E+01  0.34143175618E+03  0.38057944178E+03  0.16750248787E+03 0.  0.
        -24    2    5    5    0    0 -0.47980072815E+02 -0.42215533557E+02  0.29482731823E+03  0.31232005102E+03  0.80848178894E+02 0.  0.
          5    1    3    3  502    0 -0.42186725965E+02 -0.32535873846E+02  0.20833384917E+03  0.21508925041E+03  0.47000000000E+01 0. -1.
        -11    1    4    4    0    0  0.10586791891E+02 -0.21950432521E+02  0.66785386581E+02  0.71092823204E+02  0.00000000000E+00 0.  1.
         12    1    4    4    0    0  0.43598098951E+02  0.62488054801E+02  0.92681468501E+02  0.11998085609E+03  0.00000000000E+00 0. -1.
         -5    1    5    5    0  501  0.35981907938E+02  0.34213785122E+02  0.46604437948E+02  0.68259390766E+02  0.47000000000E+01 0.  1.
         11    1    6    6    0    0  0.15150317517E+02 -0.11295513984E+02  0.15158700580E+03  0.15276040418E+03  0.00000000000E+00 0. -1.
        -12    1    6    6    0    0 -0.63130390332E+02 -0.30920019573E+02  0.14324031243E+03  0.15955964684E+03  0.00000000000E+00 0.  1.
</event>
<event>
12    1  0.2609167E-002  0.2000593E+03  0.7818608E-02  0.1149689E+00
         -2   -1    0    0    0  501 -0.00000000000E+00  0.00000000000E+00  0.15781160240E+02  0.15781160240E+02  0.00000000000E+00 0.  1.
          2   -1    0    0  502    0  0.00000000000E+00 -0.00000000000E+00 -0.28356257654E+04  0.28356257654E+04  0.00000000000E+00 0. -1.
          6    2    1    2  502    0  0.67957147387E+02 -0.74919960860E+02 -0.18726159958E+04  0.18832619289E+04  0.17249246560E+03 0.  0.
         24    2    3    3    0    0  0.27182603361E+02 -0.10846569883E+03 -0.93683961782E+03  0.94598534242E+03  0.68673843660E+02 0.  0.
         -6    2    1    2    0  501 -0.67957147387E+02  0.74919960860E+02 -0.94722860931E+03  0.96814499669E+03  0.17271804165E+03 0.  0.
        -24    2    5    5    0    0 -0.66974184135E+02 -0.15851748889E+02 -0.40816644957E+03  0.42147272597E+03  0.79388846218E+02 0.  0.
          5    1    3    3  502    0  0.40774544026E+02  0.33545737970E+02 -0.93577637803E+03  0.93727658652E+03  0.47000000000E+01 0. -1.
        -11    1    4    4    0    0  0.76590293632E+01 -0.42716351872E+02 -0.14970766424E+03  0.15587088304E+03  0.00000000000E+00 0.  1.
         12    1    4    4    0    0  0.19523573998E+02 -0.65749346957E+02 -0.78713195359E+03  0.79011445938E+03  0.00000000000E+00 0. -1.
         -5    1    5    5    0  501 -0.98296325173E+00  0.90771709749E+02 -0.53906215974E+03  0.54667227072E+03  0.47000000000E+01 0.  1.
         11    1    6    6    0    0 -0.44916901363E+02 -0.20289912979E+02 -0.38842758507E+03  0.39154207621E+03  0.00000000000E+00 0. -1.
        -12    1    6    6    0    0 -0.22057282772E+02  0.44381640897E+01 -0.19738864494E+02  0.29930649764E+02  0.00000000000E+00 0.  1.
</event>
<event>
12    1  0.2609167E-002  0.1843618E+03  0.7818608E-02  0.1163647E+00
         -1   -1    0    0    0  501 -0.00000000000E+00  0.00000000000E+00  0.14435135312E+03  0.14435135312E+03  0.00000000000E+00 0. -1.
          1   -1    0    0  502    0  0.00000000000E+00 -0.00000000000E+00 -0.23601380788E+03  0.23601380788E+03  0.00000000000E+00 0.  1.
          6    2    1    2  502    0  0.59414691852E+02 -0.27946020538E+02 -0.37125889044E+02  0.18950742528E+03  0.17384949505E+03 0.  0.
         24    2    3    3    0    0  0.62698941854E+02 -0.12343292852E+02 -0.82204384084E+02  0.14146169577E+03  0.95761873516E+02 0.  0.
         -6    2    1    2    0  501 -0.59414691852E+02  0.27946020538E+02 -0.54536565713E+02  0.19085773571E+03  0.17070838471E+03 0.  0.
        -24    2    5    5    0    0 -0.11837321024E+02 -0.47548494215E+02 -0.21042013789E+02  0.95427117035E+02  0.79136507696E+02 0.  0.
          5    1    3    3  502    0 -0.32842500017E+01 -0.15602727685E+02  0.45078495040E+02  0.48045729512E+02  0.47000000000E+01 0. -1.
        -13    1    4    4    0    0  0.63733365070E+01 -0.42913863982E+02 -0.92564071402E+01  0.44361021328E+02  0.00000000000E+00 0.  1.
         14    1    4    4    0    0  0.56325605347E+02  0.30570571130E+02 -0.72947976944E+02  0.97100674442E+02  0.00000000000E+00 0. -1.
         -5    1    5    5    0  501 -0.47577370828E+02  0.75494514752E+02 -0.33494551924E+02  0.95430618677E+02  0.47000000000E+01 0.  1.
         11    1    6    6    0    0 -0.35134259291E+02  0.32904097075E+01  0.10381942830E+01  0.35303269245E+02  0.00000000000E+00 0. -1.
        -12    1    6    6    0    0  0.23296938267E+02 -0.50838903922E+02 -0.22080208072E+02  0.60123847790E+02  0.00000000000E+00 0.  1.
</event>
<event>
12    1  0.2609167E-002  0.2544525E+03  0.7818608E-02  0.1110523E+00
          1   -1    0    0  502    0  0.00000000000E+00  0.00000000000E+00  0.82106076764E+02  0.82106076764E+02  0.00000000000E+00 0. -1.
         -1   -1    0    0    0  501 -0.00000000000E+00 -0.00000000000E+00 -0.10996435643E+04  0.10996435643E+04  0.00000000000E+00 0.  1.
          6    2    1    2  502    0 -0.81893648791E+02 -0.16768546440E+03 -0.82454108071E+03  0.86322206681E+03  0.17452609594E+03 0.  0.
         24    2    3    3    0    0 -0.69119931242E+02 -0.12611558360E+03 -0.34318636025E+03  0.37988400731E+03  0.76500168800E+02 0.  0.
         -6    2    1    2    0  501  0.81893648791E+02  0.16768546440E+03 -0.19299640678E+03  0.31852757421E+03  0.17142700435E+03 0.  0.
        -24    2    5    5    0    0  0.20360110838E+02  0.13056292441E+03 -0.19162773245E+03  0.24649686868E+03  0.81106763491E+02 0.  0.
          5    1    3    3  502    0 -0.12773717549E+02 -0.41569880797E+02 -0.48135472046E+03  0.48333805950E+03  0.47000000000E+01 0. -1.
        -13    1    4    4    0    0  0.86692486567E+01 -0.56660597888E+01 -0.75567518495E+02  0.76273914002E+02  0.00000000000E+00 0.  1.
         14    1    4    4    0    0 -0.77789179898E+02 -0.12044952381E+03 -0.26761884176E+03  0.30361009331E+03  0.00000000000E+00 0. -1.
         -5    1    5    5    0  501  0.61533537953E+02  0.37122539993E+02 -0.13686743236E+01  0.72030705522E+02  0.47000000000E+01 0.  1.
         11    1    6    6    0    0  0.88466963958E+01 -0.50291986274E+01  0.14545327408E+01  0.10279715047E+02  0.00000000000E+00 0. -1.
        -12    1    6    6    0    0  0.11513414442E+02  0.13559212303E+03 -0.19308226519E+03  0.23621715364E+03  0.00000000000E+00 0.  1.
</event>
<event>
12    1  0.2609167E-002  0.1742686E+03  0.7818608E-02  0.1173468E+00
          2   -1    0    0  502    0  0.00000000000E+00  0.00000000000E+00  0.10764634653E+04  0.10764634653E+04  0.00000000000E+00 0.  1.
         -2   -1    0    0    0  501 -0.00000000000E+00 -0.00000000000E+00 -0.33736703735E+02  0.33736703735E+02  0.00000000000E+00 0. -1.
          6    2    1    2  502    0  0.13932106447E+02  0.30427699546E+02  0.74755622826E+03  0.76774348678E+03  0.17166769819E+03 0.  0.
         24    2    3    3    0    0  0.25084476032E+02 -0.43472923872E+02  0.51488151629E+03  0.52331499196E+03  0.78971380587E+02 0.  0.
         -6    2    1    2    0  501 -0.13932106447E+02 -0.30427699546E+02  0.29517053332E+03  0.34245668226E+03  0.17038482033E+03 0.  0.
        -24    2    5    5    0    0  0.34631629939E+02 -0.19554948472E+02  0.73154421869E+02  0.11488274494E+03  0.79150046387E+02 0.  0.
          5    1    3    3  502    0 -0.11152369585E+02  0.73900623418E+02  0.23267471197E+03  0.24442849482E+03  0.47000000000E+01 0. -1.
        -13    1    4    4    0    0  0.49364841355E+02 -0.71826429927E+01  0.28034305941E+03  0.28474674516E+03  0.00000000000E+00 0.  1.
         14    1    4    4    0    0 -0.24280365322E+02 -0.36290280879E+02  0.23453845688E+03  0.23856824681E+03  0.00000000000E+00 0. -1.
         -5    1    5    5    0  501 -0.48563736386E+02 -0.10872751074E+02  0.22201611145E+03  0.22757393733E+03  0.47000000000E+01 0.  1.
         11    1    6    6    0    0  0.34931570691E+02 -0.48372219917E+02  0.46807672508E+02  0.75835641332E+02  0.00000000000E+00 0. -1.
        -12    1    6    6    0    0 -0.29994075248E+00  0.28817271445E+02  0.26346749362E+02  0.39047103604E+02  0.00000000000E+00 0.  1.
</event>
<event>
12    1  0.2609167E-002  0.2749866E+03  0.7818608E-02  0.1098459E+00
         -2   -1    0    0    0  501 -0.00000000000E+00  0.00000000000E+00  0.70256289755E+02  0.70256289755E+02  0.00000000000E+00 0.  1.
          2   -1    0    0  502    0  0.00000000000E+00 -0.00000000000E+00 -0.11616119152E+04  0.11616119152E+04  0.00000000000E+00 0. -1.
          6    2    1    2  502    0  0.51098434254E+02  0.20838750042E+03 -0.71246369948E+03  0.76366574904E+03  0.17188499897E+03 0.  0.
         24    2    3    3    0    0 -0.15473863510E+02  0.16869901882E+03 -0.49028029994E+03  0.52830517581E+03  0.10016380022E+03 0.  0.
         -6    2    1    2    0  501 -0.51098434254E+02 -0.20838750042E+03 -0.37889192600E+03  0.46820245595E+03  0.17209894786E+03 0.  0.
        -24    2    5    5    0    0 -0.36247298117E+02 -0.20829135834E+03 -0.38918939853E+03  0.44952912126E+03  0.76869280985E+02 0.  0.
          5    1    3    3  502    0  0.66572297764E+02  0.39688481596E+02 -0.22218339954E+03  0.23536057323E+03  0.47000000000E+01 0. -1.
        -13    1    4    4    0    0 -0.33262453254E+02  0.13462370473E+03 -0.25838083750E+03  0.29324152137E+03  0.00000000000E+00 0.  1.
         14    1    4    4    0    0  0.17788589744E+02  0.34075314090E+02 -0.23189946244E+03  0.23506365444E+03  0.00000000000E+00 0. -1.
         -5    1    5    5    0  501 -0.14851136138E+02 -0.96142080576E-01  0.10297472527E+02  0.18673334686E+02  0.47000000000E+01 0.  1.
         13    1    6    6    0    0 -0.48657620372E+02 -0.11458833029E+03 -0.27072678831E+03  0.29797825989E+03  0.00000000000E+00 0. -1.
        -14    1    6    6    0    0  0.12410322256E+02 -0.93703028043E+02 -0.11846261022E+03  0.15155086137E+03  0.00000000000E+00 0.  1.
</event>
<event>
12    1  0.2609167E-002  0.1786154E+03  0.7818608E-02  0.1169150E+00
         -2   -1    0    0    0  501 -0.00000000000E+00  0.00000000000E+00  0.31696194978E+02  0.31696194978E+02  0.00000000000E+00 0. -1.
          2   -1    0    0  502    0  0.00000000000E+00 -0.00000000000E+00 -0.10106757570E+04  0.10106757570E+04  0.00000000000E+00 0.  1.
          6    2    1    2  502    0  0.38186351953E+02 -0.29639236658E+02 -0.45287999905E+03  0.48636674423E+03  0.17063304057E+03 0.  0.
         24    2    3    3    0    0 -0.16610343953E+02 -0.46085363512E+02 -0.39608962738E+03  0.40561781678E+03  0.72381324347E+02 0.  0.
         -6    2    1    2    0  501 -0.38186351953E+02  0.29639236658E+02 -0.52609956300E+03  0.55600520778E+03  0.17327538502E+03 0.  0.
        -24    2    5    5    0    0 -0.80061323495E+02  0.16378885627E+02 -0.47380212381E+03  0.48754746682E+03  0.80845509808E+02 0.  0.
          5    1    3    3  502    0  0.54796695906E+02  0.16446126854E+02 -0.56790371666E+02  0.80748927452E+02  0.47000000000E+01 0. -1.
        -13    1    4    4    0    0 -0.37382577381E+02 -0.13357000799E+02 -0.11059751451E+03  0.11750607123E+03  0.00000000000E+00 0.  1.
         14    1    4    4    0    0  0.20772233428E+02 -0.32728362713E+02 -0.28549211288E+03  0.28811174555E+03  0.00000000000E+00 0. -1.
         -5    1    5    5    0  501  0.41874971543E+02  0.13260351031E+02 -0.52297439191E+02  0.68457740958E+02  0.47000000000E+01 0.  1.
         13    1    6    6    0    0 -0.55813447130E+02 -0.26630716013E+02 -0.32305006902E+03  0.32891592088E+03  0.00000000000E+00 0. -1.
        -14    1    6    6    0    0 -0.24247876366E+02  0.43009601640E+02 -0.15075205479E+03  0.15863154593E+03  0.00000000000E+00 0.  1.
</event>
<event>
12    1  0.2609167E-002  0.2314961E+03  0.7818608E-02  0.1125591E+00
          1   -1    0    0  502    0  0.00000000000E+00  0.00000000000E+00  0.19311822994E+04  0.19311822994E+04  0.00000000000E+00 0. -1.
         -1   -1    0    0    0  501 -0.00000000000E+00 -0.00000000000E+00 -0.37114063737E+02  0.37114063737E+02  0.00000000000E+00 0.  1.
          6    2    1    2  502    0 -0.15057331795E+03  0.32639322012E+02  0.14415152904E+04  0.14599927299E+04  0.17284325095E+03 0.  0.
         24    2    3    3    0    0 -0.13096489277E+03  0.42127726046E+02  0.14203267118E+04  0.14292426728E+04  0.80499074230E+02 0.  0.
         -6    2    1    2    0  501  0.15057331795E+03 -0.32639322012E+02  0.45255294530E+03  0.50830363330E+03  0.17271585310E+03 0.  0.
        -24    2    5    5    0    0  0.10192808863E+02 -0.44311587612E+02  0.17887591325E+03  0.20046579127E+03  0.78246603631E+02 0.  0.
          5    1    3    3  502    0 -0.19608425182E+02 -0.94884040339E+01  0.21188578607E+02  0.30750057116E+02  0.47000000000E+01 0. -1.
        -13    1    4    4    0    0 -0.96890437982E+01  0.29887561681E+02  0.16146005776E+03  0.16448858369E+03  0.00000000000E+00 0.  1.
         14    1    4    4    0    0 -0.12127584897E+03  0.12240164366E+02  0.12588666540E+04  0.12647540891E+04  0.00000000000E+00 0. -1.
         -5    1    5    5    0  501  0.14038050909E+03  0.11672265599E+02  0.27367703205E+03  0.30783784203E+03  0.47000000000E+01 0.  1.
         11    1    6    6    0    0  0.18943092207E+02 -0.10607120937E+02  0.15878782565E+03  0.16026517193E+03  0.00000000000E+00 0. -1.
        -12    1    6    6    0    0 -0.87502833443E+01 -0.33704466675E+02  0.20088087597E+02  0.40200619345E+02  0.00000000000E+00 0.  1.
</event>
<event>
12    1  0.2609167E-002  0.1838645E+03  0.7818608E-02  0.1164115E+00
          2   -1    0    0  502    0  0.00000000000E+00  0.00000000000E+00  0.28891584717E+03  0.28891584717E+03  0.00000000000E+00 0.  1.
         -2   -1    0    0    0  501 -0.00000000000E+00 -0.00000000000E+00 -0.11720356004E+03  0.11720356004E+03  0.00000000000E+00 0. -1.
          6    2    1    2  502    0  0.46993412321E+02  0.45172664345E+02  0.94154071775E+02  0.20667381054E+03  0.17204686665E+03 0.  0.
         24    2    3    3    0    0 -0.12482885583E+02 -0.28834170704E+02  0.61042319729E+02  0.10601140559E+03  0.80777605095E+02 0.  0.
         -6    2    1    2    0  501 -0.46993412321E+02 -0.45172664345E+02  0.77558215355E+02  0.19944559667E+03  0.17179731912E+03 0.  0.
        -24    2    5    5    0    0 -0.80468997127E+02  0.13361113620E+02  0.32406497509E+02  0.11815854010E+03  0.79104239219E+02 0.  0.
          5    1    3    3  502    0  0.59476297905E+02  0.74006835049E+02  0.33111752046E+02  0.10066240495E+03  0.47000000000E+01 0. -1.
        -13    1    4    4    0    0 -0.44008818100E+00 -0.53049519654E+02  0.58305294522E+02  0.78828627936E+02  0.00000000000E+00 0.  1.
         14    1    4    4    0    0 -0.12042797402E+02  0.24215348950E+02  0.27370252071E+01  0.27182777655E+02  0.00000000000E+00 0. -1.
         -5    1    5    5    0  501  0.33475584806E+02 -0.58533777965E+02  0.45151717846E+02  0.81287056567E+02  0.47000000000E+01 0.  1.
         11    1    6    6    0    0 -0.69044963927E+02  0.15576031747E+01 -0.12640674295E+02  0.70209827076E+02  0.00000000000E+00 0. -1.
        -12    1    6    6    0    0 -0.11424033200E+02  0.11803510445E+02  0.45047171804E+02  0.47948713027E+02  0.00000000000E+00 0.  1.
</event>
<event>
12    1  0.2609167E-002  0.4049996E+03  0.7818608E-02  0.1042062E+00
          1   -1    0    0  502    0  0.00000000000E+00  0.00000000000E+00  0.46857572342E+03  0.46857572342E+03  0.00000000000E+00 0. -1.
         -1   -1    0    0    0  501 -0.00000000000E+00 -0.00000000000E+00 -0.35146885362E+03  0.35146885362E+03  0.00000000000E+00 0.  1.
          6    2    1    2  502    0  0.32227807681E+03 -0.17486985779E+03  0.32508961186E+02  0.40638002216E+03  0.17217800063E+03 0.  0.
         24    2    3    3    0    0  0.39386443944E+02 -0.17492059198E+02 -0.32168803898E+02  0.76227404832E+02  0.54023339416E+02 0.  0.
         -6    2    1    2    0  501 -0.32227807681E+03  0.17486985779E+03  0.84597908615E+02  0.41366455488E+03  0.17181074433E+03 0.  0.
        -24    2    5    5    0    0 -0.25711634253E+03  0.11274661987E+03  0.12148623989E+03  0.31625722822E+03  0.80244090300E+02 0.  0.
          5    1    3    3  502    0  0.28289163286E+03 -0.15737779859E+03  0.64677765083E+02  0.33015261733E+03  0.47000000000E+01 0. -1.
        -13    1    4    4    0    0  0.45083323232E+02 -0.12209392156E+02 -0.38540231120E+01  0.46866072852E+02  0.00000000000E+00 0.  1.
         14    1    4    4    0    0 -0.56968792874E+01 -0.52826670419E+01 -0.28314780786E+02  0.29361331980E+02  0.00000000000E+00 0. -1.
         -5    1    5    5    0  501 -0.65161734275E+02  0.62123237919E+02 -0.36888331275E+02  0.97407326662E+02  0.47000000000E+01 0.  1.
         11    1    6    6    0    0 -0.12266753849E+03  0.96545227050E+02  0.73963001500E+02  0.17273920070E+03  0.00000000000E+00 0. -1.
        -12    1    6    6    0    0 -0.13444880404E+03  0.16201392821E+02  0.47523238390E+02  0.14351802752E+03  0.00000000000E+00 0.  1.
</event>
<event>
12    1  0.2609167E-002  0.2137690E+03  0.7818608E-02  0.1138616E+00
         -1   -1    0    0    0  501 -0.00000000000E+00  0.00000000000E+00  0.28988660912E+02  0.28988660912E+02  0.00000000000E+00 0. -1.
          1   -1    0    0  502    0  0.00000000000E+00 -0.00000000000E+00 -0.17934507871E+04  0.17934507871E+04  0.00000000000E+00 0.  1.
          6    2    1    2  502    0  0.12815681466E+03 -0.20891587640E+00 -0.12006444021E+04  0.12195942037E+04  0.17157747125E+03 0.  0.
         24    2    3    3    0    0  0.13484143440E+03 -0.45824815357E+02 -0.81359969134E+03  0.82978502918E+03  0.79477108380E+02 0.  0.
         -6    2    1    2    0  501 -0.12815681466E+03  0.20891587640E+00 -0.56381772405E+03  0.60284524426E+03  0.17060993461E+03 0.  0.
        -24    2    5    5    0    0 -0.70535011036E+02  0.71197126541E+01 -0.15169270811E+03  0.18662757269E+03  0.82421448087E+02 0.  0.
          5    1    3    3  502    0 -0.66846197449E+01  0.45615899480E+02 -0.38704471077E+03  0.38980917455E+03  0.47000000000E+01 0. -1.
        -11    1    4    4    0    0  0.42838386835E+02 -0.18373432421E+02 -0.10726783740E+03  0.11695768186E+03  0.00000000000E+00 0.  1.
         12    1    4    4    0    0  0.92003047570E+02 -0.27451382935E+02 -0.70633185394E+03  0.71282734732E+03  0.00000000000E+00 0. -1.
         -5    1    5    5    0  501 -0.57621803624E+02 -0.69107967777E+01 -0.41212501594E+03  0.41621767157E+03  0.47000000000E+01 0.  1.
         13    1    6    6    0    0 -0.46316960707E+02  0.33315219528E+02 -0.40810018029E+02  0.70147147290E+02  0.00000000000E+00 0. -1.
        -14    1    6    6    0    0 -0.24218050329E+02 -0.26195506874E+02 -0.11088269008E+03  0.11648042540E+03  0.00000000000E+00 0.  1.
</event>
<event>
12    1  0.2609167E-002  0.1891083E+03  0.7818608E-02  0.1159268E+00
         -2   -1    0    0    0  501 -0.00000000000E+00  0.00000000000E+00  0.36307812321E+02  0.36307812321E+02  0.00000000000E+00 0.  1.
          2   -1    0    0  502    0  0.00000000000E+00 -0.00000000000E+00 -0.99442504904E+03  0.99442504904E+03  0.00000000000E+00 0. -1.
          6    2    1    2  502    0 -0.73529073078E+02  0.22670423167E+02 -0.42826710660E+03  0.46807570727E+03  0.17251573976E+03 0.  0.
         24    2    3    3    0    0 -0.80125264045E+02  0.55925412656E+02 -0.19590440141E+03  0.23320569892E+03  0.80365750144E+02 0.  0.
         -6    2    1    2    0  501  0.73529073078E+02 -0.22670423167E+02 -0.52985013012E+03  0.56265715410E+03  0.17297814888E+03 0.  0.
        -24    2    5    5    0    0 -0.59256260876E+00 -0.63920479119E+02 -0.23965699246E+03  0.26028365800E+03  0.78904561383E+02 0.  0.
          5    1    3    3  502    0  0.65961909668E+01 -0.33254989489E+02 -0.23236270519E+03  0.23487000835E+03  0.47000000000E+01 0. -1.
        -11    1    4    4    0    0 -0.44899483537E+02 -0.39709371942E+01 -0.32289714619E+02  0.55446890213E+02  0.00000000000E+00 0.  1.
         12    1    4    4    0    0 -0.35225780508E+02  0.59896349850E+02 -0.16361468680E+03  0.17775880871E+03  0.00000000000E+00 0. -1.
         -5    1    5    5    0  501  0.74121635687E+02  0.41250055952E+02 -0.29019313766E+03  0.30237349609E+03  0.47000000000E+01 0.  1.
         11    1    6    6    0    0  0.10334467147E+02 -0.75264044274E+02 -0.22898453844E+03  0.24125794581E+03  0.00000000000E+00 0. -1.
        -12    1    6    6    0    0 -0.10927029756E+02  0.11343565155E+02 -0.10672454025E+02  0.19025712197E+02  0.00000000000E+00 0.  1.
</event>
<event>
12    1  0.2609167E-002  0.1713595E+03  0.7818608E-02  0.1176437E+00
         -2   -1    0    0    0  501 -0.00000000000E+00  0.00000000000E+00  0.42245668664E+02  0.42245668664E+02  0.00000000000E+00 0.  1.
          2   -1    0    0  502    0  0.00000000000E+00 -0.00000000000E+00 -0.75765160067E+03  0.75765160067E+03  0.00000000000E+00 0. -1.
          6    2    1    2  502    0 -0.32908007226E+02 -0.27100247877E+01 -0.23546021991E+03  0.28889883461E+03  0.16410588138E+03 0.  0.
         24    2    3    3    0    0 -0.45930263402E+02  0.31452667161E+02 -0.74789723560E+02  0.12405415901E+03  0.81835641681E+02 0.  0.
         -6    2    1    2    0  501  0.32908007226E+02  0.27100247877E+01 -0.47994571210E+03  0.51099843472E+03  0.17228242091E+03 0.  0.
        -24    2    5    5    0    0 -0.23082611443E+02  0.23402038913E+02 -0.40835129763E+03  0.41766591622E+03  0.81323876687E+02 0.  0.
          5    1    3    3  502    0  0.13022256175E+02 -0.34162691948E+02 -0.16067049635E+03  0.16484467560E+03  0.47000000000E+01 0. -1.
        -11    1    4    4    0    0 -0.33816618823E+02  0.59315649527E+02 -0.47107540579E+02  0.82951976269E+02  0.00000000000E+00 0.  1.
         12    1    4    4    0    0 -0.12113644578E+02 -0.27862982367E+02 -0.27682182980E+02  0.41102182739E+02  0.00000000000E+00 0. -1.
         -5    1    5    5    0  501  0.55990618669E+02 -0.20692014125E+02 -0.71594414469E+02  0.93332518506E+02  0.47000000000E+01 0.  1.
         13    1    6    6    0    0 -0.68454720755E+01  0.45451012179E+02 -0.12840553544E+03  0.13638415057E+03  0.00000000000E+00 0. -1.
        -14    1    6    6    0    0 -0.16237139367E+02 -0.22048973266E+02 -0.27994576219E+03  0.28128176564E+03  0.00000000000E+00 0.  1.
</event>
<event>
12    1  0.2609167E-002  0.2147008E+03  0.7818608E-02  0.1137897E+00
          2   -1    0    0  502    0  0.00000000000E+00  0.00000000000E+00  0.54297634134E+03  0.54297634134E+03  0.00000000000E+00 0.  1.
         -2   -1    0    0    0  501 -0.00000000000E+00 -0.00000000000E+00 -0.86906803616E+02  0.86906803616E+02  0.00000000000E+00 0. -1.
          6    2    1    2  502    0 -0.11191591385E+03  0.59493609832E+02  0.18001133244E+03  0.28009379592E+03  0.17315828979E+03 0.  0.
         24    2    3    3    0    0  0.11734613644E+02  0.33891896829E+02  0.86544653069E+02  0.12292188110E+03  0.79582975876E+02 0.  0.
         -6    2    1    2    0  501  0.11191591385E+03 -0.59493609832E+02  0.27605820528E+03  0.34978934903E+03  0.17343527499E+03 0.  0.
        -24    2    5    5    0    0  0.43743194745E+02  0.24591041964E+02  0.18730867194E+03  0.20973108271E+03  0.79902453267E+02 0.  0.
          5    1    3    3  502    0 -0.12365052749E+03  0.25601713003E+02  0.93466679369E+02  0.15717191482E+03  0.47000000000E+01 0. -1.
        -11    1    4    4    0    0 -0.34026197657E+02  0.95597366897E+01  0.38279250848E+02  0.52100592492E+02  0.00000000000E+00 0.  1.
         12    1    4    4    0    0  0.45760811301E+02  0.24332160139E+02  0.48265402221E+02  0.70821288604E+02  0.00000000000E+00 0. -1.
         -5    1    5    5    0  501  0.68172719102E+02 -0.84084651796E+02  0.88749533343E+02  0.14005826632E+03  0.47000000000E+01 0.  1.
         13    1    6    6    0    0  0.46881949630E+01 -0.28248815151E+02  0.55335169531E+02  0.62305342600E+02  0.00000000000E+00 0. -1.
        -14    1    6    6    0    0  0.39054999782E+02  0.52839857116E+02  0.13197350241E+03  0.14742574011E+03  0.00000000000E+00 0.  1.
</event>
<event>
12    1  0.2609167E-002  0.2535803E+03  0.7818608E-02  0.1111063E+00
         -2   -1    0    0    0  501 -0.00000000000E+00  0.00000000000E+00  0.19994935216E+03  0.19994935216E+03  0.00000000000E+00 0. -1.
          2   -1    0    0  502    0  0.00000000000E+00 -0.00000000000E+00 -0.52370125488E+03  0.52370125488E+03  0.00000000000E+00 0.  1.
          6    2    1    2  502    0 -0.18579535331E+03 -0.39739319103E+01 -0.38666866327E+03  0.46242860316E+03  0.17260316458E+03 0.  0.
         24    2    3    3    0    0 -0.60074537109E+02  0.12265373283E+02 -0.27712553445E+03  0.29482423051E+03  0.79770769475E+02 0.  0.
         -6    2    1    2    0  501  0.18579535331E+03  0.39739319103E+01  0.62916760548E+02  0.26122200388E+03  0.17246075236E+03 0.  0.
        -24    2    5    5    0    0  0.18745464073E+03  0.47670557464E+02  0.45407077617E+02  0.21388462630E+03  0.79202943691E+02 0.  0.
          5    1    3    3  502    0 -0.12572081621E+03 -0.16239305194E+02 -0.10954312882E+03  0.16760437265E+03  0.47000000000E+01 0. -1.
        -13    1    4    4    0    0 -0.32501289193E+02 -0.32914695571E+02 -0.10483137082E+03  0.11458327666E+03  0.00000000000E+00 0.  1.
         14    1    4    4    0    0 -0.27573247916E+02  0.45180068854E+02 -0.17229416363E+03  0.18024095385E+03  0.00000000000E+00 0. -1.
         -5    1    5    5    0  501 -0.16592874159E+01 -0.43696625554E+02  0.17509682931E+02  0.47337377577E+02  0.47000000000E+01 0.  1.
         11    1    6    6    0    0  0.14127506687E+03  0.89622279913E+01  0.56068604630E+01  0.14167004953E+03  0.00000000000E+00 0. -1.
        -12    1    6    6    0    0  0.46179573862E+02  0.38708329473E+02  0.39800217154E+02  0.72214576770E+02  0.00000000000E+00 0.  1.
</event>
<event>
12    1  0.2609167E-002  0.2635099E+03  0.7818608E-02  0.1105053E+00
          1   -1    0    0  502    0  0.00000000000E+00  0.00000000000E+00  0.37330780717E+03  0.37330780717E+03  0.00000000000E+00 0. -1.
         -1   -1    0    0    0  501 -0.00000000000E+00 -0.00000000000E+00 -0.18660998336E+03  0.18660998336E+03  0.00000000000E+00 0.  1.
          6    2    1    2  502    0 -0.14455488760E+03 -0.13828957943E+03  0.10920783899E+03  0.28506711395E+03  0.17122144742E+03 0.  0.
         24    2    3    3    0    0 -0.45752357148E+02 -0.76121530295E+01  0.69802321279E+02  0.11650432263E+03  0.80930031986E+02 0.  0.
         -6    2    1    2    0  501  0.14455488760E+03  0.13828957943E+03  0.77489984826E+02  0.27485067658E+03  0.17180824591E+03 0.  0.
        -24    2    5    5    0    0  0.64800966302E+02  0.52313783832E+02  0.10274350786E+03  0.15479920506E+03  0.80440464116E+02 0.  0.
          5    1    3    3  502    0 -0.98802530452E+02 -0.13067742640E+03  0.39405517707E+02  0.16856279132E+03  0.47000000000E+01 0. -1.
        -11    1    4    4    0    0  0.41591616807E+01 -0.13952875625E+02 -0.13063096146E+02  0.19560824242E+02  0.00000000000E+00 0.  1.
         12    1    4    4    0    0 -0.49911518829E+02  0.63407225959E+01  0.82865417425E+02  0.96943498388E+02  0.00000000000E+00 0. -1.
         -5    1    5    5    0  501  0.79753921298E+02  0.85975795594E+02 -0.25253523029E+02  0.12005147153E+03  0.47000000000E+01 0.  1.
         13    1    6    6    0    0  0.62457348305E+02  0.21775162610E+02  0.10498991534E+03  0.12408851835E+03  0.00000000000E+00 0. -1.
        -14    1    6    6    0    0  0.23436179963E+01  0.30538621222E+02 -0.22464074798E+01  0.30710686707E+02  0.00000000000E+00 0.  1.
</event>
<event>
12    1  0.2609167E-002  0.1684756E+03  0.7818608E-02  0.1179447E+00
          2   -1    0    0  502    0  0.00000000000E+00  0.00000000000E+00  0.13210634294E+03  0.13210634294E+03  0.00000000000E+00 0. -1.
         -2   -1    0    0    0  501 -0.00000000000E+00 -0.00000000000E+00 -0.22847101599E+03  0.22847101599E+03  0.00000000000E+00 0.  1.
          6    2    1    2  502    0 -0.26929664345E+02 -0.19979016936E+02 -0.70825942461E+01  0.17663017981E+03  0.17327345250E+03 0.  0.
         24    2    3    3    0    0 -0.16127525359E+01  0.28770215722E+02  0.49386619796E+02  0.97710626830E+02  0.79233844393E+02 0.  0.
         -6    2    1    2    0  501  0.26929664345E+02  0.19979016936E+02 -0.89282078804E+02  0.18394717912E+03  0.15729242566E+03 0.  0.
        -24    2    5    5    0    0  0.75925796985E+02  0.64298374479E+01 -0.58573647273E+02  0.12437118525E+03  0.78938267699E+02 0.  0.
          5    1    3    3  502    0 -0.25316911809E+02 -0.48749232659E+02 -0.56469214042E+02  0.78919552982E+02  0.47000000000E+01 0. -1.
        -13    1    4    4    0    0  0.89493630493E+01 -0.23426908162E+02  0.34055239498E+02  0.42292676225E+02  0.00000000000E+00 0.  1.
         14    1    4    4    0    0 -0.10562115585E+02  0.52197123884E+02  0.15331380298E+02  0.55417950605E+02  0.00000000000E+00 0. -1.
         -5    1    5    5    0  501 -0.48996132640E+02  0.13549179488E+02 -0.30708431531E+02  0.59575993870E+02  0.47000000000E+01 0.  1.
         13    1    6    6    0    0 -0.12663352594E+01  0.10963146100E+02  0.14336967531E+02  0.18092617704E+02  0.00000000000E+00 0. -1.
        -14    1    6    6    0    0  0.77192132245E+02 -0.45333086520E+01 -0.72910614804E+02  0.10627856754E+03  0.00000000000E+00 0.  1.
</event>
<event>
12    1  0.2609167E-002  0.2001049E+03  0.7818608E-02  0.1149651E+00
          1   -1    0    0  502    0  0.00000000000E+00  0.00000000000E+00  0.13942922666E+04  0.13942922666E+04  0.00000000000E+00 0.  1.
         -1   -1    0    0    0  501 -0.00000000000E+00 -0.00000000000E+00 -0.31736256103E+02  0.31736256103E+02  0.00000000000E+00 0. -1.
          6    2    1    2  502    0  0.71536798251E+02 -0.75702432794E+02  0.46741979916E+03  0.50921280235E+03  0.17311278865E+03 0.  0.
         24    2    3    3    0    0 -0.20996455671E+01 -0.94928210843E+01  0.10255064479E+03  0.13111542289E+03  0.81117798353E+02 0.  0.
         -6    2    1    2    0  501 -0.71536798251E+02  0.75702432794E+02  0.89513621133E+03  0.91681572035E+03  0.16862341595E+03 0.  0.
        -24    2    5    5    0    0  0.25006569756E+02  0.20286312225E+02  0.41546742715E+03  0.42437709387E+03  0.80286186785E+02 0.  0.
          5    1    3    3  502    0  0.73636443818E+02 -0.66209611710E+02  0.36486915438E+03  0.37809737946E+03  0.47000000000E+01 0. -1.
        -11    1    4    4    0    0 -0.12172805233E+02  0.85254047946E+01  0.10859400025E+03  0.10960618871E+03  0.00000000000E+00 0.  1.
         12    1    4    4    0    0  0.10073159666E+02 -0.18018225879E+02 -0.60433554648E+01  0.21509234174E+02  0.00000000000E+00 0. -1.
         -5    1    5    5    0  501 -0.96543368007E+02  0.55416120569E+02  0.47966878419E+03  0.49243862648E+03  0.47000000000E+01 0.  1.
         11    1    6    6    0    0 -0.13005476142E+02 -0.18818599789E+02  0.51569327247E+02  0.56415225076E+02  0.00000000000E+00 0. -1.
        -12    1    6    6    0    0  0.38012045898E+02  0.39104912014E+02  0.36389809990E+03  0.36796186879E+03  0.00000000000E+00 0.  1.
</event>
<event>
12    1  0.2609167E-002  0.3456965E+03  0.7818608E-02  0.1064395E+00
          2   -1    0    0  502    0  0.00000000000E+00  0.00000000000E+00  0.89431067720E+03  0.89431067720E+03  0.00000000000E+00 0.  1.
         -2   -1    0    0    0  501 -0.00000000000E+00 -0.00000000000E+00 -0.28842546041E+03  0.28842546041E+03  0.00000000000E+00 0. -1.
          6    2    1    2  502    0 -0.16486419913E+03  0.24917381037E+03 -0.13071422789E+03  0.36860240703E+03  0.17179561453E+03 0.  0.
         24    2    3    3    0    0 -0.12203492768E+03  0.21422990449E+03 -0.16092820999E+03  0.30543281178E+03  0.81267079353E+02 0.  0.
         -6    2    1    2    0  501  0.16486419913E+03 -0.24917381037E+03  0.73659944467E+03  0.81413373058E+03  0.17597499096E+03 0.  0.
        -24    2    5    5    0    0  0.13229264741E+03 -0.19474466811E+03  0.39298430358E+03  0.46468145530E+03  0.77880432228E+02 0.  0.
          5    1    3    3  502    0 -0.42829271444E+02  0.34943905876E+02  0.30213982103E+02  0.63169595256E+02  0.47000000000E+01 0. -1.
        -13    1    4    4    0    0  0.93987914460E+01  0.13038367079E+02 -0.23873528972E+02  0.28779883292E+02  0.00000000000E+00 0.  1.
         14    1    4    4    0    0 -0.13143371913E+03  0.20119153741E+03 -0.13705468102E+03  0.27665292849E+03  0.00000000000E+00 0. -1.
         -5    1    5    5    0  501  0.32571551722E+02 -0.54429142256E+02  0.34361514109E+03  0.34945227528E+03  0.47000000000E+01 0.  1.
         13    1    6    6    0    0  0.29640606504E+02 -0.11253220816E+03  0.17823759590E+03  0.21286311099E+03  0.00000000000E+00 0. -1.
        -14    1    6    6    0    0  0.10265204090E+03 -0.82212459951E+02  0.21474670768E+03  0.25181834431E+03  0.00000000000E+00 0.  1.
</event>
<event>
12    1  0.2609167E-002  0.1969410E+03  0.7818608E-02  0.1152346E+00
          2   -1    0    0  502    0  0.00000000000E+00  0.00000000000E+00  0.64752066369E+03  0.64752066369E+03  0.00000000000E+00 0.  1.
         -2   -1    0    0    0  501 -0.00000000000E+00 -0.00000000000E+00 -0.62446439185E+02  0.62446439185E+02  0.00000000000E+00 0. -1.
          6    2    1    2  502    0 -0.34329861181E+01 -0.96423657378E+02  0.22030466358E+03  0.29524913506E+03  0.17125594840E+03 0.  0.
         24    2    3    3    0    0 -0.53041184450E+02 -0.34244054516E+02  0.17777066377E+03  0.20492467827E+03  0.80035569279E+02 0.  0.
         -6    2    1    2    0  501  0.34329861181E+01  0.96423657378E+02  0.36476956093E+03  0.41471796782E+03  0.17211871820E+03 0.  0.
        -24    2    5    5    0    0  0.51568225001E+02  0.22402912029E+02  0.12829492533E+03  0.16225328663E+03  0.81886316687E+02 0.  0.
          5    1    3    3  502    0  0.49608198332E+02 -0.62179602861E+02  0.42533999803E+02  0.90324456782E+02  0.47000000000E+01 0. -1.
        -13    1    4    4    0    0  0.71200172663E-01 -0.28560618035E+02  0.13052379706E+03  0.13361203378E+03  0.00000000000E+00 0.  1.
         14    1    4    4    0    0 -0.53112384623E+02 -0.56834364811E+01  0.47246866715E+02  0.71312644496E+02  0.00000000000E+00 0. -1.
         -5    1    5    5    0  501 -0.48135238883E+02  0.74020745349E+02  0.23647463561E+03  0.25246468119E+03  0.47000000000E+01 0.  1.
         11    1    6    6    0    0  0.73730580959E+02  0.21530521771E+02  0.93696826710E+02  0.12115633401E+03  0.00000000000E+00 0. -1.
        -12    1    6    6    0    0 -0.22162355958E+02  0.87239025757E+00  0.34598098616E+02  0.41096952615E+02  0.00000000000E+00 0.  1.
</event>
<event>
12    1  0.2609167E-002  0.2549988E+03  0.7818608E-02  0.1110186E+00
         -2   -1    0    0    0  501 -0.00000000000E+00  0.00000000000E+00  0.41219202756E+02  0.41219202756E+02  0.00000000000E+00 0. -1.
          2   -1    0    0  502    0  0.00000000000E+00 -0.00000000000E+00 -0.17469907794E+04  0.17469907794E+04  0.00000000000E+00 0.  1.
          6    2    1    2  502    0 -0.36698819268E+02  0.18392820784E+03 -0.57223010109E+03  0.62618056890E+03  0.17169282834E+03 0.  0.
         24    2    3    3    0    0 -0.28752312456E+02  0.18016142783E+03 -0.58006615485E+03  0.61349871805E+03  0.81357836127E+02 0.  0.
         -6    2    1    2    0  501  0.36698819268E+02 -0.18392820784E+03 -0.11335414755E+04  0.11620294132E+04  0.17383811865E+03 0.  0.
        -24    2    5    5    0    0 -0.48095895740E+02 -0.93408636852E+02 -0.61519171584E+03  0.62902613013E+03  0.78578855462E+02 0.  0.
          5    1    3    3  502    0 -0.79465068116E+01  0.37667800085E+01  0.78360537679E+01  0.12681850843E+02  0.47000000000E+01 0. -1.
        -11    1    4    4    0    0  0.20282828908E+02  0.29190905056E+02 -0.17225251410E+03  0.17588186575E+03  0.00000000000E+00 0.  1.
         12    1    4    4    0    0 -0.49035141365E+02  0.15097052277E+03 -0.40781364075E+03  0.43761685230E+03  0.00000000000E+00 0. -1.
         -5    1    5    5    0  501  0.84794715007E+02 -0.90519570984E+02 -0.51834975971E+03  0.53300328312E+03  0.47000000000E+01 0.  1.
         11    1    6    6    0    0 -0.47779920183E+02 -0.10240031226E+03 -0.46378619264E+03  0.47735351388E+03  0.00000000000E+00 0. -1.
        -12    1    6    6    0    0 -0.31597555639E+00  0.89916754114E+01 -0.15140552319E+03  0.15167261625E+03  0.00000000000E+00 0.  1.
</event>
<event>
12    1  0.2609167E-002  0.1849254E+03  0.7818608E-02  0.1163120E+00
         -1   -1    0    0    0  501 -0.00000000000E+00  0.00000000000E+00  0.12517212544E+03  0.12517212544E+03  0.00000000000E+00 0.  1.
          1   -1    0    0  502    0  0.00000000000E+00 -0.00000000000E+00 -0.38250909142E+03  0.38250909142E+03  0.00000000000E+00 0. -1.
          6    2    1    2  502    0 -0.23234161276E+02  0.64582000893E+02  0.67130664864E+01  0.18567268509E+03  0.17239089198E+03 0.  0.
         24    2    3    3    0    0  0.48042310068E+02  0.42119909955E+02  0.31985982126E+02  0.10664299977E+03  0.79167392129E+02 0.  0.
         -6    2    1    2    0  501  0.23234161276E+02 -0.64582000893E+02 -0.26405003247E+03  0.32200853178E+03  0.17104506366E+03 0.  0.
        -24    2    5    5    0    0 -0.34532453016E+02 -0.44388411543E+02 -0.23424446190E+03  0.25377932385E+03  0.79816388627E+02 0.  0.
          5    1    3    3  502    0 -0.71276471343E+02  0.22462090937E+02 -0.25272915639E+02  0.79029685317E+02  0.47000000000E+01 0. -1.
        -11    1    4    4    0    0  0.66007840065E+01  0.77104677302E+01  0.49089657303E+02  0.50127997329E+02  0.00000000000E+00 0.  1.
         12    1    4    4    0    0  0.41441526061E+02  0.34409442225E+02 -0.17103675177E+02  0.56515002443E+02  0.00000000000E+00 0. -1.
         -5    1    5    5    0  501  0.57766614291E+02 -0.20193589349E+02 -0.29805570574E+02  0.68229207930E+02  0.47000000000E+01 0.  1.
         11    1    6    6    0    0 -0.49238827507E+02 -0.14419919446E+02 -0.73695724371E+02  0.89796748280E+02  0.00000000000E+00 0. -1.
        -12    1    6    6    0    0  0.14706374491E+02 -0.29968492098E+02 -0.16054873752E+03  0.16398257557E+03  0.00000000000E+00 0.  1.
</event>
<event>
12    1  0.2609167E-002  0.2259780E+03  0.7818608E-02  0.1129503E+00
         -2   -1    0    0    0  501 -0.00000000000E+00  0.00000000000E+00  0.13111023151E+03  0.13111023151E+03  0.00000000000E+00 0.  1.
          2   -1    0    0  502    0  0.00000000000E+00 -0.00000000000E+00 -0.63499265645E+03  0.63499265645E+03  0.00000000000E+00 0. -1.
          6    2    1    2  502    0  0.12223312505E+03 -0.50880221047E+02 -0.49593942329E+03  0.54892431954E+03  0.19450517540E+03 0.  0.
         24    2    3    3    0    0  0.29695590274E+01 -0.80462698750E+02 -0.21626783057E+03  0.24341292705E+03  0.77427477967E+02 0.  0.
         -6    2    1    2    0  501 -0.12223312505E+03  0.50880221047E+02 -0.79430016509E+01  0.21717856841E+03  0.17197007167E+03 0.  0.
        -24    2    5    5    0    0 -0.10579136729E+02  0.53463465993E+02  0.28420002927E+02  0.99630091760E+02  0.78410447568E+02 0.  0.
          5    1    3    3  502    0  0.11926356602E+03  0.29582477704E+02 -0.27967159272E+03  0.30551139249E+03  0.47000000000E+01 0. -1.
        -13    1    4    4    0    0 -0.65651375243E+01 -0.42789480327E+02 -0.28883319637E+02  0.52041203009E+02  0.00000000000E+00 0.  1.
         14    1    4    4    0    0  0.95346965517E+01 -0.37673218424E+02 -0.18738451093E+03  0.19137172404E+03  0.00000000000E+00 0. -1.
         -5    1    5    5    0  501 -0.11165398832E+03 -0.25832449466E+01 -0.36363004578E+02  0.11754847665E+03  0.47000000000E+01 0.  1.
         11    1    6    6    0    0  0.19216471356E+02 -0.81744384310E+01  0.22830307412E+02  0.30940542199E+02  0.00000000000E+00 0. -1.
        -12    1    6    6    0    0 -0.29795608085E+02  0.61637904424E+02  0.55896955151E+01  0.68689549561E+02  0.00000000000E+00 0.  1.
</event>
<event>
12    1  0.2609167E-002  0.3000431E+03  0.7818608E-02  0.1085219E+00
          2   -1    0    0  502    0  0.00000000000E+00  0.00000000000E+00  0.12284119282E+04  0.12284119282E+04  0.00000000000E+00 0.  1.
         -2   -1    0    0    0  501 -0.00000000000E+00 -0.00000000000E+00 -0.73509331826E+02  0.73509331826E+02  0.00000000000E+00 0. -1.
          6    2    1    2  502    0  0.24477048118E+03  0.91896185609E+01  0.54166011590E+03  0.61922520030E+03  0.17334107992E+03 0.  0.
         24    2    3    3    0    0  0.25995616932E+03 -0.13282550362E+02  0.49201048215E+03  0.56245566946E+03  0.80798697090E+02 0.  0.
         -6    2    1    2    0  501 -0.24477048118E+03 -0.91896185609E+01  0.61324248044E+03  0.68269605969E+03  0.17323548296E+03 0.  0.
        -24    2    5    5    0    0 -0.23321567797E+03 -0.26678601458E+02  0.41365285299E+03  0.48195371891E+03  0.77906380691E+02 0.  0.
          5    1    3    3  502    0 -0.15185688141E+02  0.22472168923E+02  0.49649633754E+02  0.56769530845E+02  0.47000000000E+01 0. -1.
        -11    1    4    4    0    0  0.12434992498E+03 -0.12062737164E+02  0.31926429577E+03  0.34283830595E+03  0.00000000000E+00 0.  1.
         12    1    4    4    0    0  0.13560624434E+03 -0.12198131975E+01  0.17274618638E+03  0.21961736351E+03  0.00000000000E+00 0. -1.
         -5    1    5    5    0  501 -0.11554803212E+02  0.17488982897E+02  0.19958962745E+03  0.20074234079E+03  0.47000000000E+01 0.  1.
         13    1    6    6    0    0 -0.98730725958E+02 -0.26563703980E+02  0.25021585432E+03  0.27029865033E+03  0.00000000000E+00 0. -1.
        -14    1    6    6    0    0 -0.13448495201E+03 -0.11489747793E+00  0.16343699867E+03  0.21165506857E+03  0.00000000000E+00 0.  1.
</event>
<event>
12    1  0.2609167E-002  0.2294783E+03  0.7818608E-02  0.1127008E+00
          2   -1    0    0  502    0  0.00000000000E+00  0.00000000000E+00  0.18786279696E+04  0.18786279696E+04  0.00000000000E+00 0. -1.
         -2   -1    0    0    0  501 -0.00000000000E+00 -0.00000000000E+00 -0.60042550680E+02  0.60042550680E+02  0.00000000000E+00 0.  1.
          6    2    1    2  502    0 -0.14687189487E+03 -0.29299058078E+02  0.16150099187E+04  0.16310768279E+04  0.17240879524E+03 0.  0.
         24    2    3    3    0    0 -0.67733732883E+02  0.49673300838E+02  0.76724630016E+03  0.77596003758E+03  0.79948729955E+02 0.  0.
         -6    2    1    2    0  501  0.14687189487E+03  0.29299058078E+02  0.20357550023E+03  0.30759369240E+03  0.17533142047E+03 0.  0.
        -24    2    5    5    0    0  0.13201566175E+03 -0.23107567075E+02  0.86661383753E+02  0.17852718763E+03  0.79997916759E+02 0.  0.
          5    1    3    3  502    0 -0.79138161986E+02 -0.78972358915E+02  0.84776361853E+03  0.85511679031E+03  0.47000000000E+01 0. -1.
        -13    1    4    4    0    0 -0.34790963360E+02  0.31579549379E+02  0.67088550477E+03  0.67252883922E+03  0.00000000000E+00 0.  1.
         14    1    4    4    0    0 -0.32942769523E+02  0.18093751458E+02  0.96360795390E+02  0.10343119836E+03  0.00000000000E+00 0. -1.
         -5    1    5    5    0  501  0.14856233123E+02  0.52406625153E+02  0.11691411647E+03  0.12906650477E+03  0.47000000000E+01 0.  1.
         11    1    6    6    0    0  0.11229230628E+03 -0.16554486764E+02  0.10207414024E+03  0.15265236057E+03  0.00000000000E+00 0. -1.
        -12    1    6    6    0    0  0.19723355471E+02 -0.65530803111E+01 -0.15412756492E+02  0.25874827058E+02  0.00000000000E+00 0.  1.
</event>
<event>
12    1  0.2609167E-002  0.1813684E+03  0.7818608E-02  0.1166485E+00
         -1   -1    0    0    0  501 -0.00000000000E+00  0.00000000000E+00  0.12833027268E+03  0.12833027268E+03  0.00000000000E+00 0. -1.
          1   -1    0    0  502    0  0.00000000000E+00 -0.00000000000E+00 -0.26351603801E+03  0.26351603801E+03  0.00000000000E+00 0.  1.
          6    2    1    2  502    0  0.14090660757E+02  0.54280427288E+02 -0.10034962529E+03  0.20829654410E+03  0.17370230706E+03 0.  0.
         24    2    3    3    0    0  0.42706678408E+02 -0.15208173013E+02 -0.34538512126E+02  0.10829287089E+03  0.92083050339E+02 0.  0.
         -6    2    1    2    0  501 -0.14090660757E+02 -0.54280427288E+02 -0.34836140034E+02  0.18354976660E+03  0.17126601723E+03 0.  0.
        -24    2    5    5    0    0  0.43995600164E+02 -0.11440457662E+01  0.10621802627E+02  0.92522280087E+02  0.80688462291E+02 0.  0.
          5    1    3    3  502    0 -0.28616017651E+02  0.69488600301E+02 -0.65811113161E+02  0.10000367320E+03  0.47000000000E+01 0. -1.
        -11    1    4    4    0    0  0.41644752849E+02  0.22905538344E+02 -0.48294141099E+02  0.67758934401E+02  0.00000000000E+00 0.  1.
         12    1    4    4    0    0  0.10619255597E+01 -0.38113711357E+02  0.13755628973E+02  0.40533936494E+02  0.00000000000E+00 0. -1.
         -5    1    5    5    0  501 -0.58086260921E+02 -0.53136381522E+02 -0.45457942661E+02  0.91027486509E+02  0.47000000000E+01 0.  1.
         11    1    6    6    0    0 -0.32565223333E+01 -0.33146586668E+02  0.12093581974E+02  0.35433823818E+02  0.00000000000E+00 0. -1.
        -12    1    6    6    0    0  0.47252122498E+02  0.32002540902E+02 -0.14717793470E+01  0.57088456269E+02  0.00000000000E+00 0.  1.
</event>
<event>
12    1  0.2609167E-002  0.1758502E+03  0.7818608E-02  0.1171881E+00
          1   -1    0    0  502    0  0.00000000000E+00  0.00000000000E+00  0.50859855948E+02  0.50859855948E+02  0.00000000000E+00 0.  1.
         -1   -1    0    0    0  501 -0.00000000000E+00 -0.00000000000E+00 -0.74475636922E+03  0.74475636922E+03  0.00000000000E+00 0. -1.
          6    2    1    2  502    0  0.37446585407E+02  0.15756990411E+02 -0.51629752278E+03  0.54520285367E+03  0.17038923122E+03 0.  0.
         24    2    3    3    0    0  0.84802536499E+02 -0.13176635972E+01 -0.42666745672E+03  0.44229625206E+03  0.79922772264E+02 0.  0.
         -6    2    1    2    0  501 -0.37446585407E+02 -0.15756990411E+02 -0.17759899049E+03  0.25041337150E+03  0.17179908526E+03 0.  0.
        -24    2    5    5    0    0 -0.70759755769E+02 -0.50889480810E+02 -0.85507277120E+02  0.14626428186E+03  0.80529891427E+02 0.  0.
          5    1    3    3  502    0 -0.47355951092E+02  0.17074654008E+02 -0.89630066060E+02  0.10290660161E+03  0.47000000000E+01 0. -1.
        -13    1    4    4    0    0  0.55752139957E+02  0.21974205020E+02 -0.12819441769E+03  0.14150963049E+03  0.00000000000E+00 0.  1.
         14    1    4    4    0    0  0.29050396542E+02 -0.23291868617E+02 -0.29847303903E+03  0.30078662156E+03  0.00000000000E+00 0. -1.
         -5    1    5    5    0  501  0.33313170362E+02  0.35132490399E+02 -0.92091713375E+02  0.10414908964E+03  0.47000000000E+01 0.  1.
         11    1    6    6    0    0 -0.54501760874E+02 -0.35650312540E+02 -0.10024890526E+03  0.11954593146E+03  0.00000000000E+00 0. -1.
        -12    1    6    6    0    0 -0.16257994895E+02 -0.15239168270E+02  0.14741628143E+02  0.26718350396E+02  0.00000000000E+00 0.  1.
</event>
<event>
12    1  0.2609167E-002  0.1860081E+03  0.7818608E-02  0.1162112E+00
         -2   -1    0    0    0  501 -0.00000000000E+00  0.00000000000E+00  0.98224060820E+02  0.98224060820E+02  0.00000000000E+00 0.  1.
          2   -1    0    0  502    0  0.00000000000E+00 -0.00000000000E+00 -0.52415889288E+03  0.52415889288E+03  0.00000000000E+00 0. -1.
          6    2    1    2  502    0 -0.69179708081E+02 -0.24805233855E+02 -0.34596030356E+02  0.18900132253E+03  0.17065603700E+03 0.  0.
         24    2    3    3    0    0 -0.68047265889E+02  0.11438687526E+02  0.34036805746E+02  0.11123590314E+03  0.80334600478E+02 0.  0.
         -6    2    1    2    0  501  0.69179708081E+02  0.24805233855E+02 -0.39133880171E+03  0.43338163117E+03  0.17109193107E+03 0.  0.
        -24    2    5    5    0    0  0.56986979250E+02  0.77270305478E+02 -0.32171734527E+03  0.34523128476E+03  0.80401329665E+02 0.  0.
          5    1    3    3  502    0 -0.11324421917E+01 -0.36243921381E+02 -0.68632836103E+02  0.77765419396E+02  0.47000000000E+01 0. -1.
        -13    1    4    4    0    0 -0.25211273824E+02 -0.97038087170E+01  0.53279160976E+02  0.59736431311E+02  0.00000000000E+00 0.  1.
         14    1    4    4    0    0 -0.42835992065E+02  0.21142496243E+02 -0.19242355230E+02  0.51499471826E+02  0.00000000000E+00 0. -1.
         -5    1    5    5    0  501  0.12192728830E+02 -0.52465071623E+02 -0.69621456431E+02  0.88150346411E+02  0.47000000000E+01 0.  1.
         13    1    6    6    0    0 -0.14058608408E+02  0.34717096817E+02 -0.60069328360E+02  0.70790151090E+02  0.00000000000E+00 0. -1.
        -14    1    6    6    0    0  0.71045587658E+02  0.42553208661E+02 -0.26164801691E+03  0.27444113367E+03  0.00000000000E+00 0.  1.
</event>
<event>
12    1  0.2609167E-002  0.2055802E+03  0.7818608E-02  0.1145115E+00
          1   -1    0    0  502    0  0.00000000000E+00  0.00000000000E+00  0.10407069688E+04  0.10407069688E+04  0.00000000000E+00 0.  1.
         -1   -1    0    0    0  501 -0.00000000000E+00 -0.00000000000E+00 -0.44493062620E+02  0.44493062620E+02  0.00000000000E+00 0. -1.
          6    2    1    2  502    0  0.39832631901E+02  0.10584447325E+03  0.33885175171E+03  0.39658065849E+03  0.17223825930E+03 0.  0.
         24    2    3    3    0    0  0.54876703789E+02  0.75290792789E+02  0.11086397776E+03  0.16601533898E+03  0.81179523984E+02 0.  0.
         -6    2    1    2    0  501 -0.39832631901E+02 -0.10584447325E+03  0.65736215444E+03  0.68861937290E+03  0.17111968784E+03 0.  0.
        -24    2    5    5    0    0 -0.95995533795E+01 -0.69716920078E+02  0.13854208530E+03  0.16764375613E+03  0.62911995663E+02 0.  0.
          5    1    3    3  502    0 -0.15044071887E+02  0.30553680463E+02  0.22798777395E+03  0.23056531951E+03  0.47000000000E+01 0. -1.
        -13    1    4    4    0    0 -0.22621353083E+01 -0.26320681956E+01 -0.10398521322E+02  0.10962403241E+02  0.00000000000E+00 0.  1.
         14    1    4    4    0    0  0.57138839097E+02  0.77922860985E+02  0.12126249908E+03  0.15505293574E+03  0.00000000000E+00 0. -1.
         -5    1    5    5    0  501 -0.30233078522E+02 -0.36127553174E+02  0.51882006914E+03  0.52097561678E+03  0.47000000000E+01 0.  1.
         11    1    6    6    0    0 -0.63360889762E+01 -0.20975681588E+01 -0.53944057325E+01  0.85816914943E+01  0.00000000000E+00 0. -1.
        -12    1    6    6    0    0 -0.32634644033E+01 -0.67619351919E+02  0.14393649104E+03  0.15906206463E+03  0.00000000000E+00 0.  1.
</event>
<event>
12    1  0.2609167E-002  0.1619778E+03  0.7818608E-02  0.1186482E+00
         -1   -1    0    0    0  501 -0.00000000000E+00  0.00000000000E+00  0.33798345860E+03  0.33798345860E+03  0.00000000000E+00 0.  1.
          1   -1    0    0  502    0  0.00000000000E+00 -0.00000000000E+00 -0.78611564051E+02  0.78611564051E+02  0.00000000000E+00 0. -1.
          6    2    1    2  502    0 -0.40216924990E+01 -0.15650842309E+01  0.10235106670E+03  0.18455688128E+03  0.15351507442E+03 0.  0.
         24    2    3    3    0    0  0.99100273160E+01  0.20539407582E+02  0.12422155397E+03  0.15016052116E+03  0.81222606087E+02 0.  0.
         -6    2    1    2    0  501  0.40216924990E+01  0.15650842309E+01  0.15702082785E+03  0.23203814137E+03  0.17078505548E+03 0.  0.
        -24    2    5    5    0    0 -0.18002068532E+02 -0.65706997465E+02  0.10898080638E+03  0.14636134937E+03  0.70023884793E+02 0.  0.
          5    1    3    3  502    0 -0.13931719815E+02 -0.22104491813E+02 -0.21870487276E+02  0.34396360113E+02  0.47000000000E+01 0. -1.
        -13    1    4    4    0    0  0.44951616022E+02  0.12912764075E+02  0.84984745069E+02  0.97004093489E+02  0.00000000000E+00 0.  1.
         14    1    4    4    0    0 -0.35041588706E+02  0.76266435074E+01  0.39236808905E+02  0.53156427676E+02  0.00000000000E+00 0. -1.
         -5    1    5    5    0  501  0.22023761031E+02  0.67272081696E+02  0.48040021466E+02  0.85676792004E+02  0.47000000000E+01 0.  1.
         13    1    6    6    0    0  0.10906411711E+02 -0.59710542015E+02  0.97154512821E+02  0.11455696402E+03  0.00000000000E+00 0. -1.
        -14    1    6    6    0    0 -0.28908480242E+02 -0.59964554506E+01  0.11826293561E+02  0.31804385347E+02  0.00000000000E+00 0.  1.
</event>
<event>
12    1  0.2609167E-002  0.1963899E+03  0.7818608E-02  0.1152821E+00
         -2   -1    0    0    0  501 -0.00000000000E+00  0.00000000000E+00  0.20538115757E+02  0.20538115757E+02  0.00000000000E+00 0. -1.
          2   -1    0    0  502    0  0.00000000000E+00 -0.00000000000E+00 -0.19532768922E+04  0.19532768922E+04  0.00000000000E+00 0.  1.
          6    2    1    2  502    0 -0.48011330602E+02  0.78726751500E+02 -0.77725873707E+03  0.80192866915E+03  0.17451491851E+03 0.  0.
         24    2    3    3    0    0 -0.70729369021E+02  0.16843310684E+02 -0.64326653008E+03  0.65252428149E+03  0.81913176337E+02 0.  0.
         -6    2    1    2    0  501  0.48011330602E+02 -0.78726751500E+02 -0.11554800393E+04  0.11718863388E+04  0.17228023807E+03 0.  0.
        -24    2    5    5    0    0 -0.34916291949E+02 -0.41293517170E+02 -0.43063143955E+03  0.44133461560E+03  0.80053133580E+02 0.  0.
          5    1    3    3  502    0  0.22718038419E+02  0.61883440816E+02 -0.13399220699E+03  0.14940438765E+03  0.47000000000E+01 0. -1.
        -13    1    4    4    0    0 -0.58544370570E+02 -0.18944891409E+02 -0.25068318808E+03  0.25812480126E+03  0.00000000000E+00 0.  1.
         14    1    4    4    0    0 -0.12184998451E+02  0.35788202093E+02 -0.39258334200E+03  0.39439948024E+03  0.00000000000E+00 0. -1.
         -5    1    5    5    0  501  0.82927622551E+02 -0.37433234330E+02 -0.72484859979E+03  0.73055172318E+03  0.47000000000E+01 0.  1.
         13    1    6    6    0    0  0.21623722804E+02  0.83346656269E+00 -0.54265827586E+02  0.58421401028E+02  0.00000000000E+00 0. -1.
        -14    1    6    6    0    0 -0.56540014753E+02 -0.42126983733E+02 -0.37636561196E+03  0.38291321457E+03  0.00000000000E+00 0.  1.
</event>
<event>
12    1  0.2609167E-002  0.1806434E+03  0.7818608E-02  0.1167182E+00
         -2   -1    0    0    0  501 -0.00000000000E+00  0.00000000000E+00  0.20276696156E+03  0.20276696156E+03  0.00000000000E+00 0.  1.
          2   -1    0    0  502    0  0.00000000000E+00 -0.00000000000E+00 -0.20458635615E+03  0.20458635615E+03  0.00000000000E+00 0. -1.
          6    2    1    2  502    0 -0.44746793353E+02  0.33799136487E+02  0.93170159375E+02  0.20359343555E+03  0.17211900318E+03 0.  0.
         24    2    3    3    0    0 -0.79861008021E+02 -0.21475477755E+02  0.65213170791E+02  0.13223536479E+03  0.79965350682E+02 0.  0.
         -6    2    1    2    0  501  0.44746793353E+02 -0.33799136487E+02 -0.94989553959E+02  0.20375988216E+03  0.17131963424E+03 0.  0.
        -24    2    5    5    0    0  0.83901608880E+02 -0.58793676074E+02 -0.42861335639E+02  0.13377940107E+03  0.74589930555E+02 0.  0.
          5    1    3    3  502    0  0.35114214668E+02  0.55274614242E+02  0.27956988584E+02  0.71358070756E+02  0.47000000000E+01 0. -1.
        -11    1    4    4    0    0 -0.15383154027E+02  0.29162662998E+02  0.16493374123E+02  0.36866430949E+02  0.00000000000E+00 0.  1.
         12    1    4    4    0    0 -0.64477853995E+02 -0.50638140753E+02  0.48719796668E+02  0.95368933842E+02  0.00000000000E+00 0. -1.
         -5    1    5    5    0  501 -0.39154815526E+02  0.24994539586E+02 -0.52128218320E+02  0.69980481087E+02  0.47000000000E+01 0.  1.
         11    1    6    6    0    0  0.21912627975E+02 -0.56276863383E+02 -0.38426515903E+02  0.71581043172E+02  0.00000000000E+00 0. -1.
        -12    1    6    6    0    0  0.61988980904E+02 -0.25168126901E+01 -0.44348197358E+01  0.62198357903E+02  0.00000000000E+00 0.  1.
</event>
<event>
12    1  0.2609167E-002  0.2285778E+03  0.7818608E-02  0.1127645E+00
         -2   -1    0    0    0  501 -0.00000000000E+00  0.00000000000E+00  0.40274642672E+02  0.40274642672E+02  0.00000000000E+00 0. -1.
          2   -1    0    0  502    0  0.00000000000E+00 -0.00000000000E+00 -0.13200296562E+04  0.13200296562E+04  0.00000000000E+00 0.  1.
          6    2    1    2  502    0  0.22649903454E+02 -0.15272469287E+03 -0.73620874282E+03  0.77168551745E+03  0.17221316703E+03 0.  0.
         24    2    3    3    0    0  0.61549441468E+01 -0.17252725883E+03 -0.70844638140E+03  0.73351400958E+03  0.79642881381E+02 0.  0.
         -6    2    1    2    0  501 -0.22649903454E+02  0.15272469287E+03 -0.54354627066E+03  0.58861878138E+03  0.16489897362E+03 0.  0.
        -24    2    5    5    0    0  0.26722516224E+02  0.14038543502E+03 -0.32275902967E+03  0.36199356457E+03  0.80273197986E+02 0.  0.
          5    1    3    3  502    0  0.16494959308E+02  0.19802565965E+02 -0.27762361420E+02  0.38171507869E+02  0.47000000000E+01 0. -1.
        -13    1    4    4    0    0  0.42947654081E+02 -0.97604378407E+02 -0.40232826632E+03  0.41622007346E+03  0.00000000000E+00 0.  1.
         14    1    4    4    0    0 -0.36792709934E+02 -0.74922880426E+02 -0.30611811508E+03  0.31729393612E+03  0.00000000000E+00 0. -1.
         -5    1    5    5    0  501 -0.49372419678E+02  0.12339257846E+02 -0.22078724099E+03  0.22662521681E+03  0.47000000000E+01 0.  1.
         11    1    6    6    0    0 -0.26115880564E+01  0.24291848354E+02 -0.87888243372E+01  0.25964547403E+02  0.00000000000E+00 0. -1.
        -12    1    6    6    0    0  0.29334104280E+02  0.11609358667E+03 -0.31397020534E+03  0.33602901717E+03  0.00000000000E+00 0.  1.
</event>
<event>
12    1  0.2609167E-002  0.6094994E+03  0.7818608E-02  0.9885891E-01
          1   -1    0    0  502    0  0.00000000000E+00  0.00000000000E+00  0.25221251946E+04  0.25221251946E+04  0.00000000000E+00 0.  1.
         -1   -1    0    0    0  501 -0.00000000000E+00 -0.00000000000E+00 -0.15621927209E+03  0.15621927209E+03  0.00000000000E+00 0. -1.
          6    2    1    2  502    0 -0.56506842246E+03 -0.15085050896E+03  0.15025976708E+04  0.16214094608E+04  0.17061852449E+03 0.  0.
         24    2    3    3    0    0 -0.48687390353E+03 -0.75255585104E+02  0.11995020419E+04  0.12993566303E+04  0.82540312724E+02 0.  0.
         -6    2    1    2    0  501  0.56506842246E+03  0.15085050896E+03  0.86330825168E+03  0.10569350059E+04  0.17248846699E+03 0.  0.
        -24    2    5    5    0    0  0.19095277689E+03  0.75595682853E+02  0.31944541819E+03  0.39252949966E+03  0.99279215539E+02 0.  0.
          5    1    3    3  502    0 -0.78194518923E+02 -0.75594923855E+02  0.30309562898E+03  0.32205283046E+03  0.47000000000E+01 0. -1.
        -13    1    4    4    0    0 -0.41938968838E+03 -0.88325114154E+02  0.98771723213E+03  0.10766960421E+04  0.00000000000E+00 0.  1.
         14    1    4    4    0    0 -0.67484215155E+02  0.13069529049E+02  0.21178480972E+03  0.22266058815E+03  0.00000000000E+00 0. -1.
         -5    1    5    5    0  501  0.37411564557E+03  0.75254826106E+02  0.54386283350E+03  0.66440550628E+03  0.47000000000E+01 0.  1.
         13    1    6    6    0    0  0.11938824360E+03  0.90126483430E+02  0.17169494903E+03  0.22771800817E+03  0.00000000000E+00 0. -1.
        -14    1    6    6    0    0  0.71564533293E+02 -0.14530800577E+02  0.14775046916E+03  0.16481149149E+03  0.00000000000E+00 0.  1.
</event>
<event>
12    1  0.2609167E-002  0.1803782E+03  0.7818608E-02  0.1167438E+00
          2   -1    0    0  502    0  0.00000000000E+00  0.00000000000E+00  0.23177408656E+03  0.23177408656E+03  0.00000000000E+00 0.  1.
         -2   -1    0    0    0  501 -0.00000000000E+00 -0.00000000000E+00 -0.14474374495E+03  0.14474374495E+03  0.00000000000E+00 0. -1.
          6    2    1    2  502    0  0.32797989663E+02 -0.42801305162E+02  0.76080388674E+02  0.19529231622E+03  0.17159021938E+03 0.  0.
         24    2    3    3    0    0  0.40874095197E+02 -0.89978020869E+02  0.71933240329E+02  0.14702063897E+03  0.81694193928E+02 0.  0.
         -6    2    1    2    0  501 -0.32797989663E+02  0.42801305162E+02  0.10949952940E+02  0.18122551529E+03  0.17267057095E+03 0.  0.
        -24    2    5    5    0    0 -0.23461215364E+02  0.38607838136E+02 -0.59973646896E+02  0.10941320761E+03  0.79582773802E+02 0.  0.
          5    1    3    3  502    0 -0.80761055342E+01  0.47176715706E+02  0.41471483449E+01  0.48271677253E+02  0.47000000000E+01 0. -1.
        -11    1    4    4    0    0 -0.23394826047E+02 -0.22743618533E+02  0.32320208825E+02  0.45925874714E+02  0.00000000000E+00 0.  1.
         12    1    4    4    0    0  0.64268921244E+02 -0.67234402336E+02  0.39613031504E+02  0.10109476426E+03  0.00000000000E+00 0. -1.
         -5    1    5    5    0  501 -0.93367742987E+01  0.41934670262E+01  0.70923599836E+02  0.71812307676E+02  0.47000000000E+01 0.  1.
         11    1    6    6    0    0 -0.16092310045E+02  0.62937833132E+02 -0.50505893627E+02  0.82285956110E+02  0.00000000000E+00 0. -1.
        -12    1    6    6    0    0 -0.73689053192E+01 -0.24329994995E+02 -0.94677532687E+01  0.27127251502E+02  0.00000000000E+00 0.  1.
</event>
<event>
12    1  0.2609167E-002  0.1945042E+03  0.7818608E-02  0.1154460E+00
         -1   -1    0    0    0  501 -0.00000000000E+00  0.00000000000E+00  0.65497639243E+02  0.65497639243E+02  0.00000000000E+00 0.  1.
          1   -1    0    0  502    0  0.00000000000E+00 -0.00000000000E+00 -0.83673552309E+03  0.83673552309E+03  0.00000000000E+00 0. -1.
          6    2    1    2  502    0 -0.63120596033E+02 -0.60902601487E+02 -0.63511364777E+03  0.66390239851E+03  0.17234765055E+03 0.  0.
         24    2    3    3    0    0 -0.12506872391E+02 -0.25388996807E+02 -0.55939319049E+03  0.56603185754E+03  0.81671899521E+02 0.  0.
         -6    2    1    2    0  501  0.63120596033E+02  0.60902601487E+02 -0.13612423607E+03  0.23833076382E+03  0.17486683169E+03 0.  0.
        -24    2    5    5    0    0 -0.21790448748E+02  0.13706526803E+02 -0.27174218103E+02  0.92284362268E+02  0.84352076773E+02 0.  0.
          5    1    3    3  502    0 -0.50613723642E+02 -0.35513604680E+02 -0.75720457288E+02  0.97870540972E+02  0.47000000000E+01 0. -1.
        -13    1    4    4    0    0 -0.29484746596E+02  0.17208363589E+02 -0.35082608811E+03  0.35248322252E+03  0.00000000000E+00 0.  1.
         14    1    4    4    0    0  0.16977874205E+02 -0.42597360396E+02 -0.20856710237E+03  0.21354863502E+03  0.00000000000E+00 0. -1.
         -5    1    5    5    0  501  0.84911044781E+02  0.47196074684E+02 -0.10895001797E+03  0.14604640155E+03  0.47000000000E+01 0.  1.
         11    1    6    6    0    0  0.49861268080E-01 -0.23581573137E+02 -0.40670339872E+02  0.47012441152E+02  0.00000000000E+00 0. -1.
        -12    1    6    6    0    0 -0.21840310016E+02  0.37288099940E+02  0.13496121769E+02  0.45271921116E+02  0.00000000000E+00 0.  1.
</event>
<event>
12    1  0.2609167E-002  0.1981945E+03  0.7818608E-02  0.1151271E+00
          3   -1    0    0  502    0  0.00000000000E+00  0.00000000000E+00  0.19813625244E+03  0.19813625244E+03  0.00000000000E+00 0. -1.
         -3   -1    0    0    0  501 -0.00000000000E+00 -0.00000000000E+00 -0.21176046032E+03  0.21176046032E+03  0.00000000000E+00 0.  1.
          6    2    1    2  502    0  0.66690438061E+02  0.70911646922E+02 -0.58568038304E+02  0.20649303931E+03  0.17243283903E+03 0.  0.
         24    2    3    3    0    0  0.98223025592E+02  0.39210583830E+02 -0.81122239857E+02  0.15619350169E+03  0.81427019655E+02 0.  0.
         -6    2    1    2    0  501 -0.66690438061E+02 -0.70911646922E+02  0.44943830423E+02  0.20340367345E+03  0.17284973325E+03 0.  0.
        -24    2    5    5    0    0 -0.10848456505E+03 -0.63167551416E+02  0.56269899562E+02  0.15916466456E+03  0.80050286943E+02 0.  0.
          5    1    3    3  502    0 -0.31532587531E+02  0.31701063092E+02  0.22554201553E+02  0.50299537624E+02  0.47000000000E+01 0. -1.
        -11    1    4    4    0    0 -0.57994922988E+01  0.22330930785E+02 -0.33191044785E+02  0.40422147822E+02  0.00000000000E+00 0.  1.
         12    1    4    4    0    0  0.10402251789E+03  0.16879653045E+02 -0.47931195072E+02  0.11577135387E+03  0.00000000000E+00 0. -1.
         -5    1    5    5    0  501  0.41794126992E+02 -0.77440955059E+01 -0.11326069139E+02  0.44239008899E+02  0.47000000000E+01 0.  1.
         13    1    6    6    0    0 -0.11285410599E+02  0.16758795417E+02  0.19457143907E+02  0.28049922731E+02  0.00000000000E+00 0. -1.
        -14    1    6    6    0    0 -0.97199154453E+02 -0.79926346833E+02  0.36812755655E+02  0.13111474182E+03  0.00000000000E+00 0.  1.
</event>
<event>
12    1  0.2609167E-002  0.1778998E+03  0.7818608E-02  0.1169851E+00
          2   -1    0    0  502    0  0.00000000000E+00  0.00000000000E+00  0.18673479217E+04  0.18673479217E+04  0.00000000000E+00 0. -1.
         -2   -1    0    0    0  501 -0.00000000000E+00 -0.00000000000E+00 -0.20259242853E+02  0.20259242853E+02  0.00000000000E+00 0.  1.
          6    2    1    2  502    0  0.11928719864E+02  0.71713175016E+02  0.12475068183E+04  0.12585391293E+04  0.14954064443E+03 0.  0.
         24    2    3    3    0    0  0.48999725971E+02  0.51069854563E+02  0.11191871624E+04  0.11233044064E+04  0.64990628496E+02 0.  0.
         -6    2    1    2    0  501 -0.11928719864E+02 -0.71713175016E+02  0.59958186051E+03  0.62906803526E+03  0.17590654253E+03 0.  0.
        -24    2    5    5    0    0  0.49265445358E+01 -0.11444406072E+03  0.39613619404E+03  0.42044814710E+03  0.82042953970E+02 0.  0.
          5    1    3    3  502    0 -0.37071006107E+02  0.20643320453E+02  0.12831965593E+03  0.13523472288E+03  0.47000000000E+01 0. -1.
        -13    1    4    4    0    0 -0.10215030829E+02 -0.75022022465E+01  0.12947318504E+03  0.13009202719E+03  0.00000000000E+00 0.  1.
         14    1    4    4    0    0  0.59214756801E+02  0.58572056809E+02  0.98971397735E+03  0.99321237921E+03  0.00000000000E+00 0. -1.
         -5    1    5    5    0  501 -0.16855264400E+02  0.42730885702E+02  0.20344566646E+03  0.20861988815E+03  0.47000000000E+01 0.  1.
         11    1    6    6    0    0 -0.19593726425E+02 -0.44261204632E+02  0.26775607194E+03  0.27209609040E+03  0.00000000000E+00 0. -1.
        -12    1    6    6    0    0  0.24520270961E+02 -0.70182856086E+02  0.12838012210E+03  0.14835205670E+03  0.00000000000E+00 0.  1.
</event>
<event>
12    1  0.2609167E-002  0.2320014E+03  0.7818608E-02  0.1125239E+00
         -2   -1    0    0    0  501 -0.00000000000E+00  0.00000000000E+00  0.11621618700E+03  0.11621618700E+03  0.00000000000E+00 0. -1.
          2   -1    0    0  502    0  0.00000000000E+00 -0.00000000000E+00 -0.61457163008E+03  0.61457163008E+03  0.00000000000E+00 0.  1.
          6    2    1    2  502    0  0.81754692115E+02  0.13183662779E+03 -0.67349841327E+02  0.24104160903E+03  0.17175660118E+03 0.  0.
         24    2    3    3    0    0  0.74716405657E+02  0.46215820502E+02  0.19086104850E+02  0.11908373553E+03  0.78091057947E+02 0.  0.
         -6    2    1    2    0  501 -0.81754692115E+02 -0.13183662779E+03 -0.43100560175E+03  0.48974620805E+03  0.17326509586E+03 0.  0.
        -24    2    5    5    0    0  0.18442732346E+02 -0.48633104661E+02 -0.11832886498E+03  0.15099676990E+03  0.78057613248E+02 0.  0.
          5    1    3    3  502    0  0.70382864589E+01  0.85620807285E+02 -0.86435946177E+02  0.12195787350E+03  0.47000000000E+01 0. -1.
        -11    1    4    4    0    0  0.25829450912E+02 -0.36068947482E+01 -0.25324140859E+02  0.36352198481E+02  0.00000000000E+00 0.  1.
         12    1    4    4    0    0  0.48886954744E+02  0.49822715250E+02  0.44410245709E+02  0.82731537052E+02  0.00000000000E+00 0. -1.
         -5    1    5    5    0  501 -0.10019742446E+03 -0.83203523125E+02 -0.31267673677E+03  0.33874943815E+03  0.47000000000E+01 0.  1.
         11    1    6    6    0    0  0.47439591475E+02 -0.15858913321E+02 -0.64618722734E+02  0.81716579094E+02  0.00000000000E+00 0. -1.
        -12    1    6    6    0    0 -0.28996859129E+02 -0.32774191341E+02 -0.53710142249E+02  0.69280190804E+02  0.00000000000E+00 0.  1.
</event>
<event>
12    1  0.2609167E-002  0.1725061E+03  0.7818608E-02  0.1175259E+00
          2   -1    0    0  502    0  0.00000000000E+00  0.00000000000E+00  0.58218624984E+02  0.58218624984E+02  0.00000000000E+00 0.  1.
         -2   -1    0    0    0  501 -0.00000000000E+00 -0.00000000000E+00 -0.75755358659E+03  0.75755358659E+03  0.00000000000E+00 0. -1.
          6    2    1    2  502    0  0.87221167084E+01 -0.17911813157E+02 -0.58251983440E+03  0.60757312551E+03  0.17151920302E+03 0.  0.
         24    2    3    3    0    0 -0.30668829905E+02  0.28702030544E+02 -0.18946894839E+03  0.20978475704E+03  0.79666669296E+02 0.  0.
         -6    2    1    2    0  501 -0.87221167084E+01  0.17911813157E+02 -0.11681512721E+03  0.20819908606E+03  0.17118462876E+03 0.  0.
        -24    2    5    5    0    0  0.14189525160E+02 -0.12034379509E+02 -0.13967927373E+03  0.16385298156E+03  0.83614180286E+02 0.  0.
          5    1    3    3  502    0  0.39390946613E+02 -0.46613843701E+02 -0.39305088600E+03  0.39778836847E+03  0.47000000000E+01 0. -1.
        -11    1    4    4    0    0  0.34576668674E+01 -0.24963875486E+02 -0.70743071245E+02  0.75098153563E+02  0.00000000000E+00 0.  1.
         12    1    4    4    0    0 -0.34126496772E+02  0.53665906030E+02 -0.11872587715E+03  0.13468660348E+03  0.00000000000E+00 0. -1.
         -5    1    5    5    0  501 -0.22911641868E+02  0.29946192666E+02  0.22864146517E+02  0.44346104499E+02  0.47000000000E+01 0.  1.
         11    1    6    6    0    0 -0.80761002755E+01  0.30069693247E+02 -0.89075114935E+02  0.94359874672E+02  0.00000000000E+00 0. -1.
        -12    1    6    6    0    0  0.22265625435E+02 -0.42104072756E+02 -0.50604158791E+02  0.69493106892E+02  0.00000000000E+00 0.  1.
</event>
<event>
12    1  0.2609167E-002  0.2033659E+03  0.7818608E-02  0.1146930E+00
         -1   -1    0    0    0  501 -0.00000000000E+00  0.00000000000E+00  0.10285095956E+03  0.10285095956E+03  0.00000000000E+00 0.  1.
          1   -1    0    0  502    0  0.00000000000E+00 -0.00000000000E+00 -0.55415293508E+03  0.55415293508E+03  0.00000000000E+00 0. -1.
          6    2    1    2  502    0  0.10834137708E+03  0.13470981107E+02 -0.39755002051E+03  0.44645072381E+03  0.17132690584E+03 0.  0.
         24    2    3    3    0    0  0.51320105096E+02  0.50620025779E+02 -0.12221799164E+03  0.16279372478E+03  0.79802375587E+02 0.  0.
         -6    2    1    2    0  501 -0.10834137708E+03 -0.13470981107E+02 -0.53751955020E+02  0.21055317083E+03  0.17182562021E+03 0.  0.
        -24    2    5    5    0    0 -0.98738990091E+01  0.39134914293E+01  0.26188733802E+02  0.82449041893E+02  0.77454408746E+02 0.  0.
          5    1    3    3  502    0  0.57021271980E+02 -0.37149044672E+02 -0.27533202887E+03  0.28365699903E+03  0.47000000000E+01 0. -1.
        -11    1    4    4    0    0 -0.66237031698E+01  0.13438245435E+01  0.89209653379E+01  0.11192092327E+02  0.00000000000E+00 0.  1.
         12    1    4    4    0    0  0.57943808265E+02  0.49276201236E+02 -0.13113895698E+03  0.15160163245E+03  0.00000000000E+00 0. -1.
         -5    1    5    5    0  501 -0.98467478067E+02 -0.17384472536E+02 -0.79940688822E+02  0.12810412894E+03  0.47000000000E+01 0.  1.
         13    1    6    6    0    0 -0.10987116351E+02  0.34270906986E+02 -0.78405410581E+01  0.36833217012E+02  0.00000000000E+00 0. -1.
        -14    1    6    6    0    0  0.11132173416E+01 -0.30357415556E+02  0.34029274860E+02  0.45615824882E+02  0.00000000000E+00 0.  1.
</event>
<event>
12    1  0.2609167E-002  0.1801631E+03  0.7818608E-02  0.1167645E+00
         -3   -1    0    0    0  501 -0.00000000000E+00  0.00000000000E+00  0.67309712976E+02  0.67309712976E+02  0.00000000000E+00 0.  1.
          3   -1    0    0  502    0  0.00000000000E+00 -0.00000000000E+00 -0.51959431475E+03  0.51959431475E+03  0.00000000000E+00 0. -1.
          6    2    1    2  502    0 -0.36555622602E+02 -0.43066346706E+02 -0.30329291407E+03  0.35210854981E+03  0.16971392211E+03 0.  0.
         24    2    3    3    0    0  0.23285714182E+02  0.11748869354E+01 -0.23759806088E+03  0.25272959792E+03  0.82920481707E+02 0.  0.
         -6    2    1    2    0  501  0.36555622602E+02  0.43066346706E+02 -0.14899168770E+03  0.23479547792E+03  0.17245106461E+03 0.  0.
        -24    2    5    5    0    0  0.80331302892E+02  0.34477995021E+01 -0.12911306654E+03  0.17231997035E+03  0.80987546467E+02 0.  0.
          5    1    3    3  502    0 -0.59841336784E+02 -0.44241233641E+02 -0.65694853192E+02  0.99378951886E+02  0.47000000000E+01 0. -1.
        -11    1    4    4    0    0 -0.31337494872E+02  0.29407419917E+01 -0.85069587002E+02  0.90705684392E+02  0.00000000000E+00 0.  1.
         12    1    4    4    0    0  0.54623209053E+02 -0.17658550563E+01 -0.15252847388E+03  0.16202391353E+03  0.00000000000E+00 0. -1.
         -5    1    5    5    0  501 -0.43775680291E+02  0.39618547203E+02 -0.19878621163E+02  0.62475507575E+02  0.47000000000E+01 0.  1.
         11    1    6    6    0    0  0.59138200635E+02  0.34647833593E+02 -0.11105449244E+03  0.13050248825E+03  0.00000000000E+00 0. -1.
        -12    1    6    6    0    0  0.21193102258E+02 -0.31200034091E+02 -0.18058574097E+02  0.41817482098E+02  0.00000000000E+00 0.  1.
</event>
<event>
12    1  0.2609167E-002  0.1741652E+03  0.7818608E-02  0.1173573E+00
         -2   -1    0    0    0  501 -0.00000000000E+00  0.00000000000E+00  0.74376054321E+02  0.74376054321E+02  0.00000000000E+00 0.  1.
          2   -1    0    0  502    0  0.00000000000E+00 -0.00000000000E+00 -0.52588049213E+03  0.52588049213E+03  0.00000000000E+00 0. -1.
          6    2    1    2  502    0  0.35568796596E+02  0.13264666875E+02 -0.81899552209E+02  0.19095031464E+03  0.16826584719E+03 0.  0.
         24    2    3    3    0    0  0.57290354468E+02 -0.43095855591E+02 -0.73421788928E+02  0.12977599781E+03  0.79445660894E+02 0.  0.
         -6    2    1    2    0  501 -0.35568796596E+02 -0.13264666875E+02 -0.36960488559E+03  0.40930623181E+03  0.17170535595E+03 0.  0.
        -24    2    5    5    0    0  0.24671342391E+02  0.27917334549E+02 -0.11993789031E+03  0.14915141228E+03  0.80454916258E+02 0.  0.
          5    1    3    3  502    0 -0.21721557872E+02  0.56360522466E+02 -0.84777632815E+01  0.61174316827E+02  0.47000000000E+01 0. -1.
        -11    1    4    4    0    0  0.51187519284E+02  0.61737312953E+01 -0.16253432513E+02  0.54059699935E+02  0.00000000000E+00 0.  1.
         12    1    4    4    0    0  0.61028351842E+01 -0.49269586886E+02 -0.57168356415E+02  0.75716297879E+02  0.00000000000E+00 0. -1.
         -5    1    5    5    0  501 -0.60240138988E+02 -0.41182001424E+02 -0.24966699529E+03  0.26015481953E+03  0.47000000000E+01 0.  1.
         13    1    6    6    0    0  0.28427579935E+02 -0.92691415131E+01 -0.10453334147E+03  0.10872563526E+03  0.00000000000E+00 0. -1.
        -14    1    6    6    0    0 -0.37562375439E+01  0.37186476062E+02 -0.15404548841E+02  0.40425777016E+02  0.00000000000E+00 0.  1.
</event>
<event>
12    1  0.2609167E-002  0.2112308E+03  0.7818608E-02  0.1140595E+00
          2   -1    0    0  502    0  0.00000000000E+00  0.00000000000E+00  0.28881429221E+04  0.28881429221E+04  0.00000000000E+00 0. -1.
         -2   -1    0    0    0  501 -0.00000000000E+00 -0.00000000000E+00 -0.37215802860E+02  0.37215802860E+02  0.00000000000E+00 0.  1.
          6    2    1    2  502    0  0.11230913058E+03  0.46732411461E+02  0.25491445562E+04  0.25580329711E+04  0.17492127804E+03 0.  0.
         24    2    3    3    0    0  0.14540051227E+02  0.60915820873E+02  0.16710292480E+04  0.16743653036E+04  0.85078034558E+02 0.  0.
         -6    2    1    2    0  501 -0.11230913058E+03 -0.46732411461E+02  0.30178256298E+03  0.36732575385E+03  0.17046476183E+03 0.  0.
        -24    2    5    5    0    0 -0.94599318151E+01 -0.79041886396E+01  0.51287752494E+02  0.93728735122E+02  0.77476936721E+02 0.  0.
          5    1    3    3  502    0  0.97769079353E+02 -0.14183409412E+02  0.87811530822E+03  0.88366766746E+03  0.47000000000E+01 0. -1.
        -11    1    4    4    0    0  0.45015926953E+02  0.37472383800E+02  0.65647228476E+03  0.65908002086E+03  0.00000000000E+00 0.  1.
         12    1    4    4    0    0 -0.30475875726E+02  0.23443437072E+02  0.10145569633E+04  0.10152852828E+04  0.00000000000E+00 0. -1.
         -5    1    5    5    0  501 -0.10284919876E+03 -0.38828222821E+02  0.25049481049E+03  0.27359701872E+03  0.47000000000E+01 0.  1.
         13    1    6    6    0    0 -0.18540026575E+02  0.32295438419E+02  0.24490265390E+02  0.44570180916E+02  0.00000000000E+00 0. -1.
        -14    1    6    6    0    0  0.90800947597E+01 -0.40199627059E+02  0.26797487105E+02  0.49158554206E+02  0.00000000000E+00 0.  1.
</event>
<event>
12    1  0.2609167E-002  0.1918179E+03  0.7818608E-02  0.1156832E+00
          1   -1    0    0  502    0  0.00000000000E+00  0.00000000000E+00  0.12049316665E+04  0.12049316665E+04  0.00000000000E+00 0. -1.
         -1   -1    0    0    0  501 -0.00000000000E+00 -0.00000000000E+00 -0.34858818406E+02  0.34858818406E+02  0.00000000000E+00 0.  1.
          6    2    1    2  502    0 -0.41542894788E+02 -0.73045934370E+02  0.36834080665E+03  0.41556876254E+03  0.17309224683E+03 0.  0.
         24    2    3    3    0    0 -0.32938442593E+02 -0.48897244918E+02  0.81268236053E+02  0.12731549440E+03  0.78286827513E+02 0.  0.
         -6    2    1    2    0  501  0.41542894788E+02  0.73045934370E+02  0.80173204139E+03  0.82422172232E+03  0.17177211857E+03 0.  0.
        -24    2    5    5    0    0  0.17209518883E+02  0.33054349246E+02  0.72978623163E+03  0.73825818583E+03  0.10511159558E+03 0.  0.
          5    1    3    3  502    0 -0.86044521957E+01 -0.24148689453E+02  0.28707257060E+03  0.28825326814E+03  0.47000000000E+01 0. -1.
        -13    1    4    4    0    0 -0.22128623171E+02  0.17277422202E+02  0.10899376800E+02  0.30116136804E+02  0.00000000000E+00 0.  1.
         14    1    4    4    0    0 -0.10809819422E+02 -0.66174667120E+02  0.70368859253E+02  0.97199357595E+02  0.00000000000E+00 0. -1.
         -5    1    5    5    0  501  0.24333375906E+02  0.39991585124E+02  0.71945809759E+02  0.85963536488E+02  0.47000000000E+01 0.  1.
         13    1    6    6    0    0  0.59371935080E+02  0.22527366863E+02  0.32498528402E+03  0.33113130894E+03  0.00000000000E+00 0. -1.
        -14    1    6    6    0    0 -0.42162416198E+02  0.10526982384E+02  0.40480094762E+03  0.40712687689E+03  0.00000000000E+00 0.  1.
</event>
<event>
12    1  0.2609167E-002  0.1982282E+03  0.7818608E-02  0.1151243E+00
         -1   -1    0    0    0  501 -0.00000000000E+00  0.00000000000E+00  0.31867152453E+02  0.31867152453E+02  0.00000000000E+00 0. -1.
          1   -1    0    0  502    0  0.00000000000E+00 -0.00000000000E+00 -0.12870391484E+04  0.12870391484E+04  0.00000000000E+00 0.  1.
          6    2    1    2  502    0  0.88505161488E+02 -0.44139229333E+02 -0.76313830376E+03  0.78850590887E+03  0.17198855333E+03 0.  0.
         24    2    3    3    0    0  0.66262256564E+01  0.12893315288E+02 -0.16456685110E+03  0.18165605494E+03  0.75541573773E+02 0.  0.
         -6    2    1    2    0  501 -0.88505161488E+02  0.44139229333E+02 -0.49203369217E+03  0.53040039197E+03  0.17159832865E+03 0.  0.
        -24    2    5    5    0    0  0.16270222244E+02  0.15818331091E+02 -0.27395116283E+03  0.28675714064E+03  0.81642380928E+02 0.  0.
          5    1    3    3  502    0  0.81878935831E+02 -0.57032544621E+02 -0.59857145266E+03  0.60684985393E+03  0.47000000000E+01 0. -1.
        -13    1    4    4    0    0 -0.71157209484E+01  0.31404997207E+02 -0.15205044687E+03  0.15542279668E+03  0.00000000000E+00 0.  1.
         14    1    4    4    0    0  0.13741946605E+02 -0.18511681918E+02 -0.12516404232E+02  0.26233258258E+02  0.00000000000E+00 0. -1.
         -5    1    5    5    0  501 -0.10477538373E+03  0.28320898242E+02 -0.21808252934E+03  0.24364325133E+03  0.47000000000E+01 0.  1.
         13    1    6    6    0    0 -0.16042892308E+02 -0.99588360776E+01 -0.13914379995E+02  0.23455549029E+02  0.00000000000E+00 0. -1.
        -14    1    6    6    0    0  0.32313114551E+02  0.25777167168E+02 -0.26003678284E+03  0.26330159162E+03  0.00000000000E+00 0.  1.
</event>
<event>
12    1  0.2609167E-002  0.1778101E+03  0.7818608E-02  0.1169939E+00
         -1   -1    0    0    0  501 -0.00000000000E+00  0.00000000000E+00  0.34205348769E+02  0.34205348769E+02  0.00000000000E+00 0.  1.
          1   -1    0    0  502    0  0.00000000000E+00 -0.00000000000E+00 -0.92780638922E+03  0.92780638922E+03  0.00000000000E+00 0. -1.
          6    2    1    2  502    0  0.44053707839E+02  0.14246954945E+02 -0.47740651753E+03  0.50959971083E+03  0.17213708899E+03 0.  0.
         24    2    3    3    0    0  0.67490239267E+02  0.35595885729E+01 -0.15660322281E+03  0.18772965211E+03  0.78423528470E+02 0.  0.
         -6    2    1    2    0  501 -0.44053707839E+02 -0.14246954945E+02 -0.41619452292E+03  0.45241202716E+03  0.17121640255E+03 0.  0.
        -24    2    5    5    0    0 -0.34231462366E+02 -0.36257538750E+01 -0.42587155524E+03  0.43438367802E+03  0.78343213232E+02 0.  0.
          5    1    3    3  502    0 -0.23436531428E+02  0.10687366372E+02 -0.32080329471E+03  0.32187005872E+03  0.47000000000E+01 0. -1.
        -13    1    4    4    0    0 -0.13718119603E+01  0.29544557916E+02 -0.52086053063E+02  0.59897576698E+02  0.00000000000E+00 0.  1.
         14    1    4    4    0    0  0.68862051227E+02 -0.25984969343E+02 -0.10451716975E+03  0.12783207541E+03  0.00000000000E+00 0. -1.
         -5    1    5    5    0  501 -0.98222454735E+01 -0.10621201070E+02  0.96770323136E+01  0.18028349140E+02  0.47000000000E+01 0.  1.
         11    1    6    6    0    0  0.15698411234E+02  0.12162839204E+02 -0.25240728261E+03  0.25318730436E+03  0.00000000000E+00 0. -1.
        -12    1    6    6    0    0 -0.49929873600E+02 -0.15788593079E+02 -0.17346427263E+03  0.18119637366E+03  0.00000000000E+00 0.  1.
</event>
<event>
12    1  0.2609167E-002  0.2105457E+03  0.7818608E-02  0.1141135E+00
         -2   -1    0    0    0  501 -0.00000000000E+00  0.00000000000E+00  0.19182661915E+02  0.19182661915E+02  0.00000000000E+00 0.  1.
          2   -1    0    0  502    0  0.00000000000E+00 -0.00000000000E+00 -0.33060346934E+04  0.33060346934E+04  0.00000000000E+00 0. -1.
          6    2    1    2  502    0  0.10633331017E+02  0.12523886112E+03 -0.25414640490E+04  0.25499622136E+04  0.16574057586E+03 0.  0.
         24    2    3    3    0    0  0.19254613192E+01  0.35370507823E+02 -0.59493188676E+03  0.60133149013E+03  0.80005193019E+02 0.  0.
         -6    2    1    2    0  501 -0.10633331017E+02 -0.12523886112E+03 -0.74538798256E+03  0.77525514176E+03  0.17210302213E+03 0.  0.
        -24    2    5    5    0    0 -0.69258038136E+02 -0.97848522686E+02 -0.55617777066E+03  0.57523094020E+03  0.84769763184E+02 0.  0.
          5    1    3    3  502    0  0.87078696981E+01  0.89868353294E+02 -0.19465321622E+04  0.19486307235E+04  0.47000000000E+01 0. -1.
        -11    1    4    4    0    0 -0.14659218659E+02  0.26434725988E+02 -0.72354854114E+02  0.78415000756E+02  0.00000000000E+00 0.  1.
         12    1    4    4    0    0  0.16584679979E+02  0.89357818353E+01 -0.52257703265E+03  0.52291648938E+03  0.00000000000E+00 0. -1.
         -5    1    5    5    0  501  0.58624707119E+02 -0.27390338431E+02 -0.18921021190E+03  0.20002420156E+03  0.47000000000E+01 0.  1.
         13    1    6    6    0    0 -0.34392732174E+02 -0.43760532247E+02 -0.43003582560E+03  0.43362271102E+03  0.00000000000E+00 0. -1.
        -14    1    6    6    0    0 -0.34865305962E+02 -0.54087990440E+02 -0.12614194506E+03  0.14160822918E+03  0.00000000000E+00 0.  1.
</event>
<event>
12    1  0.2609167E-002  0.1867173E+03  0.7818608E-02  0.1161456E+00
          2   -1    0    0  502    0  0.00000000000E+00  0.00000000000E+00  0.67917545517E+03  0.67917545517E+03  0.00000000000E+00 0.  1.
         -2   -1    0    0    0  501 -0.00000000000E+00 -0.00000000000E+00 -0.98360057597E+02  0.98360057597E+02  0.00000000000E+00 0. -1.
          6    2    1    2  502    0  0.99978042277E+01  0.70320448411E+02  0.55890567165E+03  0.58914509931E+03  0.17225410499E+03 0.  0.
         24    2    3    3    0    0 -0.91560902488E+01  0.85408632819E+02  0.55057316124E+03  0.56295262497E+03  0.80039887153E+02 0.  0.
         -6    2    1    2    0  501 -0.99978042277E+01 -0.70320448411E+02  0.21909725921E+02  0.18839041345E+03  0.17310687519E+03 0.  0.
        -24    2    5    5    0    0 -0.58802084568E+02 -0.79180244221E+02  0.42716395577E+02  0.13439632800E+03  0.80687584579E+02 0.  0.
          5    1    3    3  502    0  0.19153894476E+02 -0.15088184408E+02  0.83325104097E+01  0.26192474340E+02  0.47000000000E+01 0. -1.
        -13    1    4    4    0    0 -0.62755637502E+01  0.91095017528E+02  0.33317255952E+03  0.34545859279E+03  0.00000000000E+00 0.  1.
         14    1    4    4    0    0 -0.28805264986E+01 -0.56863847090E+01  0.21740060173E+03  0.21749403218E+03  0.00000000000E+00 0. -1.
         -5    1    5    5    0  501  0.48804280340E+02  0.88597958104E+01 -0.20806669656E+02  0.53994085449E+02  0.47000000000E+01 0.  1.
         13    1    6    6    0    0 -0.18929725940E+01 -0.69578287539E+02  0.20574375845E+02  0.72581170998E+02  0.00000000000E+00 0. -1.
        -14    1    6    6    0    0 -0.56909111974E+02 -0.96019566827E+01  0.22142019732E+02  0.61815157005E+02  0.00000000000E+00 0.  1.
</event>
<event>
12    1  0.2609167E-002  0.1869062E+03  0.7818608E-02  0.1161282E+00
         -1   -1    0    0    0  501 -0.00000000000E+00  0.00000000000E+00  0.25251823111E+03  0.25251823111E+03  0.00000000000E+00 0.  1.
          1   -1    0    0  502    0  0.00000000000E+00 -0.00000000000E+00 -0.14836859304E+03  0.14836859304E+03  0.00000000000E+00 0. -1.
          6    2    1    2  502    0  0.47461629019E+02 -0.59891909497E+02  0.10384855081E+03  0.21275723867E+03  0.16923792143E+03 0.  0.
         24    2    3    3    0    0  0.76639529133E+02  0.29584025414E+00  0.94727574114E+02  0.14508747223E+03  0.78761388716E+02 0.  0.
         -6    2    1    2    0  501 -0.47461629019E+02  0.59891909497E+02  0.30108726619E+00  0.18812958548E+03  0.17190986949E+03 0.  0.
        -24    2    5    5    0    0 -0.55004668362E+02  0.81975782068E+02 -0.46929955261E+02  0.13523860092E+03  0.79633636672E+02 0.  0.
          5    1    3    3  502    0 -0.29177900114E+02 -0.60187749751E+02  0.91209766917E+01  0.67669766447E+02  0.47000000000E+01 0. -1.
        -13    1    4    4    0    0  0.17709569973E+02 -0.29386073193E+02  0.63304097554E+02  0.72004020259E+02  0.00000000000E+00 0.  1.
         14    1    4    4    0    0  0.58929959160E+02  0.29681913447E+02  0.31423476560E+02  0.73083451968E+02  0.00000000000E+00 0. -1.
         -5    1    5    5    0  501  0.75430393425E+01 -0.22083872571E+02  0.47231042527E+02  0.52890984567E+02  0.47000000000E+01 0.  1.
         11    1    6    6    0    0 -0.27072500285E+02  0.27994135391E+01 -0.43371924544E+02  0.51204304765E+02  0.00000000000E+00 0. -1.
        -12    1    6    6    0    0 -0.27932168077E+02  0.79176368529E+02 -0.35580307171E+01  0.84034296150E+02  0.00000000000E+00 0.  1.
</event>
<event>
12    1  0.2609167E-002  0.2346748E+03  0.7818608E-02  0.1123392E+00
          1   -1    0    0  502    0  0.00000000000E+00  0.00000000000E+00  0.10119319890E+04  0.10119319890E+04  0.00000000000E+00 0. -1.
         -1   -1    0    0    0  501 -0.00000000000E+00 -0.00000000000E+00 -0.73135867736E+02  0.73135867736E+02  0.00000000000E+00 0.  1.
          6    2    1    2  502    0 -0.76224143320E+02  0.14085259022E+03  0.74342776095E+03  0.77950686758E+03  0.17116234592E+03 0.  0.
         24    2    3    3    0    0 -0.90152954691E+02  0.75778320017E+02  0.31022895079E+03  0.34120107073E+03  0.79411962174E+02 0.  0.
         -6    2    1    2    0  501  0.76224143320E+02 -0.14085259022E+03  0.19536836034E+03  0.30556098918E+03  0.17189866111E+03 0.  0.
        -24    2    5    5    0    0  0.10554960596E+03 -0.58542597702E+02  0.10010707733E+03  0.17620984049E+03  0.80377396635E+02 0.  0.
          5    1    3    3  502    0  0.13928811371E+02  0.65074270201E+02  0.43319881016E+03  0.43830579685E+03  0.47000000000E+01 0. -1.
        -13    1    4    4    0    0 -0.76824986623E+02  0.86900802000E+02  0.21394273315E+03  0.24336253004E+03  0.00000000000E+00 0.  1.
         14    1    4    4    0    0 -0.13327968068E+02 -0.11122481983E+02  0.96286217632E+02  0.97838540689E+02  0.00000000000E+00 0. -1.
         -5    1    5    5    0  501 -0.29325462638E+02 -0.82309992516E+02  0.95261283009E+02  0.12935114869E+03  0.47000000000E+01 0.  1.
         13    1    6    6    0    0  0.46029618022E+02 -0.10816871343E+00  0.15922053466E+00  0.46030020496E+02  0.00000000000E+00 0. -1.
        -14    1    6    6    0    0  0.59519987936E+02 -0.58434428989E+02  0.99947856797E+02  0.13017981999E+03  0.00000000000E+00 0.  1.
</event>
<event>
12    1  0.2609167E-002  0.1880346E+03  0.7818608E-02  0.1160246E+00
         -2   -1    0    0    0  501 -0.00000000000E+00  0.00000000000E+00  0.14710355066E+02  0.14710355066E+02  0.00000000000E+00 0.  1.
          2   -1    0    0  502    0  0.00000000000E+00 -0.00000000000E+00 -0.24304225533E+04  0.24304225533E+04  0.00000000000E+00 0. -1.
          6    2    1    2  502    0 -0.41197503680E+02 -0.62001519534E+02 -0.13353260569E+04  0.13484762435E+04  0.17248500825E+03 0.  0.
         24    2    3    3    0    0  0.44122401292E+02 -0.23404849133E+02 -0.72303113762E+03  0.72904396517E+03  0.78971538688E+02 0.  0.
         -6    2    1    2    0  501  0.41197503680E+02  0.62001519534E+02 -0.10803861413E+04  0.10966566649E+04  0.17285891262E+03 0.  0.
        -24    2    5    5    0    0 -0.37596547881E+02  0.60040603663E+02 -0.71103798169E+03  0.71896300499E+03  0.79463303636E+02 0.  0.
          5    1    3    3  502    0 -0.85319904972E+02 -0.38596670401E+02 -0.61229491933E+03  0.61943227829E+03  0.47000000000E+01 0. -1.
        -11    1    4    4    0    0 -0.11622079995E+02  0.19566007268E+02 -0.15278886335E+03  0.15447439318E+03  0.00000000000E+00 0.  1.
         12    1    4    4    0    0  0.55744481287E+02 -0.42970856401E+02 -0.57024227427E+03  0.57456957199E+03  0.00000000000E+00 0. -1.
         -5    1    5    5    0  501  0.78794051562E+02  0.19609158715E+01 -0.36934815956E+03  0.37769365989E+03  0.47000000000E+01 0.  1.
         13    1    6    6    0    0 -0.12635917020E+02 -0.67977252307E+01 -0.38241861875E+03  0.38268769962E+03  0.00000000000E+00 0. -1.
        -14    1    6    6    0    0 -0.24960630862E+02  0.66838328893E+02 -0.32861936294E+03  0.33627530537E+03  0.00000000000E+00 0.  1.
</event>
<event>
12    1  0.2609167E-002  0.2098779E+03  0.7818608E-02  0.1141663E+00
          3   -1    0    0  502    0  0.00000000000E+00  0.00000000000E+00  0.28241873837E+03  0.28241873837E+03  0.00000000000E+00 0. -1.
         -3   -1    0    0    0  501 -0.00000000000E+00 -0.00000000000E+00 -0.15739166878E+03  0.15739166878E+03  0.00000000000E+00 0.  1.
          6    2    1    2  502    0 -0.75599788713E+02 -0.90987589138E+02  0.42030319957E+02  0.21530168736E+03  0.17491197601E+03 0.  0.
         24    2    3    3    0    0  0.19511350570E+02 -0.37800735736E+02 -0.11436827011E+02  0.93828249952E+02  0.82845344188E+02 0.  0.
         -6    2    1    2    0  501  0.75599788713E+02  0.90987589138E+02  0.82996749631E+02  0.22450871978E+03  0.17181861185E+03 0.  0.
        -24    2    5    5    0    0  0.97920486426E+02  0.24421539555E+02  0.85238263615E+02  0.15410725042E+03  0.79364033368E+02 0.  0.
          5    1    3    3  502    0 -0.95111139283E+02 -0.53186853403E+02  0.53467146968E+02  0.12147343741E+03  0.47000000000E+01 0. -1.
        -13    1    4    4    0    0 -0.13005687526E+02 -0.52976863758E+02 -0.17807548581E+02  0.57382966010E+02  0.00000000000E+00 0.  1.
         14    1    4    4    0    0  0.32517038097E+02  0.15176128022E+02  0.63707215695E+01  0.36445283942E+02  0.00000000000E+00 0. -1.
         -5    1    5    5    0  501 -0.22320697713E+02  0.66566049583E+02 -0.22415139840E+01  0.70401469362E+02  0.47000000000E+01 0.  1.
         13    1    6    6    0    0  0.27477993214E+02  0.25405558226E+02  0.73785270376E+02  0.82732995983E+02  0.00000000000E+00 0. -1.
        -14    1    6    6    0    0  0.70442493212E+02 -0.98401867052E+00  0.11452993239E+02  0.71374254439E+02  0.00000000000E+00 0.  1.
</event>
<event>
12    1  0.2609167E-002  0.1854405E+03  0.7818608E-02  0.1162639E+00
          1   -1    0    0  502    0  0.00000000000E+00  0.00000000000E+00  0.10438944511E+04  0.10438944511E+04  0.00000000000E+00 0. -1.
         -1   -1    0    0    0  501 -0.00000000000E+00 -0.00000000000E+00 -0.38801654601E+02  0.38801654601E+02  0.00000000000E+00 0.  1.
          6    2    1    2  502    0  0.63836090822E+02  0.25292033330E+02  0.71212356727E+03  0.73578613766E+03  0.17189104653E+03 0.  0.
         24    2    3    3    0    0  0.32711249245E+02 -0.29110086130E+00  0.15394208277E+03  0.17613275193E+03  0.79085212841E+02 0.  0.
         -6    2    1    2    0  501 -0.63836090822E+02 -0.25292033330E+02  0.29296922924E+03  0.34690996805E+03  0.17262914936E+03 0.  0.
        -24    2    5    5    0    0 -0.61658631887E+02 -0.38942630546E+02  0.30780093108E+03  0.32609772379E+03  0.79246431604E+02 0.  0.
          5    1    3    3  502    0  0.31124841578E+02  0.25583134192E+02  0.55818148450E+03  0.55965338573E+03  0.47000000000E+01 0. -1.
        -11    1    4    4    0    0 -0.18219296177E+02  0.43996466331E+01  0.10021922978E+03  0.10195682254E+03  0.00000000000E+00 0.  1.
         12    1    4    4    0    0  0.50930545422E+02 -0.46907474944E+01  0.53722852986E+02  0.74175929397E+02  0.00000000000E+00 0. -1.
         -5    1    5    5    0  501 -0.21774589358E+01  0.13650597216E+02 -0.14831701843E+02  0.20812244264E+02  0.47000000000E+01 0.  1.
         11    1    6    6    0    0 -0.15371920178E+02  0.23698849481E+02  0.10853542387E+03  0.11215110178E+03  0.00000000000E+00 0. -1.
        -12    1    6    6    0    0 -0.46286711709E+02 -0.62641480027E+02  0.19926550721E+03  0.21394662200E+03  0.00000000000E+00 0.  1.
</event>
<event>
12    1  0.2609167E-002  0.1972794E+03  0.7818608E-02  0.1152055E+00
          2   -1    0    0  502    0  0.00000000000E+00  0.00000000000E+00  0.16898236673E+04  0.16898236673E+04  0.00000000000E+00 0.  1.
         -2   -1    0    0    0  501 -0.00000000000E+00 -0.00000000000E+00 -0.23197074857E+02  0.23197074857E+02  0.00000000000E+00 0. -1.
          6    2    1    2  502    0  0.51086133400E+02  0.88802684154E+02  0.74594676545E+03  0.77056365271E+03  0.16381714272E+03 0.  0.
         24    2    3    3    0    0 -0.12171136978E+02  0.83571527600E+02  0.60707424070E+03  0.61780071419E+03  0.77500012451E+02 0.  0.
         -6    2    1    2    0  501 -0.51086133400E+02 -0.88802684154E+02  0.92067982704E+03  0.94245708950E+03  0.17343100035E+03 0.  0.
        -24    2    5    5    0    0 -0.40724001991E+02 -0.51396847992E+02  0.25430415603E+03  0.27493540801E+03  0.81355973838E+02 0.  0.
          5    1    3    3  502    0  0.63257270378E+02  0.52311565540E+01  0.13887252475E+03  0.15276293852E+03  0.47000000000E+01 0. -1.
        -11    1    4    4    0    0 -0.11953748522E+02  0.98579999236E+02  0.54156850050E+03  0.55059726579E+03  0.00000000000E+00 0.  1.
         12    1    4    4    0    0 -0.21738845561E+00 -0.15008471635E+02  0.65505740194E+02  0.67203448401E+02  0.00000000000E+00 0. -1.
         -5    1    5    5    0  501 -0.10362131409E+02 -0.37405836162E+02  0.66637567101E+03  0.66752168149E+03  0.47000000000E+01 0.  1.
         11    1    6    6    0    0 -0.62581065528E+02 -0.42574152396E+02  0.22462963266E+03  0.23703885775E+03  0.00000000000E+00 0. -1.
        -12    1    6    6    0    0  0.21857063537E+02 -0.88226955964E+01  0.29674523379E+02  0.37896550263E+02  0.00000000000E+00 0.  1.
</event>
<event>
12    1  0.2609167E-002  0.1948283E+03  0.7818608E-02  0.1154177E+00
          3   -1    0    0  502    0  0.00000000000E+00  0.00000000000E+00  0.25489311454E+03  0.25489311454E+03  0.00000000000E+00 0.  1.
         -3   -1    0    0    0  501 -0.00000000000E+00 -0.00000000000E+00 -0.18201321224E+03  0.18201321224E+03  0.00000000000E+00 0. -1.
          6    2    1    2  502    0 -0.21550509957E+02  0.88638109598E+02 -0.56645438020E+02  0.20330700945E+03  0.17263804763E+03 0.  0.
         24    2    3    3    0    0 -0.78804755828E+02  0.61171967838E+02 -0.19035937509E+02  0.12935430739E+03  0.80112238344E+02 0.  0.
         -6    2    1    2    0  501  0.21550509957E+02 -0.88638109598E+02  0.12952534033E+03  0.23359931733E+03  0.17167028957E+03 0.  0.
        -24    2    5    5    0    0 -0.36494104092E+02 -0.93006603990E+02  0.56359213417E+02  0.13998503909E+03  0.80233423296E+02 0.  0.
          5    1    3    3  502    0  0.57254245871E+02  0.27466141760E+02 -0.37609500510E+02  0.73952702061E+02  0.47000000000E+01 0. -1.
        -11    1    4    4    0    0 -0.53800737062E+02  0.77600598788E+02 -0.27340269206E+02  0.98304946777E+02  0.00000000000E+00 0.  1.
         12    1    4    4    0    0 -0.25004018766E+02 -0.16428630950E+02  0.83043316965E+01  0.31049360610E+02  0.00000000000E+00 0. -1.
         -5    1    5    5    0  501  0.58044614050E+02  0.43684943919E+01  0.73166126910E+02  0.93614278240E+02  0.47000000000E+01 0.  1.
         11    1    6    6    0    0 -0.28001199565E+02 -0.28393650118E+02 -0.15673445024E+02  0.42847676985E+02  0.00000000000E+00 0. -1.
        -12    1    6    6    0    0 -0.84929045275E+01 -0.64612953872E+02  0.72032658441E+02  0.97137362109E+02  0.00000000000E+00 0.  1.
</event>
<event>
12    1  0.2609167E-002  0.2313810E+03  0.7818608E-02  0.1125672E+00
          2   -1    0    0  502    0  0.00000000000E+00  0.00000000000E+00  0.19853215364E+04  0.19853215364E+04  0.00000000000E+00 0. -1.
         -2   -1    0    0    0  501 -0.00000000000E+00 -0.00000000000E+00 -0.84124051311E+02  0.84124051311E+02  0.00000000000E+00 0.  1.
          6    2    1    2  502    0 -0.11423667125E+03 -0.10561352096E+03  0.18024821568E+04  0.18171743456E+04  0.17022468685E+03 0.  0.
         24    2    3    3    0    0 -0.10356413741E+03 -0.61116044091E+02  0.76056270441E+03  0.77423994517E+03  0.80815616996E+02 0.  0.
         -6    2    1    2    0  501  0.11423667125E+03  0.10561352096E+03  0.98715328328E+02  0.25227124211E+03  0.17231317616E+03 0.  0.
        -24    2    5    5    0    0  0.53077593676E+02  0.12667625787E+03  0.10155721531E+03  0.18735407968E+03  0.76964783705E+02 0.  0.
          5    1    3    3  502    0 -0.10672533838E+02 -0.44497476865E+02  0.10419194524E+04  0.10429344005E+04  0.47000000000E+01 0. -1.
        -13    1    4    4    0    0 -0.30761401381E+02 -0.61870245699E+02  0.29261035857E+03  0.30065763429E+03  0.00000000000E+00 0.  1.
         14    1    4    4    0    0 -0.72802736033E+02  0.75420160735E+00  0.46795234584E+03  0.47358231087E+03  0.00000000000E+00 0. -1.
         -5    1    5    5    0  501  0.61159077576E+02 -0.21062736915E+02 -0.28418869868E+01  0.64917162430E+02  0.47000000000E+01 0.  1.
         11    1    6    6    0    0  0.58114848343E+02  0.42545646347E+02  0.58051214449E+02  0.92506276112E+02  0.00000000000E+00 0. -1.
        -12    1    6    6    0    0 -0.50372546672E+01  0.84130611524E+02  0.43506000866E+02  0.94847803566E+02  0.00000000000E+00 0.  1.
</event>
<event>
12    1  0.2609167E-002  0.1986138E+03  0.7818608E-02  0.1150914E+00
         -1   -1    0    0    0  501 -0.00000000000E+00  0.00000000000E+00  0.19977910101E+03  0.19977910101E+03  0.00000000000E+00 0.  1.
          1   -1    0    0  502    0  0.00000000000E+00 -0.00000000000E+00 -0.22725318820E+03  0.22725318820E+03  0.00000000000E+00 0. -1.
          6    2    1    2  502    0  0.47101754430E+02  0.88614385910E+02 -0.91093790382E+02  0.21918969450E+03  0.17226421238E+03 0.  0.
         24    2    3    3    0    0 -0.53159761297E+01  0.73954419309E+02  0.50659225186E+01  0.10859442569E+03  0.79180616200E+02 0.  0.
         -6    2    1    2    0  501 -0.47101754430E+02 -0.88614385910E+02  0.63619703187E+02  0.20784259471E+03  0.17052856911E+03 0.  0.
        -24    2    5    5    0    0 -0.16393626409E+02 -0.43496497635E+02  0.10458990546E+03  0.13943747471E+03  0.79643359646E+02 0.  0.
          5    1    3    3  502    0  0.52417730560E+02  0.14659966601E+02 -0.96159712901E+02  0.11059526881E+03  0.47000000000E+01 0. -1.
        -11    1    4    4    0    0 -0.15980448466E+02 -0.77906229847E+01  0.17824736725E+02  0.25175181806E+02  0.00000000000E+00 0.  1.
         12    1    4    4    0    0  0.10664472336E+02  0.81745042294E+02 -0.12758814206E+02  0.83419243882E+02  0.00000000000E+00 0. -1.
         -5    1    5    5    0  501 -0.30708128021E+02 -0.45117888274E+02 -0.40970202272E+02  0.68405120007E+02  0.47000000000E+01 0.  1.
         13    1    6    6    0    0 -0.69504812655E+01  0.23205716813E+02  0.20836930693E+02  0.31952967989E+02  0.00000000000E+00 0. -1.
        -14    1    6    6    0    0 -0.94431451434E+01 -0.66702214448E+02  0.83752974766E+02  0.10748450672E+03  0.00000000000E+00 0.  1.
</event>
<event>
12    1  0.2609167E-002  0.1867522E+03  0.7818608E-02  0.1161424E+00
         -2   -1    0    0    0  501 -0.00000000000E+00  0.00000000000E+00  0.96343287271E+02  0.96343287271E+02  0.00000000000E+00 0. -1.
          2   -1    0    0  502    0  0.00000000000E+00 -0.00000000000E+00 -0.36246880237E+03  0.36246880237E+03  0.00000000000E+00 0.  1.
          6    2    1    2  502    0  0.66672559268E+02 -0.29466885550E+02 -0.14180445124E+03  0.23511395469E+03  0.17279045631E+03 0.  0.
         24    2    3    3    0    0  0.57630760364E+02 -0.61042723303E+02 -0.15966510556E+03  0.19743265123E+03  0.80244546428E+02 0.  0.
         -6    2    1    2    0  501 -0.66672559268E+02  0.29466885550E+02 -0.12432106386E+03  0.22369813495E+03  0.17108945368E+03 0.  0.
        -24    2    5    5    0    0  0.25986031616E+02  0.40513413320E+02 -0.62213737356E+02  0.11150611097E+03  0.79034506197E+02 0.  0.
          5    1    3    3  502    0  0.90417989042E+01  0.31575837753E+02  0.17860654319E+02  0.37681303453E+02  0.47000000000E+01 0. -1.
        -11    1    4    4    0    0  0.77169063745E+02 -0.42691730507E+02 -0.10992396157E+03  0.14092879614E+03  0.00000000000E+00 0.  1.
         12    1    4    4    0    0 -0.19538303381E+02 -0.18350992796E+02 -0.49741143986E+02  0.56503855096E+02  0.00000000000E+00 0. -1.
         -5    1    5    5    0  501 -0.92658590884E+02 -0.11046527770E+02 -0.62107326502E+02  0.11219202398E+03  0.47000000000E+01 0.  1.
         11    1    6    6    0    0  0.29263137846E+02  0.26077716952E+02  0.77824148577E+01  0.39961788486E+02  0.00000000000E+00 0. -1.
        -12    1    6    6    0    0 -0.32771062294E+01  0.14435696368E+02 -0.69996152214E+02  0.71544322483E+02  0.00000000000E+00 0.  1.
</event>
<event>
12    1  0.2609167E-002  0.1952572E+03  0.7818608E-02  0.1153803E+00
          1   -1    0    0  502    0  0.00000000000E+00  0.00000000000E+00  0.78758556650E+03  0.78758556650E+03  0.00000000000E+00 0. -1.
         -1   -1    0    0    0  501 -0.00000000000E+00 -0.00000000000E+00 -0.48571504163E+02  0.48571504163E+02  0.00000000000E+00 0.  1.
          6    2    1    2  502    0 -0.22825170946E+01 -0.92203144938E+02  0.39395495140E+03  0.43973204856E+03  0.17221248786E+03 0.  0.
         24    2    3    3    0    0  0.16745502338E+02 -0.12936727411E+03  0.32333108530E+03  0.35755505370E+03  0.79286330777E+02 0.  0.
         -6    2    1    2    0  501  0.22825170946E+01  0.92203144938E+02  0.34505911093E+03  0.39642502210E+03  0.17198947145E+03 0.  0.
        -24    2    5    5    0    0  0.62020071874E+02  0.68716743995E+02  0.27544047089E+03  0.30161451888E+03  0.80841726689E+02 0.  0.
          5    1    3    3  502    0 -0.19028019433E+02  0.37164129168E+02  0.70623866102E+02  0.82176994856E+02  0.47000000000E+01 0. -1.
        -13    1    4    4    0    0 -0.22753510262E+02 -0.89037532682E+01  0.36102652920E+02  0.43593584383E+02  0.00000000000E+00 0.  1.
         14    1    4    4    0    0  0.39499012600E+02 -0.12046352084E+03  0.28722843238E+03  0.31396146932E+03  0.00000000000E+00 0. -1.
         -5    1    5    5    0  501 -0.59737554779E+02  0.23486400943E+02  0.69618640041E+02  0.94810503223E+02  0.47000000000E+01 0.  1.
         11    1    6    6    0    0 -0.78073601141E+01 -0.66307112832E+01  0.81553249910E+02  0.82194000845E+02  0.00000000000E+00 0. -1.
        -12    1    6    6    0    0  0.69827431988E+02  0.75347455278E+02  0.19388722098E+03  0.21942051804E+03  0.00000000000E+00 0.  1.
</event>
<event>
12    1  0.2609167E-002  0.2210247E+03  0.7818608E-02  0.1133121E+00
         -2   -1    0    0    0  501 -0.00000000000E+00  0.00000000000E+00  0.38735970297E+02  0.38735970297E+02  0.00000000000E+00 0.  1.
          2   -1    0    0  502    0  0.00000000000E+00 -0.00000000000E+00 -0.20539757293E+04  0.20539757293E+04  0.00000000000E+00 0. -1.
          6    2    1    2  502    0 -0.25526075168E+02  0.13640261068E+03 -0.35767929783E+03  0.42048690671E+03  0.17209737332E+03 0.  0.
         24    2    3    3    0    0 -0.27613964658E+02  0.63938032203E+02 -0.77977404431E+02  0.13150470382E+03  0.79764707224E+02 0.  0.
         -6    2    1    2    0  501  0.25526075168E+02 -0.13640261068E+03 -0.16575604612E+04  0.16722247929E+04  0.17196459751E+03 0.  0.
        -24    2    5    5    0    0 -0.23876448429E+02 -0.14783973668E+03 -0.12679499438E+04  0.12793000387E+04  0.80528607105E+02 0.  0.
          5    1    3    3  502    0  0.20878894900E+01  0.72464578476E+02 -0.27970189340E+03  0.28898220289E+03  0.47000000000E+01 0. -1.
        -13    1    4    4    0    0 -0.55659782426E+02  0.47610560141E+02 -0.50304319477E+02  0.88855508409E+02  0.00000000000E+00 0.  1.
         14    1    4    4    0    0  0.28045817768E+02  0.16327472062E+02 -0.27673084953E+02  0.42649195409E+02  0.00000000000E+00 0. -1.
         -5    1    5    5    0  501  0.49402523597E+02  0.11437126006E+02 -0.38961051743E+03  0.39292475422E+03  0.47000000000E+01 0.  1.
         13    1    6    6    0    0 -0.25380468003E+02 -0.64212508561E+02 -0.86554043015E+03  0.86829007287E+03  0.00000000000E+00 0. -1.
        -14    1    6    6    0    0  0.15040195736E+01 -0.83627228123E+02 -0.40240951363E+03  0.41100996584E+03  0.00000000000E+00 0.  1.
</event>
<event>
12    1  0.2609167E-002  0.1788338E+03  0.7818608E-02  0.1168937E+00
          2   -1    0    0  502    0  0.00000000000E+00  0.00000000000E+00  0.12025120143E+04  0.12025120143E+04  0.00000000000E+00 0. -1.
         -2   -1    0    0    0  501 -0.00000000000E+00 -0.00000000000E+00 -0.76042110260E+02  0.76042110260E+02  0.00000000000E+00 0.  1.
          6    2    1    2  502    0 -0.46788131854E+02  0.24445485627E+00  0.48340347307E+02  0.18578282957E+03  0.17317413648E+03 0.  0.
         24    2    3    3    0    0  0.32528028245E+02 -0.21449967077E+02  0.50125996220E+02  0.10339970182E+03  0.81613167632E+02 0.  0.
         -6    2    1    2    0  501  0.46788131854E+02 -0.24445485627E+00  0.10781295568E+04  0.10927712950E+04  0.17203654555E+03 0.  0.
        -24    2    5    5    0    0 -0.37531656228E+02 -0.18720821355E+02  0.64363180341E+03  0.64975708480E+03  0.78506538076E+02 0.  0.
          5    1    3    3  502    0 -0.79316160099E+02  0.21694421934E+02 -0.17856489127E+01  0.82383127750E+02  0.47000000000E+01 0. -1.
        -13    1    4    4    0    0  0.12222504088E+01  0.11242690789E+02 -0.18207830550E+02  0.21434017019E+02  0.00000000000E+00 0.  1.
         14    1    4    4    0    0  0.31305777836E+02 -0.32692657866E+02  0.68333826770E+02  0.81965684804E+02  0.00000000000E+00 0. -1.
         -5    1    5    5    0  501  0.84319788082E+02  0.18476366498E+02  0.43449775336E+03  0.44301421022E+03  0.47000000000E+01 0.  1.
         13    1    6    6    0    0 -0.42720908755E+01 -0.37725413660E+02  0.48821822777E+03  0.48969224573E+03  0.00000000000E+00 0. -1.
        -14    1    6    6    0    0 -0.33259565353E+02  0.19004592305E+02  0.15541357563E+03  0.16006483907E+03  0.00000000000E+00 0.  1.
</event>
<event>
12    1  0.2609167E-002  0.1766242E+03  0.7818608E-02  0.1171111E+00
         -2   -1    0    0    0  501 -0.00000000000E+00  0.00000000000E+00  0.18150758599E+02  0.18150758599E+02  0.00000000000E+00 0.  1.
          2   -1    0    0  502    0  0.00000000000E+00 -0.00000000000E+00 -0.17664775546E+04  0.17664775546E+04  0.00000000000E+00 0. -1.
          6    2    1    2  502    0 -0.16461077975E+02  0.39298425481E+02 -0.73119007650E+03  0.75240074886E+03  0.17219937740E+03 0.  0.
         24    2    3    3    0    0  0.62950147105E+01  0.77954858536E+02 -0.32611976200E+03  0.34482718586E+03  0.80219085998E+02 0.  0.
         -6    2    1    2    0  501  0.16461077975E+02 -0.39298425481E+02 -0.10171367195E+04  0.10322275644E+04  0.17062035369E+03 0.  0.
        -24    2    5    5    0    0  0.65768766875E+02 -0.62852286712E+02 -0.67578207579E+03  0.68649484192E+03  0.79484673950E+02 0.  0.
          5    1    3    3  502    0 -0.22756092686E+02 -0.38656433055E+02 -0.40507031450E+03  0.40757356300E+03  0.47000000000E+01 0. -1.
        -11    1    4    4    0    0  0.27380401903E+02  0.31167849579E+02 -0.54993810605E+02  0.68887157443E+02  0.00000000000E+00 0.  1.
         12    1    4    4    0    0 -0.21085387192E+02  0.46787008957E+02 -0.27112595140E+03  0.27594002842E+03  0.00000000000E+00 0. -1.
         -5    1    5    5    0  501 -0.49307688899E+02  0.23553861231E+02 -0.34135464374E+03  0.34573272245E+03  0.47000000000E+01 0.  1.
         11    1    6    6    0    0  0.45832167509E+02  0.38851587903E+01 -0.17725913046E+03  0.18312968457E+03  0.00000000000E+00 0. -1.
        -12    1    6    6    0    0  0.19936599366E+02 -0.66737445502E+02 -0.49852294532E+03  0.50336515736E+03  0.00000000000E+00 0.  1.
</event>
<event>
12    1  0.2609167E-002  0.2597482E+03  0.7818608E-02  0.1107295E+00
         -1   -1    0    0    0  501 -0.00000000000E+00  0.00000000000E+00  0.95124734180E+02  0.95124734180E+02  0.00000000000E+00 0. -1.
          1   -1    0    0  502    0  0.00000000000E+00 -0.00000000000E+00 -0.85994952351E+03  0.85994952351E+03  0.00000000000E+00 0.  1.
          6    2    1    2  502    0 -0.18821590831E+03 -0.49967526002E+02 -0.58232038579E+03  0.63763043345E+03  0.17191147770E+03 0.  0.
         24    2    3    3    0    0 -0.12533209880E+03 -0.99304810766E+02 -0.42542531705E+03  0.46148647597E+03  0.80084247371E+02 0.  0.
         -6    2    1    2    0  501  0.18821590831E+03  0.49967526002E+02 -0.18250440355E+03  0.31744382424E+03  0.17187420527E+03 0.  0.
        -24    2    5    5    0    0  0.10808473359E+03  0.26944567546E+02 -0.26383241775E+02  0.14039307182E+03  0.81276194633E+02 0.  0.
          5    1    3    3  502    0 -0.62883809517E+02  0.49337284764E+02 -0.15689506873E+03  0.17614395749E+03  0.47000000000E+01 0. -1.
        -11    1    4    4    0    0 -0.99050502499E+02 -0.69642319140E+02 -0.20966451079E+03  0.24211621537E+03  0.00000000000E+00 0.  1.
         12    1    4    4    0    0 -0.26281596299E+02 -0.29662491627E+02 -0.21576080626E+03  0.21937026059E+03  0.00000000000E+00 0. -1.
         -5    1    5    5    0  501  0.80131174725E+02  0.23022958456E+02 -0.15612116177E+03  0.17705075242E+03  0.47000000000E+01 0.  1.
         11    1    6    6    0    0  0.16533493542E+02 -0.79037167313E+01  0.24031862059E+02  0.30221772630E+02  0.00000000000E+00 0. -1.
        -12    1    6    6    0    0  0.91551240047E+02  0.34848284277E+02 -0.50415103834E+02  0.11017129919E+03  0.00000000000E+00 0.  1.
</event>
<event>
12    1  0.2609167E-002  0.1979175E+03  0.7818608E-02  0.1151508E+00
         -2   -1    0    0    0  501 -0.00000000000E+00  0.00000000000E+00  0.86789037439E+03  0.86789037439E+03  0.00000000000E+00 0.  1.
          2   -1    0    0  502    0  0.00000000000E+00 -0.00000000000E+00 -0.46608712671E+02  0.46608712671E+02  0.00000000000E+00 0. -1.
          6    2    1    2  502    0 -0.62478770469E+02  0.81409494038E+02  0.49680677651E+03  0.53571741562E+03  0.17217744838E+03 0.  0.
         24    2    3    3    0    0 -0.71359815616E+02  0.89844040687E+02  0.50260206553E+03  0.52137552192E+03  0.77842299859E+02 0.  0.
         -6    2    1    2    0  501  0.62478770469E+02 -0.81409494038E+02  0.32447488521E+03  0.37878167145E+03  0.16631446423E+03 0.  0.
        -24    2    5    5    0    0 -0.81051762040E+01 -0.89637550339E+02  0.16885522251E+03  0.20764031508E+03  0.80633925658E+02 0.  0.
          5    1    3    3  502    0  0.88810451470E+01 -0.84345466490E+01 -0.57952890196E+01  0.14341893700E+02  0.47000000000E+01 0. -1.
        -11    1    4    4    0    0 -0.79258196540E+02  0.64667116603E+02  0.46021573583E+03  0.47144694420E+03  0.00000000000E+00 0.  1.
         12    1    4    4    0    0  0.78983809240E+01  0.25176924083E+02  0.42386329699E+02  0.49928577717E+02  0.00000000000E+00 0. -1.
         -5    1    5    5    0  501  0.70583946673E+02  0.82280563009E+01  0.15561966270E+03  0.17114135637E+03  0.47000000000E+01 0.  1.
         11    1    6    6    0    0  0.28772332541E+02 -0.33672468297E+02  0.30114252753E+02  0.53558850435E+02  0.00000000000E+00 0. -1.
        -12    1    6    6    0    0 -0.36877508745E+02 -0.55965082042E+02  0.13874096975E+03  0.15408146465E+03  0.00000000000E+00 0.  1.
</event>
<event>
12    1  0.2609167E-002  0.2602094E+03  0.7818608E-02  0.1107017E+00
          2   -1    0    0  502    0  0.00000000000E+00  0.00000000000E+00  0.16821887256E+03  0.16821887256E+03  0.00000000000E+00 0. -1.
         -2   -1    0    0    0  501 -0.00000000000E+00 -0.00000000000E+00 -0.45867484966E+03  0.45867484966E+03  0.00000000000E+00 0.  1.
          6    2    1    2  502    0  0.19352458139E+03  0.22609105480E+02 -0.35840229415E+02  0.26327123740E+03  0.17339056245E+03 0.  0.
         24    2    3    3    0    0  0.11616331545E+03  0.60940660991E+02 -0.69373323508E+02  0.17053164491E+03  0.84027994646E+02 0.  0.
         -6    2    1    2    0  501 -0.19352458139E+03 -0.22609105480E+02 -0.25461574768E+03  0.36362248482E+03  0.17154940176E+03 0.  0.
        -24    2    5    5    0    0 -0.13775189265E+03 -0.35695092919E+02 -0.81858353411E+02  0.18155369795E+03  0.77532132881E+02 0.  0.
          5    1    3    3  502    0  0.77361265936E+02 -0.38331555512E+02  0.33533094092E+02  0.92739592487E+02  0.47000000000E+01 0. -1.
        -11    1    4    4    0    0  0.49611466364E+02  0.63428707222E+02 -0.96974008312E+01  0.81108187488E+02  0.00000000000E+00 0.  1.
         12    1    4    4    0    0  0.66551849087E+02 -0.24880462309E+01 -0.59675922677E+02  0.89423457427E+02  0.00000000000E+00 0. -1.
         -5    1    5    5    0  501 -0.55772688742E+02  0.13085987439E+02 -0.17275739427E+03  0.18206878687E+03  0.47000000000E+01 0.  1.
         11    1    6    6    0    0 -0.49699173390E+01 -0.27391619057E+01 -0.37212373480E+02  0.37642579963E+02  0.00000000000E+00 0. -1.
        -12    1    6    6    0    0 -0.13278197531E+03 -0.32955931013E+02 -0.44645979931E+02  0.14391111798E+03  0.00000000000E+00 0.  1.
</event>
<event>
12    1  0.2609167E-002  0.3198155E+03  0.7818608E-02  0.1075734E+00
          1   -1    0    0  502    0  0.00000000000E+00  0.00000000000E+00  0.24009712881E+03  0.24009712881E+03  0.00000000000E+00 0. -1.
         -1   -1    0    0    0  501 -0.00000000000E+00 -0.00000000000E+00 -0.46246210567E+03  0.46246210567E+03  0.00000000000E+00 0.  1.
          6    2    1    2  502    0  0.17904857579E+02  0.26962219296E+03 -0.20951930399E+03  0.38157702190E+03  0.16936934207E+03 0.  0.
         24    2    3    3    0    0 -0.16921821081E+02  0.16505312251E+03 -0.19894520853E+03  0.27075513987E+03  0.78741783627E+02 0.  0.
         -6    2    1    2    0  501 -0.17904857579E+02 -0.26962219296E+03 -0.12845672872E+02  0.32098221258E+03  0.17276532817E+03 0.  0.
        -24    2    5    5    0    0 -0.18227731530E+02 -0.15139003430E+03  0.63243516676E+02  0.18030313682E+03  0.72514040463E+02 0.  0.
          5    1    3    3  502    0  0.34826678660E+02  0.10456907045E+03 -0.10574095457E+02  0.11082188203E+03  0.47000000000E+01 0. -1.
        -13    1    4    4    0    0  0.23386116972E+02  0.87852475200E+02 -0.68156109876E+02  0.11362316304E+03  0.00000000000E+00 0.  1.
         14    1    4    4    0    0 -0.40307938052E+02  0.77200647311E+02 -0.13078909865E+03  0.15713197683E+03  0.00000000000E+00 0. -1.
         -5    1    5    5    0  501  0.32287395104E+00 -0.11823215867E+03 -0.76089189548E+02  0.14067907576E+03  0.47000000000E+01 0.  1.
         11    1    6    6    0    0  0.27009393653E+02 -0.69328750794E+02  0.36394633597E+02  0.82828451554E+02  0.00000000000E+00 0. -1.
        -12    1    6    6    0    0 -0.45237125183E+02 -0.82061283503E+02  0.26848883079E+02  0.97474685266E+02  0.00000000000E+00 0.  1.
</event>
<event>
12    1  0.2609167E-002  0.2143501E+03  0.7818608E-02  0.1138167E+00
         -1   -1    0    0    0  501 -0.00000000000E+00  0.00000000000E+00  0.16453630767E+03  0.16453630767E+03  0.00000000000E+00 0.  1.
          1   -1    0    0  502    0  0.00000000000E+00 -0.00000000000E+00 -0.30485311580E+03  0.30485311580E+03  0.00000000000E+00 0. -1.
          6    2    1    2  502    0 -0.11337874434E+03  0.65110550531E+02 -0.17134712290E+01  0.21288556140E+03  0.16799762740E+03 0.  0.
         24    2    3    3    0    0 -0.55498840794E+02  0.10331236991E+03 -0.10654757014E+02  0.14280347503E+03  0.80782061927E+02 0.  0.
         -6    2    1    2    0  501  0.11337874434E+03 -0.65110550531E+02 -0.13860333690E+03  0.25650386206E+03  0.17172426385E+03 0.  0.
        -24    2    5    5    0    0  0.71314294355E+02 -0.97719893920E+02 -0.14157867679E+03  0.20299003323E+03  0.80780725559E+02 0.  0.
          5    1    3    3  502    0 -0.57879903546E+02 -0.38201819378E+02  0.89412857854E+01  0.70082086368E+02  0.47000000000E+01 0. -1.
        -13    1    4    4    0    0 -0.59513836831E+02  0.45751335840E+02  0.19694703289E+02  0.77607749891E+02  0.00000000000E+00 0.  1.
         14    1    4    4    0    0  0.40149960374E+01  0.57561034069E+02 -0.30349460303E+02  0.65195725143E+02  0.00000000000E+00 0. -1.
         -5    1    5    5    0  501  0.42064449985E+02  0.32609343388E+02  0.29753398882E+01  0.53513828831E+02  0.47000000000E+01 0.  1.
         13    1    6    6    0    0  0.14996931304E+02  0.90864907003E+01 -0.45248324751E+02  0.48527138330E+02  0.00000000000E+00 0. -1.
        -14    1    6    6    0    0  0.56317363051E+02 -0.10680638462E+03 -0.96330352037E+02  0.15446289490E+03  0.00000000000E+00 0.  1.
</event>
<event>
12    1  0.2609167E-002  0.1776052E+03  0.7818608E-02  0.1170141E+00
          4   -1    0    0  502    0  0.00000000000E+00  0.00000000000E+00  0.20946843068E+03  0.20946843068E+03  0.00000000000E+00 0. -1.
         -4   -1    0    0    0  501 -0.00000000000E+00 -0.00000000000E+00 -0.15089310382E+03  0.15089310382E+03  0.00000000000E+00 0.  1.
          6    2    1    2  502    0  0.98458296641E+01 -0.50908557212E+02  0.37436819779E+02  0.18191950534E+03  0.17030727932E+03 0.  0.
         24    2    3    3    0    0 -0.10723535972E+02 -0.45909877327E+02  0.87409506143E+02  0.12744524550E+03  0.79869629874E+02 0.  0.
         -6    2    1    2    0  501 -0.98458296641E+01  0.50908557212E+02  0.21138507076E+02  0.17844202916E+03  0.16942874529E+03 0.  0.
        -24    2    5    5    0    0 -0.21416693060E+02  0.10059545611E+02  0.73905135624E+02  0.11055290104E+03  0.78740749662E+02 0.  0.
          5    1    3    3  502    0  0.20569365637E+02 -0.49986798846E+01 -0.49972686364E+02  0.54474259845E+02  0.47000000000E+01 0. -1.
        -13    1    4    4    0    0  0.13182061231E+02  0.26585586125E+01 -0.94840582461E+01  0.16455456026E+02  0.00000000000E+00 0.  1.
         14    1    4    4    0    0 -0.23905597204E+02 -0.48568435940E+02  0.96893564389E+02  0.11098978947E+03  0.00000000000E+00 0. -1.
         -5    1    5    5    0  501  0.11570863395E+02  0.40849011601E+02 -0.52766628548E+02  0.67889128119E+02  0.47000000000E+01 0.  1.
         11    1    6    6    0    0  0.50771047214E+01  0.55036820857E+01  0.82106354313E+02  0.82447079557E+02  0.00000000000E+00 0. -1.
        -12    1    6    6    0    0 -0.26493797781E+02  0.45558635253E+01 -0.82012186887E+01  0.28105821484E+02  0.00000000000E+00 0.  1.
</event>
<event>
12    1  0.2609167E-002  0.1795915E+03  0.7818608E-02  0.1168199E+00
          1   -1    0    0  502    0  0.00000000000E+00  0.00000000000E+00  0.65770593589E+03  0.65770593589E+03  0.00000000000E+00 0.  1.
         -1   -1    0    0    0  501 -0.00000000000E+00 -0.00000000000E+00 -0.51232764629E+02  0.51232764629E+02  0.00000000000E+00 0. -1.
          6    2    1    2  502    0  0.35324698728E+02 -0.13951190182E+01  0.37332197175E+03  0.41343260214E+03  0.17409032490E+03 0.  0.
         24    2    3    3    0    0  0.15508032686E+02 -0.24204031188E+02  0.37103245131E+03  0.38276863907E+03  0.89556780441E+02 0.  0.
         -6    2    1    2    0  501 -0.35324698728E+02  0.13951190182E+01  0.23315119952E+03  0.29550609839E+03  0.17808591087E+03 0.  0.
        -24    2    5    5    0    0  0.50903177536E+02  0.15601294578E+02  0.10980388724E+03  0.14426552342E+03  0.76948773348E+02 0.  0.
          5    1    3    3  502    0  0.19816666042E+02  0.22808912170E+02  0.22895204381E+01  0.30663963072E+02  0.47000000000E+01 0. -1.
        -11    1    4    4    0    0  0.24497306476E+01  0.34001807046E+02  0.15031645930E+03  0.15413358491E+03  0.00000000000E+00 0.  1.
         12    1    4    4    0    0  0.13058302038E+02 -0.58205838234E+02  0.22071599202E+03  0.22863505415E+03  0.00000000000E+00 0. -1.
         -5    1    5    5    0  501 -0.86227876264E+02 -0.14206175560E+02  0.12334731228E+03  0.15124057496E+03  0.47000000000E+01 0.  1.
         13    1    6    6    0    0  0.15277180760E+02 -0.30811677882E+02  0.49182808038E+02  0.60014167930E+02  0.00000000000E+00 0. -1.
        -14    1    6    6    0    0  0.35625996776E+02  0.46412972460E+02  0.60621079200E+02  0.84251355491E+02  0.00000000000E+00 0.  1.
</event>
<event>
12    1  0.2609167E-002  0.3354093E+03  0.7818608E-02  0.1068768E+00
         -1   -1    0    0    0  501 -0.00000000000E+00  0.00000000000E+00  0.66646258086E+03  0.66646258086E+03  0.00000000000E+00 0. -1.
          1   -1    0    0  502    0  0.00000000000E+00 -0.00000000000E+00 -0.17557875593E+03  0.17557875593E+03  0.00000000000E+00 0.  1.
          6    2    1    2  502    0  0.11498912255E+03  0.26386605130E+03  0.16282811278E+03  0.37298107100E+03  0.17249374968E+03 0.  0.
         24    2    3    3    0    0  0.74417219622E+02  0.12696387724E+03  0.28710147986E+02  0.17702698696E+03  0.94109153731E+02 0.  0.
         -6    2    1    2    0  501 -0.11498912255E+03 -0.26386605130E+03  0.32805571216E+03  0.46906026579E+03  0.17189878223E+03 0.  0.
        -24    2    5    5    0    0 -0.11829738766E+03 -0.12471204995E+03  0.23503178878E+03  0.30157796514E+03  0.78498152799E+02 0.  0.
          5    1    3    3  502    0  0.40571902924E+02  0.13690217406E+03  0.13411796480E+03  0.19595408404E+03  0.47000000000E+01 0. -1.
        -13    1    4    4    0    0  0.59944831105E+01  0.60414272708E+02 -0.27071649810E+02  0.66473245731E+02  0.00000000000E+00 0.  1.
         14    1    4    4    0    0  0.68422736512E+02  0.66549604528E+02  0.55781797795E+02  0.11055374123E+03  0.00000000000E+00 0. -1.
         -5    1    5    5    0  501  0.33082651124E+01 -0.13915400135E+03  0.93023923374E+02  0.16748230065E+03  0.47000000000E+01 0.  1.
         11    1    6    6    0    0 -0.33272385556E+02 -0.88226836398E+02  0.95900787684E+02  0.13449158851E+03  0.00000000000E+00 0. -1.
        -12    1    6    6    0    0 -0.85025002102E+02 -0.36485213552E+02  0.13913100110E+03  0.16708637663E+03  0.00000000000E+00 0.  1.
</event>
<event>
12    1  0.2609167E-002  0.2221897E+03  0.7818608E-02  0.1132261E+00
         -1   -1    0    0    0  501 -0.00000000000E+00  0.00000000000E+00  0.19077737574E+02  0.19077737574E+02  0.00000000000E+00 0.  1.
          1   -1    0    0  502    0  0.00000000000E+00 -0.00000000000E+00 -0.25939651305E+04  0.25939651305E+04  0.00000000000E+00 0. -1.
          6    2    1    2  502    0  0.13271067481E+03 -0.31140127213E+02 -0.12096243287E+04  0.12293706372E+04  0.17198638425E+03 0.  0.
         24    2    3    3    0    0  0.87066331582E+02 -0.43187240419E+01 -0.11112147431E+04  0.11175255199E+04  0.80410725793E+02 0.  0.
         -6    2    1    2    0  501 -0.13271067481E+03  0.31140127213E+02 -0.13652630642E+04  0.13836722308E+04  0.17895188499E+03 0.  0.
        -24    2    5    5    0    0 -0.85469204580E+02  0.14084374909E+02 -0.12723784181E+04  0.12779731169E+04  0.82250192725E+02 0.  0.
          5    1    3    3  502    0  0.45644343224E+02 -0.26821403172E+02 -0.98409585565E+02  0.11184511732E+03  0.47000000000E+01 0. -1.
        -13    1    4    4    0    0 -0.10879602282E+02  0.15065606718E+02 -0.15382882830E+03  0.15494723834E+03  0.00000000000E+00 0.  1.
         14    1    4    4    0    0  0.97945933864E+02 -0.19384330760E+02 -0.95738591484E+03  0.96257828158E+03  0.00000000000E+00 0. -1.
         -5    1    5    5    0  501 -0.47241470225E+02  0.17055752304E+02 -0.92884646099E+02  0.10569911389E+03  0.47000000000E+01 0.  1.
         13    1    6    6    0    0 -0.52626248906E+02  0.22961866459E+02 -0.11347600966E+04  0.11362117963E+04  0.00000000000E+00 0. -1.
        -14    1    6    6    0    0 -0.32842955674E+02 -0.88774915493E+01 -0.13761832153E+03  0.14176132058E+03  0.00000000000E+00 0.  1.
</event>
<event>
12    1  0.2609167E-002  0.2601163E+03  0.7818608E-02  0.1107073E+00
          2   -1    0    0  502    0  0.00000000000E+00  0.00000000000E+00  0.60674730917E+03  0.60674730917E+03  0.00000000000E+00 0. -1.
         -2   -1    0    0    0  501 -0.00000000000E+00 -0.00000000000E+00 -0.11578189592E+03  0.11578189592E+03  0.00000000000E+00 0.  1.
          6    2    1    2  502    0  0.17033443469E+02 -0.18373766563E+03  0.32103956658E+03  0.41817072739E+03  0.19429535755E+03 0.  0.
         24    2    3    3    0    0 -0.27019961796E+02 -0.15961408650E+03  0.13188293922E+03  0.22240308639E+03  0.76572111342E+02 0.  0.
         -6    2    1    2    0  501 -0.17033443469E+02  0.18373766563E+03  0.16992584667E+03  0.30435847771E+03  0.17236479228E+03 0.  0.
        -24    2    5    5    0    0 -0.36526171516E+02  0.73245670432E+02  0.15185819429E+03  0.19061764286E+03  0.81086898784E+02 0.  0.
          5    1    3    3  502    0  0.44053405265E+02 -0.24123579127E+02  0.18915662736E+03  0.19576764099E+03  0.47000000000E+01 0. -1.
        -11    1    4    4    0    0 -0.39162760657E+02 -0.43418723905E+02  0.66397771692E+02  0.88473563812E+02  0.00000000000E+00 0.  1.
         12    1    4    4    0    0  0.12142798861E+02 -0.11619536260E+03  0.65485167525E+02  0.13392952258E+03  0.00000000000E+00 0. -1.
         -5    1    5    5    0  501  0.19492728047E+02  0.11049199520E+03  0.18067652383E+02  0.11374083485E+03  0.47000000000E+01 0.  1.
         13    1    6    6    0    0  0.17529606263E+02  0.25055943524E+02  0.91076556101E+02  0.96073026771E+02  0.00000000000E+00 0. -1.
        -14    1    6    6    0    0 -0.54055777780E+02  0.48189726908E+02  0.60781638187E+02  0.94544616090E+02  0.00000000000E+00 0.  1.
</event>
<event>
12    1  0.2609167E-002  0.1784275E+03  0.7818608E-02  0.1169334E+00
          2   -1    0    0  502    0  0.00000000000E+00  0.00000000000E+00  0.90950734008E+03  0.90950734008E+03  0.00000000000E+00 0. -1.
         -2   -1    0    0    0  501 -0.00000000000E+00 -0.00000000000E+00 -0.43260646306E+02  0.43260646306E+02  0.00000000000E+00 0.  1.
          6    2    1    2  502    0 -0.48199071965E+02 -0.33397259388E+01  0.22416570387E+03  0.28624152787E+03  0.17131738142E+03 0.  0.
         24    2    3    3    0    0 -0.62636421186E+02 -0.23413285479E+02  0.23625051269E+03  0.25832168816E+03  0.80276314260E+02 0.  0.
         -6    2    1    2    0  501  0.48199071965E+02  0.33397259388E+01  0.64208098991E+03  0.66652645853E+03  0.17220690462E+03 0.  0.
        -24    2    5    5    0    0  0.19591127088E+02 -0.49685020600E+02  0.53551176702E+03  0.54401471409E+03  0.79540826010E+02 0.  0.
          5    1    3    3  502    0  0.14437349221E+02  0.20073559540E+02 -0.12084808821E+02  0.27919839709E+02  0.47000000000E+01 0. -1.
        -13    1    4    4    0    0  0.64880286643E+01 -0.32866980015E+02  0.59218377110E+02  0.68037850339E+02  0.00000000000E+00 0.  1.
         14    1    4    4    0    0 -0.69124449850E+02  0.94536945357E+01  0.17703213558E+03  0.19028383782E+03  0.00000000000E+00 0. -1.
         -5    1    5    5    0  501  0.28607944877E+02  0.53024746539E+02  0.10656922289E+03  0.12251174443E+03  0.47000000000E+01 0.  1.
         11    1    6    6    0    0  0.25502986592E+02  0.10013764190E+02  0.28951967915E+03  0.29081320880E+03  0.00000000000E+00 0. -1.
        -12    1    6    6    0    0 -0.59118595033E+01 -0.59698784790E+02  0.24599208787E+03  0.25320150529E+03  0.00000000000E+00 0.  1.
</event>
<event>
12    1  0.2609167E-002  0.1924500E+03  0.7818608E-02  0.1156270E+00
         -2   -1    0    0    0  501 -0.00000000000E+00  0.00000000000E+00  0.18584406567E+03  0.18584406567E+03  0.00000000000E+00 0. -1.
          2   -1    0    0  502    0  0.00000000000E+00 -0.00000000000E+00 -0.24039249128E+03  0.24039249128E+03  0.00000000000E+00 0.  1.
          6    2    1    2  502    0  0.81144064560E+02  0.88182980043E+01  0.60453775686E+02  0.20449677436E+03  0.17748845071E+03 0.  0.
         24    2    3    3    0    0  0.10746747595E+03 -0.39887986880E+02  0.41189642003E+02  0.14568843293E+03  0.79926359833E+02 0.  0.
         -6    2    1    2    0  501 -0.81144064560E+02 -0.88182980043E+01 -0.11500220129E+03  0.22173978259E+03  0.17111663651E+03 0.  0.
        -24    2    5    5    0    0  0.15060529726E+02 -0.35006479546E+02 -0.55158781712E+02  0.10535907250E+03  0.81275886908E+02 0.  0.
          5    1    3    3  502    0 -0.26323411394E+02  0.48706284884E+02  0.19264133683E+02  0.58808341425E+02  0.47000000000E+01 0. -1.
        -13    1    4    4    0    0  0.47696252695E+02 -0.55701643046E+02  0.37918953595E+01  0.73430130257E+02  0.00000000000E+00 0.  1.
         14    1    4    4    0    0  0.59771223258E+02  0.15813656166E+02  0.37397746643E+02  0.72258302673E+02  0.00000000000E+00 0. -1.
         -5    1    5    5    0  501 -0.96204594286E+02  0.26188181542E+02 -0.59843419579E+02  0.11638071009E+03  0.47000000000E+01 0.  1.
         11    1    6    6    0    0  0.22304914111E+02  0.15155100994E+02  0.42169089768E+01  0.27294112935E+02  0.00000000000E+00 0. -1.
        -12    1    6    6    0    0 -0.72443843847E+01 -0.50161580540E+02 -0.59375690689E+02  0.78064959567E+02  0.00000000000E+00 0.  1.
</event>
<event>
12    1  0.2609167E-002  0.1726844E+03  0.7818608E-02  0.1175077E+00
         -2   -1    0    0    0  501 -0.00000000000E+00  0.00000000000E+00  0.41206200260E+02  0.41206200260E+02  0.00000000000E+00 0.  1.
          2   -1    0    0  502    0  0.00000000000E+00 -0.00000000000E+00 -0.23871693753E+04  0.23871693753E+04  0.00000000000E+00 0. -1.
          6    2    1    2  502    0 -0.21302340053E+02  0.80650410332E+01 -0.16012546746E+03  0.23575461557E+03  0.17152620457E+03 0.  0.
         24    2    3    3    0    0 -0.15713798413E+01  0.56648907154E+02 -0.45620551367E+02  0.10972617177E+03  0.82140307688E+02 0.  0.
         -6    2    1    2    0  501  0.21302340053E+02 -0.80650410332E+01 -0.21858377076E+04  0.21926209600E+04  0.17082551254E+03 0.  0.
        -24    2    5    5    0    0  0.37580756923E+02 -0.59368645654E+02 -0.17815743418E+04  0.17847631347E+04  0.80220710584E+02 0.  0.
          5    1    3    3  502    0 -0.19730960212E+02 -0.48583866121E+02 -0.11450491610E+03  0.12602844381E+03  0.47000000000E+01 0. -1.
        -11    1    4    4    0    0 -0.13354540770E+02  0.51344529730E+02 -0.66562370203E+02  0.85118468145E+02  0.00000000000E+00 0.  1.
         12    1    4    4    0    0  0.11783160928E+02  0.53043774242E+01  0.20941818836E+02  0.24607703621E+02  0.00000000000E+00 0. -1.
         -5    1    5    5    0  501 -0.16278416869E+02  0.51303604620E+02 -0.40426336584E+03  0.40785782531E+03  0.47000000000E+01 0.  1.
         13    1    6    6    0    0  0.56717633831E+02 -0.17248826822E+02 -0.11250315463E+04  0.11265923807E+04  0.00000000000E+00 0. -1.
        -14    1    6    6    0    0 -0.19136876908E+02 -0.42119818831E+02 -0.65654279549E+03  0.65817075407E+03  0.00000000000E+00 0.  1.
</event>
<event>
12    1  0.2609167E-002  0.3408995E+03  0.7818608E-02  0.1066413E+00
         -2   -1    0    0    0  501 -0.00000000000E+00  0.00000000000E+00  0.19912670192E+03  0.19912670192E+03  0.00000000000E+00 0.  1.
          2   -1    0    0  502    0  0.00000000000E+00 -0.00000000000E+00 -0.63682405088E+03  0.63682405088E+03  0.00000000000E+00 0. -1.
          6    2    1    2  502    0 -0.26953597737E+03 -0.11681290872E+03 -0.33948924734E+03  0.48088933306E+03  0.17235632524E+03 0.  0.
         24    2    3    3    0    0 -0.17402729146E+03 -0.78225126080E+01 -0.22758429239E+03  0.29773468673E+03  0.80651371128E+02 0.  0.
         -6    2    1    2    0  501  0.26953597737E+03  0.11681290872E+03 -0.98208101623E+02  0.35506141974E+03  0.17357673182E+03 0.  0.
        -24    2    5    5    0    0  0.56803560431E+02  0.14163594892E+02 -0.60261115888E+02  0.11578328332E+03  0.79668781279E+02 0.  0.
          5    1    3    3  502    0 -0.95508685906E+02 -0.10899039611E+03 -0.11190495495E+03  0.18315464632E+03  0.47000000000E+01 0. -1.
        -13    1    4    4    0    0 -0.14415985407E+03 -0.12624673938E+02 -0.12645508492E+03  0.19217787183E+03  0.00000000000E+00 0.  1.
         14    1    4    4    0    0 -0.29867437388E+02  0.48021613303E+01 -0.10112920747E+03  0.10555681491E+03  0.00000000000E+00 0. -1.
         -5    1    5    5    0  501  0.21273241693E+03  0.10264931382E+03 -0.37946985734E+02  0.23927813642E+03  0.47000000000E+01 0.  1.
         13    1    6    6    0    0  0.53298697309E+01 -0.24539737537E+02  0.32647563947E+01  0.25323208013E+02  0.00000000000E+00 0. -1.
        -14    1    6    6    0    0  0.51473690700E+02  0.38703332429E+02 -0.63525872283E+02  0.90460075308E+02  0.00000000000E+00 0.  1.
</event>
<event>
12    1  0.2609167E-002  0.2159600E+03  0.7818608E-02  0.1136931E+00
         -2   -1    0    0    0  501 -0.00000000000E+00  0.00000000000E+00  0.57628035219E+02  0.57628035219E+02  0.00000000000E+00 0. -1.
          2   -1    0    0  502    0  0.00000000000E+00 -0.00000000000E+00 -0.81177956564E+03  0.81177956564E+03  0.00000000000E+00 0.  1.
          6    2    1    2  502    0  0.26062388227E+02  0.12919867890E+03 -0.35425338078E+03  0.41523173899E+03  0.17190227619E+03 0.  0.
         24    2    3    3    0    0 -0.69602413002E+01  0.77026933248E+02 -0.32931222821E+03  0.34847444577E+03  0.83703657660E+02 0.  0.
         -6    2    1    2    0  501 -0.26062388227E+02 -0.12919867890E+03 -0.39989814964E+03  0.45417586187E+03  0.17025168637E+03 0.  0.
        -24    2    5    5    0    0  0.38383012482E+02 -0.24495518836E+02 -0.19159859935E+03  0.21225282855E+03  0.79170410281E+02 0.  0.
          5    1    3    3  502    0  0.33022629528E+02  0.52171745654E+02 -0.24941152570E+02  0.66757293212E+02  0.47000000000E+01 0. -1.
        -11    1    4    4    0    0 -0.17156175733E+02  0.91606737623E+02 -0.30041229220E+03  0.31453723793E+03  0.00000000000E+00 0.  1.
         12    1    4    4    0    0  0.10195934433E+02 -0.14579804375E+02 -0.28899936012E+02  0.33937207842E+02  0.00000000000E+00 0. -1.
         -5    1    5    5    0  501 -0.64445400709E+02 -0.10470316007E+03 -0.20829955029E+03  0.24192303333E+03  0.47000000000E+01 0.  1.
         11    1    6    6    0    0  0.47150117119E+02 -0.31011357215E+02 -0.68868905600E+02  0.89037991774E+02  0.00000000000E+00 0. -1.
        -12    1    6    6    0    0 -0.87671046368E+01  0.65158383797E+01 -0.12272969375E+03  0.12321483677E+03  0.00000000000E+00 0.  1.
</event>
<event>
12    1  0.2609167E-002  0.1930198E+03  0.7818608E-02  0.1155766E+00
          2   -1    0    0  502    0  0.00000000000E+00  0.00000000000E+00  0.27229293006E+04  0.27229293006E+04  0.00000000000E+00 0. -1.
         -2   -1    0    0    0  501 -0.00000000000E+00 -0.00000000000E+00 -0.14008885940E+02  0.14008885940E+02  0.00000000000E+00 0.  1.
          6    2    1    2  502    0 -0.53839058947E+02  0.68581588334E+02  0.15646201944E+04  0.15765045176E+04  0.17241827868E+03 0.  0.
         24    2    3    3    0    0 -0.36515602092E+02 -0.19354579293E+02  0.51950667264E+03  0.52754444446E+03  0.81902191784E+02 0.  0.
         -6    2    1    2    0  501  0.53839058947E+02 -0.68581588334E+02  0.11443002203E+04  0.11604336690E+04  0.17199193978E+03 0.  0.
        -24    2    5    5    0    0 -0.15357606513E+02 -0.83867215225E+02  0.83329321042E+03  0.84142069259E+03  0.79634424168E+02 0.  0.
          5    1    3    3  502    0 -0.17323456855E+02  0.87936167627E+02  0.10451135217E+04  0.10489600731E+04  0.47000000000E+01 0. -1.
        -13    1    4    4    0    0 -0.51028716092E+02 -0.26934451236E+02  0.49316333632E+03  0.49652741195E+03  0.00000000000E+00 0.  1.
         14    1    4    4    0    0  0.14513114000E+02  0.75798719433E+01  0.26343336320E+02  0.31017032500E+02  0.00000000000E+00 0. -1.
         -5    1    5    5    0  501  0.69196665460E+02  0.15285626891E+02  0.31100700987E+03  0.31901297637E+03  0.47000000000E+01 0.  1.
         11    1    6    6    0    0  0.74118272912E+00 -0.92844793803E+02  0.76744862064E+03  0.77304468849E+03  0.00000000000E+00 0. -1.
        -12    1    6    6    0    0 -0.16098789242E+02  0.89775785776E+01  0.65844589782E+02  0.68376004093E+02  0.00000000000E+00 0.  1.
</event>
<event>
12    1  0.2609167E-002  0.1824763E+03  0.7818608E-02  0.1165428E+00
         -2   -1    0    0    0  501 -0.00000000000E+00  0.00000000000E+00  0.23764606284E+02  0.23764606284E+02  0.00000000000E+00 0. -1.
          2   -1    0    0  502    0  0.00000000000E+00 -0.00000000000E+00 -0.14569212219E+04  0.14569212219E+04  0.00000000000E+00 0.  1.
          6    2    1    2  502    0  0.20311054462E+01  0.66701643774E+02 -0.87190478051E+03  0.89139770956E+03  0.17297021612E+03 0.  0.
         24    2    3    3    0    0 -0.12100597012E+02  0.76441846103E+02 -0.31409475233E+03  0.33330390554E+03  0.80288229022E+02 0.  0.
         -6    2    1    2    0  501 -0.20311054462E+01 -0.66701643774E+02 -0.56125183514E+03  0.58928811866E+03  0.16674420431E+03 0.  0.
        -24    2    5    5    0    0  0.34645345062E+02 -0.28076994398E+02 -0.15448762763E+03  0.17902450088E+03  0.78706589785E+02 0.  0.
          5    1    3    3  502    0  0.14131702458E+02 -0.97402023289E+01 -0.55781002817E+03  0.55809380402E+03  0.47000000000E+01 0. -1.
        -13    1    4    4    0    0  0.16530826772E+02  0.58836938683E+02 -0.27517410380E+03  0.28187912479E+03  0.00000000000E+00 0.  1.
         14    1    4    4    0    0 -0.28631423784E+02  0.17604907420E+02 -0.38920648533E+02  0.51424780753E+02  0.00000000000E+00 0. -1.
         -5    1    5    5    0  501 -0.36676450508E+02 -0.38624649376E+02 -0.40676420751E+03  0.41026361777E+03  0.47000000000E+01 0.  1.
         11    1    6    6    0    0  0.27188455116E+02 -0.44877372492E+02 -0.15159302166E+03  0.16041706539E+03  0.00000000000E+00 0. -1.
        -12    1    6    6    0    0  0.74568899456E+01  0.16800378094E+02 -0.28946059742E+01  0.18607435490E+02  0.00000000000E+00 0.  1.
</event>
<event>
12    1  0.2609167E-002  0.2090372E+03  0.7818608E-02  0.1142331E+00
          2   -1    0    0  502    0  0.00000000000E+00  0.00000000000E+00  0.78489078662E+03  0.78489078662E+03  0.00000000000E+00 0. -1.
         -2   -1    0    0    0  501 -0.00000000000E+00 -0.00000000000E+00 -0.81965453244E+02  0.81965453244E+02  0.00000000000E+00 0.  1.
          6    2    1    2  502    0  0.11201725768E+03  0.40122718615E+02  0.10535825750E+03  0.23360174193E+03  0.17120663784E+03 0.  0.
         24    2    3    3    0    0  0.13264704629E+02 -0.54203903217E+01  0.84926508838E+01  0.87892177206E+02  0.86299343421E+02 0.  0.
         -6    2    1    2    0  501 -0.11201725768E+03 -0.40122718615E+02  0.59756707587E+03  0.63325449793E+03  0.17253159252E+03 0.  0.
        -24    2    5    5    0    0 -0.14313128045E+03 -0.47030967940E+02  0.45297256340E+03  0.48511446500E+03  0.86333223988E+02 0.  0.
          5    1    3    3  502    0  0.98752553052E+02  0.45543108937E+02  0.96865606614E+02  0.14570956472E+03  0.47000000000E+01 0. -1.
        -11    1    4    4    0    0  0.36432531705E+02 -0.30846747982E+02  0.19803365972E+02  0.51681955568E+02  0.00000000000E+00 0.  1.
         12    1    4    4    0    0 -0.23167827077E+02  0.25426357660E+02 -0.11310715088E+02  0.36210221639E+02  0.00000000000E+00 0. -1.
         -5    1    5    5    0  501  0.31114022773E+02  0.69082493254E+01  0.14459451247E+03  0.14814003294E+03  0.47000000000E+01 0.  1.
         11    1    6    6    0    0 -0.36909623230E+02 -0.52510331293E+02  0.21668355388E+03  0.22598986195E+03  0.00000000000E+00 0. -1.
        -12    1    6    6    0    0 -0.10622165722E+03  0.54793633531E+01  0.23628900952E+03  0.25912460305E+03  0.00000000000E+00 0.  1.
</event>
<event>
12    1  0.2609167E-002  0.2290207E+03  0.7818608E-02  0.1127331E+00
         -2   -1    0    0    0  501 -0.00000000000E+00  0.00000000000E+00  0.17723348872E+03  0.17723348872E+03  0.00000000000E+00 0. -1.
          2   -1    0    0  502    0  0.00000000000E+00 -0.00000000000E+00 -0.29614676737E+03  0.29614676737E+03  0.00000000000E+00 0.  1.
          6    2    1    2  502    0  0.81146989022E+02  0.12636378549E+03 -0.53427491877E+02  0.23585220423E+03  0.17383648996E+03 0.  0.
         24    2    3    3    0    0  0.35897609255E+02  0.56780281737E+02 -0.95541384361E+02  0.14265864059E+03  0.81918818752E+02 0.  0.
         -6    2    1    2    0  501 -0.81146989022E+02 -0.12636378549E+03 -0.65485786773E+02  0.23752805186E+03  0.17198414764E+03 0.  0.
        -24    2    5    5    0    0  0.16660672052E+02 -0.42514959140E+02  0.77561329112E+01  0.89259939834E+02  0.76302552497E+02 0.  0.
          5    1    3    3  502    0  0.45249379767E+02  0.69583503752E+02  0.42113892484E+02  0.93193563640E+02  0.47000000000E+01 0. -1.
        -11    1    4    4    0    0  0.26765914226E+02  0.51951471186E+02 -0.11019330843E+03  0.12473145051E+03  0.00000000000E+00 0.  1.
         12    1    4    4    0    0  0.91316950294E+01  0.48288105514E+01  0.14651924069E+02  0.17927190086E+02  0.00000000000E+00 0. -1.
         -5    1    5    5    0  501 -0.97807661075E+02 -0.83848826349E+02 -0.73241919684E+02  0.14826811203E+03  0.47000000000E+01 0.  1.
         11    1    6    6    0    0 -0.19013508655E+02  0.71650884914E+01 -0.13630154827E+02  0.24466980301E+02  0.00000000000E+00 0. -1.
        -12    1    6    6    0    0  0.35674180707E+02 -0.49680047632E+02  0.21386287738E+02  0.64792959533E+02  0.00000000000E+00 0.  1.
</event>
<event>
12    1  0.2609167E-002  0.2491623E+03  0.7818608E-02  0.1113835E+00
         -2   -1    0    0    0  501 -0.00000000000E+00  0.00000000000E+00  0.25480409512E+03  0.25480409512E+03  0.00000000000E+00 0. -1.
          2   -1    0    0  502    0  0.00000000000E+00 -0.00000000000E+00 -0.24825345857E+03  0.24825345857E+03  0.00000000000E+00 0.  1.
          6    2    1    2  502    0  0.13712110609E+03  0.11689098849E+03 -0.30985130807E+02  0.25152053045E+03  0.17273331461E+03 0.  0.
         24    2    3    3    0    0  0.13006983772E+03  0.12735395282E+03 -0.69793092323E+02  0.21044326319E+03  0.79234457788E+02 0.  0.
         -6    2    1    2    0  501 -0.13712110609E+03 -0.11689098849E+03  0.37535767358E+02  0.25153702324E+03  0.17145331522E+03 0.  0.
        -24    2    5    5    0    0 -0.23333649176E+02 -0.70044561532E+02  0.39895831081E+02  0.12837114740E+03  0.97143061318E+02 0.  0.
          5    1    3    3  502    0  0.70512683694E+01 -0.10462964331E+02  0.38807961516E+02  0.41077267256E+02  0.47000000000E+01 0. -1.
        -13    1    4    4    0    0  0.26937684288E+02  0.68819724707E+02 -0.21785806021E+01  0.73936050455E+02  0.00000000000E+00 0.  1.
         14    1    4    4    0    0  0.10313215343E+03  0.58534228118E+02 -0.67614511721E+02  0.13650721273E+03  0.00000000000E+00 0. -1.
         -5    1    5    5    0  501 -0.11378745691E+03 -0.46846426961E+02 -0.23600637238E+01  0.12316587584E+03  0.47000000000E+01 0.  1.
         13    1    6    6    0    0 -0.25873098733E+02 -0.77777596404E+02 -0.55941012433E+01  0.82158783518E+02  0.00000000000E+00 0. -1.
        -14    1    6    6    0    0  0.25394495571E+01  0.77330348722E+01  0.45489932325E+02  0.46212363879E+02  0.00000000000E+00 0.  1.
</event>
<event>
12    1  0.2609167E-002  0.1981296E+03  0.7818608E-02  0.1151327E+00
         -2   -1    0    0    0  501 -0.00000000000E+00  0.00000000000E+00  0.10258335089E+03  0.10258335089E+03  0.00000000000E+00 0. -1.
          2   -1    0    0  502    0  0.00000000000E+00 -0.00000000000E+00 -0.45376683758E+03  0.45376683758E+03  0.00000000000E+00 0.  1.
          6    2    1    2  502    0 -0.91445010733E+02 -0.34574136852E+02 -0.28575594113E+03  0.34776379251E+03  0.17241124256E+03 0.  0.
         24    2    3    3    0    0 -0.18886903139E+02  0.33965623092E+02 -0.18730150868E+03  0.20748641393E+03  0.80364035184E+02 0.  0.
         -6    2    1    2    0  501  0.91445010733E+02  0.34574136852E+02 -0.65427545563E+02  0.20858639596E+03  0.17224970228E+03 0.  0.
        -24    2    5    5    0    0  0.57990458410E+02  0.82804330285E+02 -0.12772264628E+02  0.12959255291E+03  0.80072770938E+02 0.  0.
          5    1    3    3  502    0 -0.72558107594E+02 -0.68539759944E+02 -0.98454432449E+02  0.14027737857E+03  0.47000000000E+01 0. -1.
        -11    1    4    4    0    0 -0.22576096688E+02 -0.22971292330E+02 -0.68466388350E+02  0.75663774335E+02  0.00000000000E+00 0.  1.
         12    1    4    4    0    0  0.36891935484E+01  0.56936915422E+02 -0.11883512033E+03  0.13182263960E+03  0.00000000000E+00 0. -1.
         -5    1    5    5    0  501  0.33454552323E+02 -0.48230193433E+02 -0.52655280936E+02  0.78993843052E+02  0.47000000000E+01 0.  1.
         11    1    6    6    0    0 -0.15227092534E+02  0.31506944353E+02 -0.19286070250E+02  0.39956281049E+02  0.00000000000E+00 0. -1.
        -12    1    6    6    0    0  0.73217550944E+02  0.51297385931E+02  0.65138056225E+01  0.89636271862E+02  0.00000000000E+00 0.  1.
</event>
<event>
12    1  0.2609167E-002  0.1899587E+03  0.7818608E-02  0.1158499E+00
          1   -1    0    0  502    0  0.00000000000E+00  0.00000000000E+00  0.25814011728E+03  0.25814011728E+03  0.00000000000E+00 0. -1.
         -1   -1    0    0    0  501 -0.00000000000E+00 -0.00000000000E+00 -0.16568325868E+03  0.16568325868E+03  0.00000000000E+00 0.  1.
          6    2    1    2  502    0 -0.26045428682E+02  0.75395085892E+02 -0.37581948809E+02  0.19349855950E+03  0.17223967696E+03 0.  0.
         24    2    3    3    0    0  0.24254241860E+02  0.10202451033E+03 -0.27087026606E+02  0.13543465940E+03  0.81311567437E+02 0.  0.
         -6    2    1    2    0  501  0.26045428682E+02 -0.75395085892E+02  0.13003880741E+03  0.23032481646E+03  0.17255910962E+03 0.  0.
        -24    2    5    5    0    0 -0.43345478572E+02 -0.71731719617E+02  0.10338665181E+03  0.15575306805E+03  0.80907035076E+02 0.  0.
          5    1    3    3  502    0 -0.50299670542E+02 -0.26629424443E+02 -0.10494922203E+02  0.58063900100E+02  0.47000000000E+01 0. -1.
        -11    1    4    4    0    0 -0.23345361567E+02  0.72144127147E+02 -0.22257680983E+02  0.79026485125E+02  0.00000000000E+00 0.  1.
         12    1    4    4    0    0  0.47599603427E+02  0.29880383188E+02 -0.48293456227E+01  0.56408174274E+02  0.00000000000E+00 0. -1.
         -5    1    5    5    0  501  0.69390907254E+02 -0.36633662750E+01  0.26652155604E+02  0.74571748406E+02  0.47000000000E+01 0.  1.
         11    1    6    6    0    0  0.77833043358E+01 -0.50165648503E+02  0.81673728954E+02  0.96165327002E+02  0.00000000000E+00 0. -1.
        -12    1    6    6    0    0 -0.51128782908E+02 -0.21566071114E+02  0.21712922851E+02  0.59587741052E+02  0.00000000000E+00 0.  1.
</event>
<event>
12    1  0.2609167E-002  0.2045316E+03  0.7818608E-02  0.1145971E+00
          2   -1    0    0  502    0  0.00000000000E+00  0.00000000000E+00  0.27499990833E+04  0.27499990833E+04  0.00000000000E+00 0. -1.
         -2   -1    0    0    0  501 -0.00000000000E+00 -0.00000000000E+00 -0.16002354165E+02  0.16002354165E+02  0.00000000000E+00 0.  1.
          6    2    1    2  502    0 -0.39243090859E+02  0.10305597015E+03  0.16800166385E+04  0.16925306555E+04  0.17333078504E+03 0.  0.
         24    2    3    3    0    0  0.35976904328E+01  0.37408102812E+02  0.37583129045E+03  0.38598311060E+03  0.79507818858E+02 0.  0.
         -6    2    1    2    0  501  0.39243090859E+02 -0.10305597015E+03  0.10539800906E+04  0.10734707819E+04  0.17118684263E+03 0.  0.
        -24    2    5    5    0    0  0.43572758559E+02 -0.10248816149E+03  0.49661034730E+03  0.51606411783E+03  0.85427911880E+02 0.  0.
          5    1    3    3  502    0 -0.42840781292E+02  0.65647867341E+02  0.13041853480E+04  0.13065475449E+04  0.47000000000E+01 0. -1.
        -13    1    4    4    0    0 -0.95219110572E+01 -0.16392660446E+02  0.28270626649E+02  0.34038425901E+02  0.00000000000E+00 0.  1.
         14    1    4    4    0    0  0.13119601490E+02  0.53800763258E+02  0.34756066380E+03  0.35194468470E+03  0.00000000000E+00 0. -1.
         -5    1    5    5    0  501 -0.43296676999E+01 -0.56780865911E+00  0.55736974331E+03  0.55740666410E+03  0.47000000000E+01 0.  1.
         11    1    6    6    0    0 -0.55878418301E+01 -0.34871713767E+02  0.30464722495E+03  0.30668745013E+03  0.00000000000E+00 0. -1.
        -12    1    6    6    0    0  0.49160600389E+02 -0.67616447727E+02  0.19196312236E+03  0.20937666771E+03  0.00000000000E+00 0.  1.
</event>
<event>
12    1  0.2609167E-002  0.2100041E+03  0.7818608E-02  0.1141563E+00
         -2   -1    0    0    0  501 -0.00000000000E+00  0.00000000000E+00  0.45661947323E+03  0.45661947323E+03  0.00000000000E+00 0.  1.
          2   -1    0    0  502    0  0.00000000000E+00 -0.00000000000E+00 -0.97133560892E+02  0.97133560892E+02  0.00000000000E+00 0. -1.
          6    2    1    2  502    0 -0.13090092154E+03 -0.52492206338E+01  0.20407772884E+03  0.29708840185E+03  0.17161350043E+03 0.  0.
         24    2    3    3    0    0 -0.11337567775E+03 -0.68348677687E+02  0.13901129374E+03  0.20465244226E+03  0.70942908644E+02 0.  0.
         -6    2    1    2    0  501  0.13090092154E+03  0.52492206338E+01  0.15540818350E+03  0.25666463227E+03  0.15672403895E+03 0.  0.
        -24    2    5    5    0    0  0.13430457245E+03  0.38526594212E+02  0.15279605826E+03  0.22278423042E+03  0.82244521151E+02 0.  0.
          5    1    3    3  502    0 -0.17525243790E+02  0.63099457054E+02  0.65066435098E+02  0.92435959597E+02  0.47000000000E+01 0. -1.
        -13    1    4    4    0    0 -0.59504885480E+02 -0.12282494976E+02  0.10156640463E+03  0.11835297051E+03  0.00000000000E+00 0.  1.
         14    1    4    4    0    0 -0.53870792267E+02 -0.56066182712E+02  0.37444889116E+02  0.86299471750E+02  0.00000000000E+00 0. -1.
         -5    1    5    5    0  501 -0.34036509121E+01 -0.33277373578E+02  0.26121252410E+01  0.33880401858E+02  0.47000000000E+01 0.  1.
         13    1    6    6    0    0  0.21076804813E+01  0.70073047427E+01  0.54673691962E+02  0.55161193148E+02  0.00000000000E+00 0. -1.
        -14    1    6    6    0    0  0.13219689197E+03  0.31519289469E+02  0.98122366299E+02  0.16762303727E+03  0.00000000000E+00 0.  1.
</event>
<event>
12    1  0.2609167E-002  0.1817662E+03  0.7818608E-02  0.1166105E+00
          2   -1    0    0  502    0  0.00000000000E+00  0.00000000000E+00  0.66424760950E+03  0.66424760950E+03  0.00000000000E+00 0.  1.
         -2   -1    0    0    0  501 -0.00000000000E+00 -0.00000000000E+00 -0.50144100065E+02  0.50144100065E+02  0.00000000000E+00 0. -1.
          6    2    1    2  502    0  0.46999838371E+02 -0.50798502442E+02  0.28540690747E+03  0.34125385654E+03  0.17380339213E+03 0.  0.
         24    2    3    3    0    0 -0.58610547822E+01  0.91760328527E+01  0.59513017993E+02  0.10158458815E+03  0.81603172099E+02 0.  0.
         -6    2    1    2    0  501 -0.46999838371E+02  0.50798502442E+02  0.32869660196E+03  0.37313785302E+03  0.16248362551E+03 0.  0.
        -24    2    5    5    0    0 -0.72149816631E+02  0.72028194147E+02  0.30464021335E+03  0.33210102750E+03  0.84212683606E+02 0.  0.
          5    1    3    3  502    0  0.52860893153E+02 -0.59974535295E+02  0.22589388948E+03  0.23966926839E+03  0.47000000000E+01 0. -1.
        -11    1    4    4    0    0 -0.18412627720E+02 -0.32456725798E+02  0.17858635138E+02  0.41369007216E+02  0.00000000000E+00 0.  1.
         12    1    4    4    0    0  0.12551572938E+02  0.41632758650E+02  0.41654382855E+02  0.60215580933E+02  0.00000000000E+00 0. -1.
         -5    1    5    5    0  501  0.25149978260E+02 -0.21229691704E+02  0.24056388611E+02  0.41036825527E+02  0.47000000000E+01 0.  1.
         13    1    6    6    0    0 -0.88841175906E+02  0.43776317053E+02  0.23923955578E+03  0.25892988534E+03  0.00000000000E+00 0. -1.
        -14    1    6    6    0    0  0.16691359275E+02  0.28251877094E+02  0.65400657573E+02  0.73171142158E+02  0.00000000000E+00 0.  1.
</event>
<event>
12    1  0.2609167E-002  0.1827785E+03  0.7818608E-02  0.1165141E+00
          2   -1    0    0  502    0  0.00000000000E+00  0.00000000000E+00  0.33976923575E+03  0.33976923575E+03  0.00000000000E+00 0. -1.
         -2   -1    0    0    0  501 -0.00000000000E+00 -0.00000000000E+00 -0.98514358871E+02  0.98514358871E+02  0.00000000000E+00 0.  1.
          6    2    1    2  502    0  0.15514270230E+02  0.60722596288E+02  0.13154242887E+03  0.22789130083E+03  0.17522302394E+03 0.  0.
         24    2    3    3    0    0 -0.32935174439E+02  0.21252654432E+01  0.14433421798E+02  0.88185877141E+02  0.80493371118E+02 0.  0.
         -6    2    1    2    0  501 -0.15514270230E+02 -0.60722596288E+02  0.10971244802E+03  0.21039229380E+03  0.16822654297E+03 0.  0.
        -24    2    5    5    0    0  0.15584797893E+02 -0.93188104919E+02  0.10933764443E+03  0.16518840274E+03  0.80034861705E+02 0.  0.
          5    1    3    3  502    0  0.48449444668E+02  0.58597330844E+02  0.11710900707E+03  0.13970542369E+03  0.47000000000E+01 0. -1.
        -11    1    4    4    0    0  0.11506155548E+01  0.23777246948E+02 -0.23016010420E+02  0.33112205065E+02  0.00000000000E+00 0.  1.
         12    1    4    4    0    0 -0.34085789994E+02 -0.21651981505E+02  0.37449432218E+02  0.55073672077E+02  0.00000000000E+00 0. -1.
         -5    1    5    5    0  501 -0.31099068122E+02  0.32465508631E+02  0.37480358763E+00  0.45203891055E+02  0.47000000000E+01 0.  1.
         11    1    6    6    0    0  0.20167969153E+02 -0.60411388219E+02  0.15305699654E+02  0.65502269031E+02  0.00000000000E+00 0. -1.
        -12    1    6    6    0    0 -0.45831712607E+01 -0.32776716699E+02  0.94031944774E+02  0.99686133712E+02  0.00000000000E+00 0.  1.
</event>
<event>
12    1  0.2609167E-002  0.2892452E+03  0.7818608E-02  0.1090744E+00
          2   -1    0    0  502    0  0.00000000000E+00  0.00000000000E+00  0.17479324081E+04  0.17479324081E+04  0.00000000000E+00 0. -1.
         -2   -1    0    0    0  501 -0.00000000000E+00 -0.00000000000E+00 -0.49009769541E+02  0.49009769541E+02  0.00000000000E+00 0.  1.
          6    2    1    2  502    0 -0.23245783250E+03 -0.11176447836E+02  0.98684977860E+03  0.10283656778E+04  0.17176124374E+03 0.  0.
         24    2    3    3    0    0 -0.14271754891E+03 -0.74261085004E+02  0.58286858386E+03  0.60972993439E+03  0.78433406970E+02 0.  0.
         -6    2    1    2    0  501  0.23245783250E+03  0.11176447836E+02  0.71207285995E+03  0.76857649985E+03  0.17175715809E+03 0.  0.
        -24    2    5    5    0    0  0.47761377129E+02 -0.28066486264E+02  0.28853378790E+03  0.30483063835E+03  0.81247120049E+02 0.  0.
          5    1    3    3  502    0 -0.89740283599E+02  0.63084637168E+02  0.40398119474E+03  0.41863574339E+03  0.47000000000E+01 0. -1.
        -13    1    4    4    0    0 -0.65623811702E+02 -0.65075720992E+02  0.40904169119E+03  0.41935240461E+03  0.00000000000E+00 0.  1.
         14    1    4    4    0    0 -0.77093737204E+02 -0.91853640117E+01  0.17382689267E+03  0.19037752978E+03  0.00000000000E+00 0. -1.
         -5    1    5    5    0  501  0.18469645538E+03  0.39242934100E+02  0.42353907205E+03  0.46374586150E+03  0.47000000000E+01 0.  1.
         11    1    6    6    0    0  0.63853349546E+02 -0.80623346935E+00  0.22440823428E+03  0.23331728585E+03  0.00000000000E+00 0. -1.
        -12    1    6    6    0    0 -0.16091972417E+02 -0.27260252795E+02  0.64125553622E+02  0.71513352502E+02  0.00000000000E+00 0.  1.
</event>
<event>
12    1  0.2609167E-002  0.2803346E+03  0.7818608E-02  0.1095506E+00
          1   -1    0    0  502    0  0.00000000000E+00  0.00000000000E+00  0.88425392269E+03  0.88425392269E+03  0.00000000000E+00 0.  1.
         -1   -1    0    0    0  501 -0.00000000000E+00 -0.00000000000E+00 -0.10034987196E+03  0.10034987196E+03  0.00000000000E+00 0. -1.
          6    2    1    2  502    0 -0.76470432664E+02 -0.20805082185E+03  0.22567164918E+03  0.36000698397E+03  0.17188503054E+03 0.  0.
         24    2    3    3    0    0 -0.77655969571E+02 -0.90316662292E+02  0.56419886869E+02  0.15377656219E+03  0.79224228284E+02 0.  0.
         -6    2    1    2    0  501  0.76470432664E+02  0.20805082185E+03  0.55823240155E+03  0.62459681067E+03  0.17136186921E+03 0.  0.
        -24    2    5    5    0    0  0.51279500146E+02  0.16157074859E+03  0.53477387917E+03  0.56656774414E+03  0.79254103459E+02 0.  0.
          5    1    3    3  502    0  0.11855369076E+01 -0.11773415955E+03  0.16925176231E+03  0.20623042178E+03  0.47000000000E+01 0. -1.
        -11    1    4    4    0    0 -0.28442943300E+02 -0.19542274429E+02  0.58078780247E+02  0.67557725157E+02  0.00000000000E+00 0.  1.
         12    1    4    4    0    0 -0.49213026272E+02 -0.70774387863E+02 -0.16588933782E+01  0.86218837034E+02  0.00000000000E+00 0. -1.
         -5    1    5    5    0  501  0.25190932518E+02  0.46480073252E+02  0.23458522376E+02  0.58029066533E+02  0.47000000000E+01 0.  1.
         13    1    6    6    0    0 -0.13149415806E+02  0.15586947198E+02  0.12802002313E+03  0.12963404793E+03  0.00000000000E+00 0. -1.
        -14    1    6    6    0    0  0.64428915952E+02  0.14598380140E+03  0.40675385604E+03  0.43693369621E+03  0.00000000000E+00 0.  1.
</event>
<event>
12    1  0.2609167E-002  0.1984941E+03  0.7818608E-02  0.1151016E+00
         -1   -1    0    0    0  501 -0.00000000000E+00  0.00000000000E+00  0.13455732351E+03  0.13455732351E+03  0.00000000000E+00 0. -1.
          1   -1    0    0  502    0  0.00000000000E+00 -0.00000000000E+00 -0.35135672850E+03  0.35135672850E+03  0.00000000000E+00 0.  1.
          6    2    1    2  502    0  0.18749465957E+02 -0.96044167752E+02 -0.88795800179E+01  0.19792678144E+03  0.17181425796E+03 0.  0.
         24    2    3    3    0    0  0.16372527234E+02 -0.12986966717E+03  0.19541422989E+02  0.15343343744E+03  0.77625784452E+02 0.  0.
         -6    2    1    2    0  501 -0.18749465957E+02  0.96044167752E+02 -0.20791982497E+03  0.28798727056E+03  0.17357992326E+03 0.  0.
        -24    2    5    5    0    0  0.19472654128E+02 -0.57043306414E+01 -0.44009890424E+02  0.91258411390E+02  0.77327249709E+02 0.  0.
          5    1    3    3  502    0  0.23769387229E+01  0.33825499421E+02 -0.28421003007E+02  0.44493344004E+02  0.47000000000E+01 0. -1.
        -11    1    4    4    0    0 -0.95269853125E+00 -0.34328407680E+02 -0.28934436666E+02  0.44905999973E+02  0.00000000000E+00 0.  1.
         12    1    4    4    0    0  0.17325225765E+02 -0.95541259492E+02  0.48475859656E+02  0.10852743746E+03  0.00000000000E+00 0. -1.
         -5    1    5    5    0  501 -0.38222120085E+02  0.10174849839E+03 -0.16390993455E+03  0.19672885917E+03  0.47000000000E+01 0.  1.
         11    1    6    6    0    0  0.10016105570E+02  0.32233105105E+02 -0.19159582906E+01  0.33807785075E+02  0.00000000000E+00 0. -1.
        -12    1    6    6    0    0  0.94565485581E+01 -0.37937435746E+02 -0.42093932133E+02  0.57450626316E+02  0.00000000000E+00 0.  1.
</event>
<event>
12    1  0.2609167E-002  0.1887887E+03  0.7818608E-02  0.1159558E+00
         -1   -1    0    0    0  501 -0.00000000000E+00  0.00000000000E+00  0.62342255900E+02  0.62342255900E+02  0.00000000000E+00 0.  1.
          1   -1    0    0  502    0  0.00000000000E+00 -0.00000000000E+00 -0.79420349423E+03  0.79420349423E+03  0.00000000000E+00 0. -1.
          6    2    1    2  502    0 -0.36301240037E+02 -0.65416189637E+02 -0.14006969129E+03  0.23554871487E+03  0.17397304608E+03 0.  0.
         24    2    3    3    0    0 -0.70289034336E+02 -0.95904239334E+02 -0.10668508311E+03  0.17879209940E+03  0.80291571038E+02 0.  0.
         -6    2    1    2    0  501  0.36301240037E+02  0.65416189637E+02 -0.59179154704E+03  0.62099703526E+03  0.17269344159E+03 0.  0.
        -24    2    5    5    0    0  0.78179435895E+02  0.17124430311E+02 -0.47032136013E+03  0.48365449409E+03  0.79462051033E+02 0.  0.
          5    1    3    3  502    0  0.33987794299E+02  0.30488049697E+02 -0.33384608185E+02  0.56756615468E+02  0.47000000000E+01 0. -1.
        -13    1    4    4    0    0 -0.45323987386E+02 -0.10362043414E+03 -0.67553417242E+02  0.13173808252E+03  0.00000000000E+00 0.  1.
         14    1    4    4    0    0 -0.24965046949E+02  0.77161948053E+01 -0.39131665865E+02  0.47054016883E+02  0.00000000000E+00 0. -1.
         -5    1    5    5    0  501 -0.41878195859E+02  0.48291759325E+02 -0.12147018691E+03  0.13734254117E+03  0.47000000000E+01 0.  1.
         13    1    6    6    0    0 -0.61019388741E+01  0.20714121110E+02 -0.18106719293E+03  0.18235031348E+03  0.00000000000E+00 0. -1.
        -14    1    6    6    0    0  0.84281374769E+02 -0.35896907980E+01 -0.28925416720E+03  0.30130418061E+03  0.00000000000E+00 0.  1.
</event>
<event>
12    1  0.2609167E-002  0.2080978E+03  0.7818608E-02  0.1143081E+00
          2   -1    0    0  502    0  0.00000000000E+00  0.00000000000E+00  0.14727096986E+04  0.14727096986E+04  0.00000000000E+00 0. -1.
         -2   -1    0    0    0  501 -0.00000000000E+00 -0.00000000000E+00 -0.32301822669E+02  0.32301822669E+02  0.00000000000E+00 0.  1.
          6    2    1    2  502    0  0.11366783206E+03  0.25451059593E+02  0.49209076888E+03  0.53394076436E+03  0.17138051977E+03 0.  0.
         24    2    3    3    0    0  0.88726330790E+02  0.88526975079E+01  0.15364167058E+03  0.19413572283E+03  0.78308262101E+02 0.  0.
         -6    2    1    2    0  501 -0.11366783206E+03 -0.25451059593E+02  0.94831710702E+03  0.97107075688E+03  0.17350777189E+03 0.  0.
        -24    2    5    5    0    0 -0.55344816198E+02 -0.37109122006E+02  0.84774653220E+03  0.85413481237E+03  0.80199496390E+02 0.  0.
          5    1    3    3  502    0  0.24941501268E+02  0.16598362085E+02  0.33844909830E+03  0.33980504153E+03  0.47000000000E+01 0. -1.
        -11    1    4    4    0    0  0.93779126940E+02 -0.71194414838E+01  0.97164154085E+02  0.13522604755E+03  0.00000000000E+00 0.  1.
         12    1    4    4    0    0 -0.50527961497E+01  0.15972138992E+02  0.56477516492E+02  0.58909675284E+02  0.00000000000E+00 0. -1.
         -5    1    5    5    0  501 -0.58323015860E+02  0.11658062414E+02  0.10057057482E+03  0.11693594451E+03  0.47000000000E+01 0.  1.
         13    1    6    6    0    0  0.16345820160E+02  0.39790407838E+01  0.69198883979E+02  0.71214493934E+02  0.00000000000E+00 0. -1.
        -14    1    6    6    0    0 -0.71690636358E+02 -0.41088162790E+02  0.77854764822E+03  0.78292031843E+03  0.00000000000E+00 0.  1.
</event>
<event>
12    1  0.2609167E-002  0.2223015E+03  0.7818608E-02  0.1132179E+00
          1   -1    0    0  502    0  0.00000000000E+00  0.00000000000E+00  0.22586743262E+03  0.22586743262E+03  0.00000000000E+00 0. -1.
         -1   -1    0    0    0  501 -0.00000000000E+00 -0.00000000000E+00 -0.23823739130E+03  0.23823739130E+03  0.00000000000E+00 0.  1.
          6    2    1    2  502    0 -0.11810457970E+02  0.13762123725E+03 -0.72380171386E+02  0.23162251559E+03  0.17126298100E+03 0.  0.
         24    2    3    3    0    0  0.34079736947E+02  0.13972657565E+03 -0.28158291344E+02  0.16768499051E+03  0.81488786076E+02 0.  0.
         -6    2    1    2    0  501  0.11810457970E+02 -0.13762123725E+03  0.60010212708E+02  0.23248230832E+03  0.17710930578E+03 0.  0.
        -24    2    5    5    0    0  0.53824117134E+02 -0.57705958593E+02 -0.12577253333E+02  0.11653995392E+03  0.84831363982E+02 0.  0.
          5    1    3    3  502    0 -0.45890194917E+02 -0.21053384057E+01 -0.44221880043E+02  0.63937525084E+02  0.47000000000E+01 0. -1.
        -11    1    4    4    0    0  0.34500518086E+02  0.19650918416E+02  0.11317751917E+02  0.41286024890E+02  0.00000000000E+00 0.  1.
         12    1    4    4    0    0 -0.42078113869E+00  0.12007565724E+03 -0.39476043261E+02  0.12639896562E+03  0.00000000000E+00 0. -1.
         -5    1    5    5    0  501 -0.42013659164E+02 -0.79915278654E+02  0.72587466041E+02  0.11594235441E+03  0.47000000000E+01 0.  1.
         13    1    6    6    0    0  0.27040021867E+02  0.18704667464E+02 -0.13558957221E+02  0.35565048691E+02  0.00000000000E+00 0. -1.
        -14    1    6    6    0    0  0.26784095267E+02 -0.76410626057E+02  0.98170388750E+00  0.80974905225E+02  0.00000000000E+00 0.  1.
</event>
<event>
12    1  0.2609167E-002  0.2194078E+03  0.7818608E-02  0.1134325E+00
          1   -1    0    0  502    0  0.00000000000E+00  0.00000000000E+00  0.52405071559E+03  0.52405071559E+03  0.00000000000E+00 0. -1.
         -1   -1    0    0    0  501 -0.00000000000E+00 -0.00000000000E+00 -0.95627680033E+02  0.95627680033E+02  0.00000000000E+00 0.  1.
          6    2    1    2  502    0  0.78215556828E+02 -0.11262442364E+03  0.15226523692E+03  0.26666698466E+03  0.17065943924E+03 0.  0.
         24    2    3    3    0    0 -0.13926801635E+02 -0.14738170998E+02  0.40050091232E+02  0.91492038960E+02  0.79722104194E+02 0.  0.
         -6    2    1    2    0  501 -0.78215556828E+02  0.11262442364E+03  0.27615779864E+03  0.35301141097E+03  0.17190692946E+03 0.  0.
        -24    2    5    5    0    0 -0.84477918034E+02  0.11009617015E+03  0.29301764927E+03  0.33425097928E+03  0.81281541885E+02 0.  0.
          5    1    3    3  502    0  0.92142358463E+02 -0.97886252639E+02  0.11221514569E+03  0.17517494570E+03  0.47000000000E+01 0. -1.
        -13    1    4    4    0    0 -0.21591229935E+02  0.25050152407E+02 -0.19549220208E+01  0.33128734745E+02  0.00000000000E+00 0.  1.
         14    1    4    4    0    0  0.76644282993E+01 -0.39788323404E+02  0.42005013253E+02  0.58363304215E+02  0.00000000000E+00 0. -1.
         -5    1    5    5    0  501  0.62623612067E+01  0.25282534906E+01 -0.16859850633E+02  0.18760431684E+02  0.47000000000E+01 0.  1.
         11    1    6    6    0    0 -0.62624481603E+02  0.22063522523E+02  0.89541200706E+02  0.11147309696E+03  0.00000000000E+00 0. -1.
        -12    1    6    6    0    0 -0.21853436431E+02  0.88032647622E+02  0.20347644856E+03  0.22277788232E+03  0.00000000000E+00 0.  1.
</event>
<event>
12    1  0.2609167E-002  0.1815156E+03  0.7818608E-02  0.1166344E+00
         -1   -1    0    0    0  501 -0.00000000000E+00  0.00000000000E+00  0.24232873044E+03  0.24232873044E+03  0.00000000000E+00 0. -1.
          1   -1    0    0  502    0  0.00000000000E+00 -0.00000000000E+00 -0.15304836912E+03  0.15304836912E+03  0.00000000000E+00 0.  1.
          6    2    1    2  502    0  0.34110936691E+02  0.51913239843E+02 -0.20767645581E+02  0.18535374515E+03  0.17339600707E+03 0.  0.
         24    2    3    3    0    0 -0.19890330075E+01  0.80452669948E+02 -0.57334089399E+02  0.12638848677E+03  0.78805224612E+02 0.  0.
         -6    2    1    2    0  501 -0.34110936691E+02 -0.51913239843E+02  0.11004800690E+03  0.21002335441E+03  0.16775191535E+03 0.  0.
        -24    2    5    5    0    0 -0.67712198986E+02 -0.23223910857E+02  0.12658648499E+02  0.10297710480E+03  0.72936621835E+02 0.  0.
          5    1    3    3  502    0  0.36099969698E+02 -0.28539430105E+02  0.36566443818E+02  0.58965258385E+02  0.47000000000E+01 0. -1.
        -11    1    4    4    0    0  0.23305824905E+02  0.38041531474E+02 -0.62443713085E+02  0.76743318245E+02  0.00000000000E+00 0.  1.
         12    1    4    4    0    0 -0.25294857912E+02  0.42411138474E+02  0.51096236861E+01  0.49645168523E+02  0.00000000000E+00 0. -1.
         -5    1    5    5    0  501  0.33601262295E+02 -0.28689328986E+02  0.97389358403E+02  0.10704624961E+03  0.47000000000E+01 0.  1.
         13    1    6    6    0    0 -0.10024410882E+01  0.21366613052E+02  0.71276173217E+01  0.22546395946E+02  0.00000000000E+00 0. -1.
        -14    1    6    6    0    0 -0.66709757897E+02 -0.44590523909E+02  0.55310311778E+01  0.80430708856E+02  0.00000000000E+00 0.  1.
</event>
<event>
12    1  0.2609167E-002  0.1849287E+03  0.7818608E-02  0.1163116E+00
          1   -1    0    0  502    0  0.00000000000E+00  0.00000000000E+00  0.91444034663E+03  0.91444034663E+03  0.00000000000E+00 0.  1.
         -1   -1    0    0    0  501 -0.00000000000E+00 -0.00000000000E+00 -0.68806981143E+02  0.68806981143E+02  0.00000000000E+00 0. -1.
          6    2    1    2  502    0 -0.61058524390E+02 -0.33877051847E+02  0.91121917236E+02  0.20649135921E+03  0.17163822297E+03 0.  0.
         24    2    3    3    0    0 -0.23626863794E+01 -0.61151301549E+02  0.89463284525E+01  0.10178222165E+03  0.80836377223E+02 0.  0.
         -6    2    1    2    0  501  0.61058524390E+02  0.33877051847E+02  0.75451144825E+03  0.77675596857E+03  0.17084060150E+03 0.  0.
        -24    2    5    5    0    0 -0.16372856416E+02  0.59375506304E+02  0.32739107544E+03  0.34190002370E+03  0.76923265367E+02 0.  0.
          5    1    3    3  502    0 -0.58695838010E+02  0.27274249702E+02  0.82175588784E+02  0.10470913756E+03  0.47000000000E+01 0. -1.
        -11    1    4    4    0    0  0.34179652889E+02 -0.51131739540E+02  0.15260475221E+02  0.63368648115E+02  0.00000000000E+00 0.  1.
         12    1    4    4    0    0 -0.36542339268E+02 -0.10019562009E+02 -0.63141467687E+01  0.38413573531E+02  0.00000000000E+00 0. -1.
         -5    1    5    5    0  501  0.77431380805E+02 -0.25498454457E+02  0.42712037282E+03  0.43485594487E+03  0.47000000000E+01 0.  1.
         13    1    6    6    0    0 -0.35219323693E+02 -0.93283111487E+00  0.12563210981E+03  0.13047872604E+03  0.00000000000E+00 0. -1.
        -14    1    6    6    0    0  0.18846467278E+02  0.60308337419E+02  0.20175896563E+03  0.21142129766E+03  0.00000000000E+00 0.  1.
</event>
<event>
12    1  0.2609167E-002  0.1982110E+03  0.7818608E-02  0.1151257E+00
          1   -1    0    0  502    0  0.00000000000E+00  0.00000000000E+00  0.46502935505E+02  0.46502935505E+02  0.00000000000E+00 0.  1.
         -1   -1    0    0    0  501 -0.00000000000E+00 -0.00000000000E+00 -0.15830573006E+04  0.15830573006E+04  0.00000000000E+00 0. -1.
          6    2    1    2  502    0  0.93477799832E+02  0.31147775861E+02 -0.20965462853E+03  0.28777698062E+03  0.17074028320E+03 0.  0.
         24    2    3    3    0    0  0.62340684361E+02  0.24887081236E+02 -0.22820488085E+03  0.25069709229E+03  0.79157038240E+02 0.  0.
         -6    2    1    2    0  501 -0.93477799832E+02 -0.31147775861E+02 -0.13268997366E+04  0.13417832555E+04  0.17323715191E+03 0.  0.
        -24    2    5    5    0    0 -0.23257442456E+02 -0.46420911974E+02 -0.10916493399E+04  0.10957568211E+04  0.79302711345E+02 0.  0.
          5    1    3    3  502    0  0.31137115472E+02  0.62606946248E+01  0.18550252319E+02  0.37079888324E+02  0.47000000000E+01 0. -1.
        -13    1    4    4    0    0  0.36610462353E+02  0.49991007269E+02 -0.10083616681E+03  0.11835269029E+03  0.00000000000E+00 0.  1.
         14    1    4    4    0    0  0.25730222008E+02 -0.25103926033E+02 -0.12736871404E+03  0.13234440200E+03  0.00000000000E+00 0. -1.
         -5    1    5    5    0  501 -0.70220357376E+02  0.15273136113E+02 -0.23525039670E+03  0.24602643440E+03  0.47000000000E+01 0.  1.
         13    1    6    6    0    0 -0.44860253793E+02 -0.30408496667E+02 -0.40860901563E+03  0.41218739269E+03  0.00000000000E+00 0. -1.
        -14    1    6    6    0    0  0.21602811337E+02 -0.16012415307E+02 -0.68304032424E+03  0.68356942840E+03  0.00000000000E+00 0.  1.
</event>
<event>
12    1  0.2609167E-002  0.1869903E+03  0.7818608E-02  0.1161204E+00
         -1   -1    0    0    0  501 -0.00000000000E+00  0.00000000000E+00  0.33387100768E+02  0.33387100768E+02  0.00000000000E+00 0.  1.
          1   -1    0    0  502    0  0.00000000000E+00 -0.00000000000E+00 -0.11144165168E+04  0.11144165168E+04  0.00000000000E+00 0. -1.
          6    2    1    2  502    0  0.72486996819E+02  0.15558951401E+02 -0.39871836354E+03  0.44024297120E+03  0.17129242419E+03 0.  0.
         24    2    3    3    0    0  0.83369122371E+02  0.45097231608E+02 -0.38705923115E+03  0.40634671739E+03  0.79489844931E+02 0.  0.
         -6    2    1    2    0  501 -0.72486996819E+02 -0.15558951401E+02 -0.68231105247E+03  0.70756064636E+03  0.17203851392E+03 0.  0.
        -24    2    5    5    0    0  0.21644853877E+02 -0.19146149656E+02 -0.42665852601E+03  0.43506481594E+03  0.80055115437E+02 0.  0.
          5    1    3    3  502    0 -0.10882125551E+02 -0.29538280207E+02 -0.11659132389E+02  0.33896253807E+02  0.47000000000E+01 0. -1.
        -11    1    4    4    0    0  0.34867935659E+02  0.15853418765E+02 -0.42702844042E+02  0.57364071621E+02  0.00000000000E+00 0.  1.
         12    1    4    4    0    0  0.48501186712E+02  0.29243812843E+02 -0.34435638711E+03  0.34898264577E+03  0.00000000000E+00 0. -1.
         -5    1    5    5    0  501 -0.94131850696E+02  0.35871982552E+01 -0.25565252646E+03  0.27249583042E+03  0.47000000000E+01 0.  1.
         13    1    6    6    0    0  0.92190950405E+01 -0.48217915873E+01 -0.40906563135E+03  0.40919791316E+03  0.00000000000E+00 0. -1.
        -14    1    6    6    0    0  0.12425758836E+02 -0.14324358069E+02 -0.17592894661E+02  0.25866902778E+02  0.00000000000E+00 0.  1.
</event>
<event>
12    1  0.2609167E-002  0.1920763E+03  0.7818608E-02  0.1156602E+00
         -2   -1    0    0    0  501 -0.00000000000E+00  0.00000000000E+00  0.39578668243E+02  0.39578668243E+02  0.00000000000E+00 0.  1.
          2   -1    0    0  502    0  0.00000000000E+00 -0.00000000000E+00 -0.96505625214E+03  0.96505625214E+03  0.00000000000E+00 0. -1.
          6    2    1    2  502    0 -0.38118474358E+02  0.74760737701E+02 -0.55441831972E+03  0.58659803359E+03  0.17226547473E+03 0.  0.
         24    2    3    3    0    0  0.27699253746E+02  0.43009142724E+02 -0.16451946839E+03  0.18988234020E+03  0.79822381724E+02 0.  0.
         -6    2    1    2    0  501  0.38118474358E+02 -0.74760737701E+02 -0.37105926418E+03  0.41803688680E+03  0.17328495375E+03 0.  0.
        -24    2    5    5    0    0  0.25355234546E+00 -0.99939620560E+02 -0.17483708361E+03  0.21655993375E+03  0.79637974942E+02 0.  0.
          5    1    3    3  502    0 -0.65817728105E+02  0.31751594978E+02 -0.38989885132E+03  0.39671569339E+03  0.47000000000E+01 0. -1.
        -13    1    4    4    0    0 -0.13892797919E+00  0.61279836033E+02 -0.10016270811E+03  0.11742148739E+03  0.00000000000E+00 0.  1.
         14    1    4    4    0    0  0.27838181725E+02 -0.18270693310E+02 -0.64356760288E+02  0.72460852815E+02  0.00000000000E+00 0. -1.
         -5    1    5    5    0  501  0.37864922013E+02  0.25178882859E+02 -0.19622218058E+03  0.20147695305E+03  0.47000000000E+01 0.  1.
         13    1    6    6    0    0 -0.48653259305E+01 -0.86673693860E+02 -0.18124608578E+03  0.20096304191E+03  0.00000000000E+00 0. -1.
        -14    1    6    6    0    0  0.51188782760E+01 -0.13265926701E+02  0.64090021723E+01  0.15596891834E+02  0.00000000000E+00 0.  1.
</event>
<event>
12    1  0.2609167E-002  0.1902317E+03  0.7818608E-02  0.1158253E+00
          4   -1    0    0  502    0  0.00000000000E+00  0.00000000000E+00  0.44024439867E+02  0.44024439867E+02  0.00000000000E+00 0.  1.
         -4   -1    0    0    0  501 -0.00000000000E+00 -0.00000000000E+00 -0.82200711480E+03  0.82200711480E+03  0.00000000000E+00 0. -1.
          6    2    1    2  502    0  0.20058770613E+02 -0.79446863135E+02 -0.38922911425E+03  0.43342866230E+03  0.17218287832E+03 0.  0.
         24    2    3    3    0    0  0.66543379490E+02 -0.33648165778E+02 -0.30704864813E+03  0.32838553519E+03  0.89431353510E+02 0.  0.
         -6    2    1    2    0  501 -0.20058770613E+02  0.79446863135E+02 -0.38875356069E+03  0.43260289237E+03  0.17117760717E+03 0.  0.
        -24    2    5    5    0    0 -0.47412243190E+02  0.41893654601E+02 -0.36756567977E+03  0.38132451260E+03  0.79377930625E+02 0.  0.
          5    1    3    3  502    0 -0.46484608876E+02 -0.45798697357E+02 -0.82180466120E+02  0.10504312711E+03  0.47000000000E+01 0. -1.
        -11    1    4    4    0    0  0.98776462960E+00  0.26165990359E+02 -0.94359940847E+02  0.97925651221E+02  0.00000000000E+00 0.  1.
         12    1    4    4    0    0  0.65555614860E+02 -0.59814156137E+02 -0.21268870728E+03  0.23045988397E+03  0.00000000000E+00 0. -1.
         -5    1    5    5    0  501  0.27353472577E+02  0.37553208534E+02 -0.21187880922E+02  0.51278379764E+02  0.47000000000E+01 0.  1.
         13    1    6    6    0    0 -0.15138086406E+02 -0.23856076157E+02 -0.10478237022E+03  0.10852473976E+03  0.00000000000E+00 0. -1.
        -14    1    6    6    0    0 -0.32274156784E+02  0.65749730759E+02 -0.26278330954E+03  0.27279977285E+03  0.00000000000E+00 0.  1.
</event>
<event>
12    1  0.2671891E-002  0.2073106E+03  0.7818608E-02  0.1143714E+00
         -4   -1    0    0    0  501 -0.00000000000E+00  0.00000000000E+00  0.47234006825E+02  0.47234006825E+02  0.00000000000E+00 0. -1.
          4   -1    0    0  502    0  0.00000000000E+00 -0.00000000000E+00 -0.11042039521E+04  0.11042039521E+04  0.00000000000E+00 0.  1.
          6    2    1    2  502    0  0.11043718806E+03 -0.36727583554E+02 -0.76988253885E+03  0.79729176365E+03  0.17149269622E+03 0.  0.
         24    2    3    3    0    0  0.10773657273E+03  0.29187664243E+02 -0.43717552365E+03  0.45807478120E+03  0.79063125714E+02 0.  0.
         -6    2    1    2    0  501 -0.11043718806E+03  0.36727583554E+02 -0.28708740646E+03  0.35414619531E+03  0.17162476746E+03 0.  0.
        -24    2    5    5    0    0 -0.11499867256E+03  0.80372594120E+02 -0.24299154794E+03  0.29175846553E+03  0.79960373091E+02 0.  0.
          5    1    3    3  502    0  0.27006153220E+01 -0.65915247797E+02 -0.33270701521E+03  0.33921698245E+03  0.47000000000E+01 0. -1.
        -11    1    4    4    0    0  0.22891935400E+02 -0.59524258673E+01 -0.23299868582E+03  0.23419619911E+03  0.00000000000E+00 0.  1.
         12    1    4    4    0    0  0.84844637333E+02  0.35140090110E+02 -0.20417683782E+03  0.22387858209E+03  0.00000000000E+00 0. -1.
         -5    1    5    5    0  501  0.45614845017E+01 -0.43645010567E+02 -0.44095858523E+02  0.62387729780E+02  0.47000000000E+01 0.  1.
         13    1    6    6    0    0 -0.15447751520E+02  0.64044322292E+01  0.23149623824E+01  0.16882204538E+02  0.00000000000E+00 0. -1.
        -14    1    6    6    0    0 -0.99550921037E+02  0.73968161891E+02 -0.24530651032E+03  0.27487626099E+03  0.00000000000E+00 0.  1.
</event>
<event>
12    1  0.2609167E-002  0.1771307E+03  0.7818608E-02  0.1170609E+00
         -1   -1    0    0    0  501 -0.00000000000E+00  0.00000000000E+00  0.22781431324E+02  0.22781431324E+02  0.00000000000E+00 0.  1.
          1   -1    0    0  502    0  0.00000000000E+00 -0.00000000000E+00 -0.26988156434E+04  0.26988156434E+04  0.00000000000E+00 0. -1.
          6    2    1    2  502    0 -0.52794721198E+02 -0.41120258663E+02 -0.40941272041E+03  0.44851098708E+03  0.17048510679E+03 0.  0.
         24    2    3    3    0    0 -0.89760832419E+02 -0.21741711082E+02 -0.19389326016E+03  0.22893696942E+03  0.79295842220E+02 0.  0.
         -6    2    1    2    0  501  0.52794721198E+02  0.41120258663E+02 -0.22666214917E+04  0.22730860877E+04  0.15769976889E+03 0.  0.
        -24    2    5    5    0    0  0.20389772273E+02  0.37417174443E+02 -0.21503186634E+04  0.21522050246E+04  0.79374592029E+02 0.  0.
          5    1    3    3  502    0  0.36966111221E+02 -0.19378547582E+02 -0.21551946025E+03  0.21957401766E+03  0.47000000000E+01 0. -1.
        -13    1    4    4    0    0 -0.27252258230E+02 -0.45255220362E+02 -0.64916983367E+02  0.83695491384E+02  0.00000000000E+00 0.  1.
         14    1    4    4    0    0 -0.62508574190E+02  0.23513509280E+02 -0.12897627680E+03  0.14524147804E+03  0.00000000000E+00 0. -1.
         -5    1    5    5    0  501  0.32404948925E+02  0.37030842207E+01 -0.11630282824E+03  0.12088106306E+03  0.47000000000E+01 0.  1.
         13    1    6    6    0    0 -0.25253343379E+01  0.56029069507E+02 -0.16967188391E+04  0.16976455616E+04  0.00000000000E+00 0. -1.
        -14    1    6    6    0    0  0.22915106611E+02 -0.18611895065E+02 -0.45359982435E+03  0.45455946300E+03  0.00000000000E+00 0.  1.
</event>
<event>
12    1  0.2609167E-002  0.1741828E+03  0.7818608E-02  0.1173555E+00
          2   -1    0    0  502    0  0.00000000000E+00  0.00000000000E+00  0.17179227476E+04  0.17179227476E+04  0.00000000000E+00 0. -1.
         -2   -1    0    0    0  501 -0.00000000000E+00 -0.00000000000E+00 -0.19360034897E+02  0.19360034897E+02  0.00000000000E+00 0.  1.
          6    2    1    2  502    0 -0.11925686179E+02  0.24970741675E+02  0.11042963193E+04  0.11178677422E+04  0.17144144254E+03 0.  0.
         24    2    3    3    0    0  0.62186054385E+01  0.64304163825E+02  0.49933162857E+03  0.51133604435E+03  0.89211985897E+02 0.  0.
         -6    2    1    2    0  501  0.11925686179E+02 -0.24970741675E+02  0.59426639344E+03  0.61941504037E+03  0.17250126357E+03 0.  0.
        -24    2    5    5    0    0  0.38452738166E+02  0.62594181199E+01  0.55628571143E+03  0.56334696056E+03  0.79926290037E+02 0.  0.
          5    1    3    3  502    0 -0.18144291617E+02 -0.39333422149E+02  0.60496469072E+03  0.60653169780E+03  0.47000000000E+01 0. -1.
        -13    1    4    4    0    0 -0.28548791196E+02  0.84478629360E+01  0.58690174891E+02  0.65809851054E+02  0.00000000000E+00 0.  1.
         14    1    4    4    0    0  0.34767396635E+02  0.55856300889E+02  0.44064145367E+03  0.44552619330E+03  0.00000000000E+00 0. -1.
         -5    1    5    5    0  501 -0.26527051987E+02 -0.31230159795E+02  0.37980682010E+02  0.56068079813E+02  0.47000000000E+01 0.  1.
         11    1    6    6    0    0  0.15966539837E+02  0.42966191428E+02  0.29443421664E+03  0.29798075765E+03  0.00000000000E+00 0. -1.
        -12    1    6    6    0    0  0.22486198329E+02 -0.36706773308E+02  0.26185149479E+03  0.26536620291E+03  0.00000000000E+00 0.  1.
</event>
<event>
12    1  0.2609167E-002  0.1749460E+03  0.7818608E-02  0.1172786E+00
          1   -1    0    0  502    0  0.00000000000E+00  0.00000000000E+00  0.40722286445E+03  0.40722286445E+03  0.00000000000E+00 0. -1.
         -1   -1    0    0    0  501 -0.00000000000E+00 -0.00000000000E+00 -0.75191379056E+02  0.75191379056E+02  0.00000000000E+00 0.  1.
          6    2    1    2  502    0 -0.25759293413E+02  0.17988327090E+02  0.17130789706E+03  0.24502423855E+03  0.17234662972E+03 0.  0.
         24    2    3    3    0    0  0.26812911814E+02 -0.27335978363E+02  0.48838710123E+02  0.10417353328E+03  0.83670290290E+02 0.  0.
         -6    2    1    2    0  501  0.25759293413E+02 -0.17988327090E+02  0.16072358834E+03  0.23739000495E+03  0.17185697977E+03 0.  0.
        -24    2    5    5    0    0  0.35461474370E+02  0.10597930664E+01  0.17524999069E+02  0.92528384205E+02  0.83640522269E+02 0.  0.
          5    1    3    3  502    0 -0.52572205227E+02  0.45324305452E+02  0.12246918693E+03  0.14085070527E+03  0.47000000000E+01 0. -1.
        -11    1    4    4    0    0  0.50922220136E+02 -0.13342949518E+02  0.54452979627E+02  0.75737928383E+02  0.00000000000E+00 0.  1.
         12    1    4    4    0    0 -0.24109308321E+02 -0.13993028844E+02 -0.56142695045E+01  0.28435604900E+02  0.00000000000E+00 0. -1.
         -5    1    5    5    0  501 -0.97021809575E+01 -0.19048120156E+02  0.14319858927E+03  0.14486162075E+03  0.47000000000E+01 0.  1.
         13    1    6    6    0    0  0.29988320419E+02 -0.26717114205E+01  0.50554915885E+02  0.58840776028E+02  0.00000000000E+00 0. -1.
        -14    1    6    6    0    0  0.54731539511E+01  0.37315044869E+01 -0.33029916815E+02  0.33687608178E+02  0.00000000000E+00 0.  1.
</event>
<event>
12    1  0.2609167E-002  0.2362563E+03  0.7818608E-02  0.1122312E+00
         -2   -1    0    0    0  501 -0.00000000000E+00  0.00000000000E+00  0.24572862099E+03  0.24572862099E+03  0.00000000000E+00 0. -1.
          2   -1    0    0  502    0  0.00000000000E+00 -0.00000000000E+00 -0.48652281172E+03  0.48652281172E+03  0.00000000000E+00 0.  1.
          6    2    1    2  502    0  0.33931373985E+02 -0.16005638026E+03 -0.38757175940E+03  0.45357596753E+03  0.16955797425E+03 0.  0.
         24    2    3    3    0    0 -0.26563557775E+02 -0.11218437408E+03 -0.32540134175E+03  0.35438616677E+03  0.80078496445E+02 0.  0.
         -6    2    1    2    0  501 -0.33931373985E+02  0.16005638026E+03  0.14677756867E+03  0.27867546518E+03  0.17130959467E+03 0.  0.
        -24    2    5    5    0    0 -0.61381084038E+02  0.15562500630E+03  0.16215665846E+03  0.24655491008E+03  0.80670699370E+02 0.  0.
          5    1    3    3  502    0  0.60494931760E+02 -0.47872006183E+02 -0.62170417651E+02  0.99189800764E+02  0.47000000000E+01 0. -1.
        -13    1    4    4    0    0  0.14924196901E+02 -0.45298604926E+02 -0.55178306937E+02  0.72933811212E+02  0.00000000000E+00 0.  1.
         14    1    4    4    0    0 -0.41487754676E+02 -0.66885769151E+02 -0.27022303481E+03  0.28145235555E+03  0.00000000000E+00 0. -1.
         -5    1    5    5    0  501  0.27449710053E+02  0.44313739627E+01 -0.15379089791E+02  0.32120555101E+02  0.47000000000E+01 0.  1.
         11    1    6    6    0    0 -0.76615274415E+02  0.10734152756E+03  0.95385802409E+02  0.16275919364E+03  0.00000000000E+00 0. -1.
        -12    1    6    6    0    0  0.15234190377E+02  0.48283478737E+02  0.66770856052E+02  0.83795716438E+02  0.00000000000E+00 0.  1.
</event>
<event>
12    1  0.2609167E-002  0.1715683E+03  0.7818608E-02  0.1176222E+00
          2   -1    0    0  502    0  0.00000000000E+00  0.00000000000E+00  0.81412176757E+03  0.81412176757E+03  0.00000000000E+00 0. -1.
         -2   -1    0    0    0  501 -0.00000000000E+00 -0.00000000000E+00 -0.63507684144E+02  0.63507684144E+02  0.00000000000E+00 0.  1.
          6    2    1    2  502    0 -0.21135057190E+02 -0.15534366125E+02  0.66646122838E+03  0.68884867528E+03  0.17220313970E+03 0.  0.
         24    2    3    3    0    0  0.54571340383E+02 -0.31118245009E+01  0.40231431463E+03  0.41374603949E+03  0.79632046276E+02 0.  0.
         -6    2    1    2    0  501  0.21135057190E+02  0.15534366125E+02  0.84152855044E+02  0.18878077644E+03  0.16693852571E+03 0.  0.
        -24    2    5    5    0    0  0.48951952810E+02 -0.43571740732E+02  0.59623996826E+02  0.11884461672E+03  0.79210047673E+02 0.  0.
          5    1    3    3  502    0 -0.75706397573E+02 -0.12422541624E+02  0.26414691375E+03  0.27510263579E+03  0.47000000000E+01 0. -1.
        -11    1    4    4    0    0 -0.11893100793E+02 -0.28491786195E+01  0.20837793521E+03  0.20873650267E+03  0.00000000000E+00 0.  1.
         12    1    4    4    0    0  0.66464441176E+02 -0.26264588132E+00  0.19393637942E+03  0.20500953682E+03  0.00000000000E+00 0. -1.
         -5    1    5    5    0  501 -0.27816895620E+02  0.59106106857E+02  0.24528858218E+02  0.69936159712E+02  0.47000000000E+01 0.  1.
         13    1    6    6    0    0  0.24539201550E+02  0.10926654921E+02  0.52150802183E+02  0.58662341999E+02  0.00000000000E+00 0. -1.
        -14    1    6    6    0    0  0.24412751260E+02 -0.54498395653E+02  0.74731946431E+01  0.60182274725E+02  0.00000000000E+00 0.  1.
</event>
<event>
12    1  0.2609167E-002  0.2891682E+03  0.7818608E-02  0.1090784E+00
          2   -1    0    0  502    0  0.00000000000E+00  0.00000000000E+00  0.10726071988E+04  0.10726071988E+04  0.00000000000E+00 0. -1.
         -2   -1    0    0    0  501 -0.00000000000E+00 -0.00000000000E+00 -0.11268897649E+03  0.11268897649E+03  0.00000000000E+00 0.  1.
          6    2    1    2  502    0  0.19196133933E+03  0.13108620577E+03  0.15094335709E+03  0.32619250386E+03  0.17200262612E+03 0.  0.
         24    2    3    3    0    0  0.13924059204E+03  0.44425117527E+02  0.31665425595E+02  0.16954341721E+03  0.79879519287E+02 0.  0.
         -6    2    1    2    0  501 -0.19196133933E+03 -0.13108620577E+03  0.80897486522E+03  0.85910367141E+03  0.17200592007E+03 0.  0.
        -24    2    5    5    0    0 -0.83333138276E+02 -0.93171895933E+02  0.26939375053E+03  0.30737235067E+03  0.79242381386E+02 0.  0.
          5    1    3    3  502    0  0.52720747286E+02  0.86661088240E+02  0.11927793149E+03  0.15664908666E+03  0.47000000000E+01 0. -1.
        -11    1    4    4    0    0  0.97398430083E+02 -0.19187132314E+01  0.42302639290E+02  0.10620569163E+03  0.00000000000E+00 0.  1.
         12    1    4    4    0    0  0.41842161958E+02  0.46343830758E+02 -0.10637213695E+02  0.63337725582E+02  0.00000000000E+00 0. -1.
         -5    1    5    5    0  501 -0.10862820105E+03 -0.37914309834E+02  0.53958111469E+03  0.55173132074E+03  0.47000000000E+01 0.  1.
         13    1    6    6    0    0 -0.17991995669E+02 -0.34704730520E+02  0.17173495833E+03  0.17612786872E+03  0.00000000000E+00 0. -1.
        -14    1    6    6    0    0 -0.65341142606E+02 -0.58467165413E+02  0.97658792202E+02  0.13124448195E+03  0.00000000000E+00 0.  1.
</event>
<event>
12    1  0.2609167E-002  0.2910052E+03  0.7818608E-02  0.1089825E+00
          2   -1    0    0  502    0  0.00000000000E+00  0.00000000000E+00  0.25858086954E+04  0.25858086954E+04  0.00000000000E+00 0. -1.
         -2   -1    0    0    0  501 -0.00000000000E+00 -0.00000000000E+00 -0.73269692956E+02  0.73269692956E+02  0.00000000000E+00 0.  1.
          6    2    1    2  502    0 -0.20954100813E+03  0.10330086139E+03  0.26909147552E+03  0.39693834130E+03  0.17484656857E+03 0.  0.
         24    2    3    3    0    0 -0.33249918464E+02 -0.14509723526E+01  0.71762734433E+02  0.11231188956E+03  0.79727085014E+02 0.  0.
         -6    2    1    2    0  501  0.20954100813E+03 -0.10330086139E+03  0.22434475269E+04  0.22621400470E+04  0.17216934798E+03 0.  0.
        -24    2    5    5    0    0  0.83427422792E+02 -0.10333103039E+03  0.15066143515E+04  0.15145774371E+04  0.80128473581E+02 0.  0.
          5    1    3    3  502    0 -0.17629108967E+03  0.10475183374E+03  0.19732874109E+03  0.28462645174E+03  0.47000000000E+01 0. -1.
        -13    1    4    4    0    0 -0.11247465708E+02  0.27579053330E+02 -0.22004147752E+01  0.29865556961E+02  0.00000000000E+00 0.  1.
         14    1    4    4    0    0 -0.22002452756E+02 -0.29030025682E+02  0.73963149208E+02  0.82446332600E+02  0.00000000000E+00 0. -1.
         -5    1    5    5    0  501  0.12611358534E+03  0.30169000064E-01  0.73683317540E+03  0.74756260988E+03  0.47000000000E+01 0.  1.
         13    1    6    6    0    0  0.83005784983E+02 -0.11572304807E+03  0.14089353550E+04  0.14161146206E+04  0.00000000000E+00 0. -1.
        -14    1    6    6    0    0  0.42163780854E+00  0.12392017681E+02  0.97678996525E+02  0.98462816549E+02  0.00000000000E+00 0.  1.
</event>
<event>
12    1  0.2609167E-002  0.1715343E+03  0.7818608E-02  0.1176257E+00
          4   -1    0    0  502    0  0.00000000000E+00  0.00000000000E+00  0.25194529899E+03  0.25194529899E+03  0.00000000000E+00 0. -1.
         -4   -1    0    0    0  501 -0.00000000000E+00 -0.00000000000E+00 -0.12098128482E+03  0.12098128482E+03  0.00000000000E+00 0.  1.
          6    2    1    2  502    0  0.79498038565E+01  0.26132332800E+02  0.30802841291E+02  0.17438007562E+03  0.16945057551E+03 0.  0.
         24    2    3    3    0    0 -0.72400836195E+01 -0.20319941206E+02 -0.36890714812E+02  0.90755593679E+02  0.80064562219E+02 0.  0.
         -6    2    1    2    0  501 -0.79498038565E+01 -0.26132332800E+02  0.10016117288E+03  0.19854650819E+03  0.16924053050E+03 0.  0.
        -24    2    5    5    0    0 -0.50563082649E+02 -0.63922318186E+02  0.72253651331E+02  0.13494702483E+03  0.79670705349E+02 0.  0.
          5    1    3    3  502    0  0.15189887476E+02  0.46452274005E+02  0.67693556103E+02  0.83624481940E+02  0.47000000000E+01 0. -1.
        -13    1    4    4    0    0  0.27315257216E+02 -0.25053347202E+01  0.10577538536E+02  0.29398712562E+02  0.00000000000E+00 0.  1.
         14    1    4    4    0    0 -0.34555340835E+02 -0.17814606485E+02 -0.47468253348E+02  0.61356881117E+02  0.00000000000E+00 0. -1.
         -5    1    5    5    0  501  0.42613278792E+02  0.37789985386E+02  0.27907521546E+02  0.63599483361E+02  0.47000000000E+01 0.  1.
         11    1    6    6    0    0 -0.52623576150E+02 -0.15181484845E+02  0.97042712216E+01  0.55622757293E+02  0.00000000000E+00 0. -1.
        -12    1    6    6    0    0  0.20604935017E+01 -0.48740833342E+02  0.62549380110E+02  0.79324267538E+02  0.00000000000E+00 0.  1.
</event>
<event>
12    1  0.2609167E-002  0.2734587E+03  0.7818608E-02  0.1099316E+00
          2   -1    0    0  502    0  0.00000000000E+00  0.00000000000E+00  0.11277273986E+04  0.11277273986E+04  0.00000000000E+00 0.  1.
         -2   -1    0    0    0  501 -0.00000000000E+00 -0.00000000000E+00 -0.75097271608E+02  0.75097271608E+02  0.00000000000E+00 0. -1.
          6    2    1    2  502    0 -0.20348848230E+03  0.63291470898E+02  0.73242451377E+03  0.78188841563E+03  0.17172784690E+03 0.  0.
         24    2    3    3    0    0 -0.18703927329E+03  0.62070840172E+02  0.44867979427E+03  0.49762582178E+03  0.86495212369E+02 0.  0.
         -6    2    1    2    0  501  0.20348848230E+03 -0.63291470898E+02  0.32020561327E+03  0.42093625463E+03  0.17100386831E+03 0.  0.
        -24    2    5    5    0    0  0.10917031373E+03 -0.94587153640E+02  0.24792978575E+03  0.29796787690E+03  0.80316809970E+02 0.  0.
          5    1    3    3  502    0 -0.16449209012E+02  0.12206307256E+01  0.28374471950E+03  0.28426259384E+03  0.47000000000E+01 0. -1.
        -13    1    4    4    0    0 -0.12900688944E+03  0.50079833352E+02  0.39166088714E+03  0.41539019939E+03  0.00000000000E+00 0.  1.
         14    1    4    4    0    0 -0.58032383849E+02  0.11991006820E+02  0.57018907128E+02  0.82235622390E+02  0.00000000000E+00 0. -1.
         -5    1    5    5    0  501  0.94318168564E+02  0.31295682743E+02  0.72275827519E+02  0.12296837774E+03  0.47000000000E+01 0.  1.
         13    1    6    6    0    0  0.43833899561E+01 -0.22445301068E+02  0.10126426670E+03  0.10381453346E+03  0.00000000000E+00 0. -1.
        -14    1    6    6    0    0  0.10478692378E+03 -0.72141852573E+02  0.14666551905E+03  0.19415334343E+03  0.00000000000E+00 0.  1.
</event>
<event>
12    1  0.2609167E-002  0.2003693E+03  0.7818608E-02  0.1149428E+00
         -2   -1    0    0    0  501 -0.00000000000E+00  0.00000000000E+00  0.40125019282E+02  0.40125019282E+02  0.00000000000E+00 0.  1.
          2   -1    0    0  502    0  0.00000000000E+00 -0.00000000000E+00 -0.10262887188E+04  0.10262887188E+04  0.00000000000E+00 0. -1.
          6    2    1    2  502    0  0.55097928910E+01 -0.10488150555E+03 -0.41149606887E+03  0.45819409241E+03  0.17199512669E+03 0.  0.
         24    2    3    3    0    0 -0.28458907629E+02 -0.13243094576E+03 -0.31402274643E+03  0.35125493748E+03  0.80136639610E+02 0.  0.
         -6    2    1    2    0  501 -0.55097928910E+01  0.10488150555E+03 -0.57466763068E+03  0.60821964570E+03  0.16928604088E+03 0.  0.
        -24    2    5    5    0    0  0.34891863150E+02  0.76210332865E+02 -0.52550704637E+03  0.53826835547E+03  0.80930277232E+02 0.  0.
          5    1    3    3  502    0  0.33968700520E+02  0.27549440213E+02 -0.97473322432E+02  0.10693915493E+03  0.47000000000E+01 0. -1.
        -11    1    4    4    0    0 -0.94786610519E+01 -0.56925226676E+02 -0.51214696783E+02  0.77157446913E+02  0.00000000000E+00 0.  1.
         12    1    4    4    0    0 -0.18980246577E+02 -0.75505719089E+02 -0.26280804965E+03  0.27409749057E+03  0.00000000000E+00 0. -1.
         -5    1    5    5    0  501 -0.40401656041E+02  0.28671172688E+02 -0.49160584312E+02  0.69951290224E+02  0.47000000000E+01 0.  1.
         11    1    6    6    0    0  0.16215391957E+02 -0.99359061799E+01 -0.20438424780E+03  0.20526709896E+03  0.00000000000E+00 0. -1.
        -12    1    6    6    0    0  0.18676471192E+02  0.86146239044E+02 -0.32112279857E+03  0.33300125651E+03  0.00000000000E+00 0.  1.
</event>
<event>
12    1  0.2609167E-002  0.1941202E+03  0.7818608E-02  0.1154797E+00
          2   -1    0    0  502    0  0.00000000000E+00  0.00000000000E+00  0.47383771103E+03  0.47383771103E+03  0.00000000000E+00 0.  1.
         -2   -1    0    0    0  501 -0.00000000000E+00 -0.00000000000E+00 -0.95559824147E+02  0.95559824147E+02  0.00000000000E+00 0. -1.
          6    2    1    2  502    0 -0.56494121349E+02  0.76617533158E+02  0.73922040631E+02  0.20931000806E+03  0.17112679290E+03 0.  0.
         24    2    3    3    0    0 -0.21743378747E+02  0.33698438442E+02  0.11118051260E+03  0.14252717691E+03  0.79652561188E+02 0.  0.
         -6    2    1    2    0  501  0.56494121349E+02 -0.76617533158E+02  0.30435584625E+03  0.36008752712E+03  0.16723849409E+03 0.  0.
        -24    2    5    5    0    0  0.93757208647E+02 -0.90027531105E+02  0.23550200757E+03  0.28051801775E+03  0.79585125394E+02 0.  0.
          5    1    3    3  502    0 -0.34750742602E+02  0.42919094716E+02 -0.37258471966E+02  0.66782831146E+02  0.47000000000E+01 0. -1.
        -13    1    4    4    0    0  0.26691372969E+02  0.29301167709E+02  0.60137408262E+02  0.72024271552E+02  0.00000000000E+00 0.  1.
         14    1    4    4    0    0 -0.48434751716E+02  0.43972707324E+01  0.51043104335E+02  0.70502905358E+02  0.00000000000E+00 0. -1.
         -5    1    5    5    0  501 -0.37263087298E+02  0.13409997947E+02  0.68853838676E+02  0.79569509363E+02  0.47000000000E+01 0.  1.
         13    1    6    6    0    0  0.70245738255E+02 -0.71249791839E+02  0.99059156808E+02  0.14079670851E+03  0.00000000000E+00 0. -1.
        -14    1    6    6    0    0  0.23511470392E+02 -0.18777739266E+02  0.13644285076E+03  0.13972130924E+03  0.00000000000E+00 0.  1.
</event>
<event>
12    1  0.2609167E-002  0.1741067E+03  0.7818608E-02  0.1173632E+00
         -1   -1    0    0    0  501 -0.00000000000E+00  0.00000000000E+00  0.13854898992E+03  0.13854898992E+03  0.00000000000E+00 0.  1.
          1   -1    0    0  502    0  0.00000000000E+00 -0.00000000000E+00 -0.43770525268E+03  0.43770525268E+03  0.00000000000E+00 0. -1.
          6    2    1    2  502    0 -0.27189473979E+02  0.89010591999E+01 -0.35310766846E+03  0.39345706222E+03  0.17118685095E+03 0.  0.
         24    2    3    3    0    0 -0.45050190911E+02  0.60354701647E+02 -0.16546383003E+03  0.19801197369E+03  0.78474537047E+02 0.  0.
         -6    2    1    2    0  501  0.27189473979E+02 -0.89010591999E+01  0.53951405701E+02  0.18279718037E+03  0.17229497562E+03 0.  0.
        -24    2    5    5    0    0 -0.98279214977E+01 -0.17787676124E+02 -0.31918194924E+02  0.88749650684E+02  0.80279137180E+02 0.  0.
          5    1    3    3  502    0  0.17860716931E+02 -0.51453642447E+02 -0.18764383843E+03  0.19544508853E+03  0.47000000000E+01 0. -1.
        -11    1    4    4    0    0  0.16703549806E+02  0.21892527306E+02 -0.16166265781E+02  0.31931794144E+02  0.00000000000E+00 0.  1.
         12    1    4    4    0    0 -0.61753740717E+02  0.38462174341E+02 -0.14929756425E+03  0.16608017955E+03  0.00000000000E+00 0. -1.
         -5    1    5    5    0  501  0.37017395477E+02  0.88866169236E+01  0.85869600625E+02  0.94047529684E+02  0.47000000000E+01 0.  1.
         13    1    6    6    0    0 -0.19826349793E+02  0.28395405327E+02 -0.70127953176E+01  0.35335003721E+02  0.00000000000E+00 0. -1.
        -14    1    6    6    0    0  0.99984282948E+01 -0.46183081450E+02 -0.24905399606E+02  0.53414646963E+02  0.00000000000E+00 0.  1.
</event>
<event>
12    1  0.2609167E-002  0.3341122E+03  0.7818608E-02  0.1069332E+00
          2   -1    0    0  502    0  0.00000000000E+00  0.00000000000E+00  0.27041909063E+03  0.27041909063E+03  0.00000000000E+00 0. -1.
         -2   -1    0    0    0  501 -0.00000000000E+00 -0.00000000000E+00 -0.43914391677E+03  0.43914391677E+03  0.00000000000E+00 0.  1.
          6    2    1    2  502    0 -0.26367523585E+03 -0.10366194199E+03  0.32104752898E+01  0.33096295761E+03  0.17104310551E+03 0.  0.
         24    2    3    3    0    0 -0.10723991747E+03  0.10505271838E+02 -0.19999474446E+02  0.13585541466E+03  0.80286699267E+02 0.  0.
         -6    2    1    2    0  501  0.26367523585E+03  0.10366194199E+03 -0.17193530143E+03  0.37860004978E+03  0.18304595488E+03 0.  0.
        -24    2    5    5    0    0  0.14479662122E+03 -0.15805337094E+02 -0.10709704015E+03  0.19796050285E+03  0.80639410244E+02 0.  0.
          5    1    3    3  502    0 -0.15643531838E+03 -0.11416721383E+03  0.23209949735E+02  0.19510754295E+03  0.47000000000E+01 0. -1.
        -13    1    4    4    0    0 -0.99614053645E+02 -0.10534573752E+02 -0.38000118881E+02  0.10713517612E+03  0.00000000000E+00 0.  1.
         14    1    4    4    0    0 -0.76258638222E+01  0.21039845590E+02  0.18000644436E+02  0.28720238536E+02  0.00000000000E+00 0. -1.
         -5    1    5    5    0  501  0.11887861463E+03  0.11946727909E+03 -0.64838261285E+02  0.18063954693E+03  0.47000000000E+01 0.  1.
         13    1    6    6    0    0  0.14294034001E+03 -0.26650348278E+02 -0.11417892613E+03  0.18487565832E+03  0.00000000000E+00 0. -1.
        -14    1    6    6    0    0  0.18562812068E+01  0.10845011184E+02  0.70818859811E+01  0.13084844537E+02  0.00000000000E+00 0.  1.
</event>
<event>
12    1  0.2609167E-002  0.1852653E+03  0.7818608E-02  0.1162802E+00
         -1   -1    0    0    0  501 -0.00000000000E+00  0.00000000000E+00  0.76250228476E+02  0.76250228476E+02  0.00000000000E+00 0. -1.
          1   -1    0    0  502    0  0.00000000000E+00 -0.00000000000E+00 -0.47102629683E+03  0.47102629683E+03  0.00000000000E+00 0.  1.
          6    2    1    2  502    0  0.37212518776E+02 -0.60562316547E+02 -0.25465482035E+03  0.31471263773E+03  0.17071145563E+03 0.  0.
         24    2    3    3    0    0 -0.40070695669E+02 -0.40222862848E+02 -0.18427751571E+03  0.20812256493E+03  0.78315131937E+02 0.  0.
         -6    2    1    2    0  501 -0.37212518776E+02  0.60562316547E+02 -0.14012124801E+03  0.23256388757E+03  0.17146262543E+03 0.  0.
        -24    2    5    5    0    0  0.71221427237E+01 -0.23682788743E+02 -0.97042252282E+02  0.12796613498E+03  0.79665133988E+02 0.  0.
          5    1    3    3  502    0  0.77283214445E+02 -0.20339453698E+02 -0.70377304633E+02  0.10659007280E+03  0.47000000000E+01 0. -1.
        -11    1    4    4    0    0 -0.36331015722E+02  0.10264151153E+02 -0.12285981241E+03  0.12852948692E+03  0.00000000000E+00 0.  1.
         12    1    4    4    0    0 -0.37396799477E+01 -0.50487014002E+02 -0.61417703304E+02  0.79593078016E+02  0.00000000000E+00 0. -1.
         -5    1    5    5    0  501 -0.44334661499E+02  0.84245105290E+02 -0.43078995728E+02  0.10459775260E+03  0.47000000000E+01 0.  1.
         11    1    6    6    0    0  0.35461984993E+02  0.86951446997E+00 -0.16497665739E+02  0.39121367689E+02  0.00000000000E+00 0. -1.
        -12    1    6    6    0    0 -0.28339842269E+02 -0.24552303213E+02 -0.80544586543E+02  0.88844767287E+02  0.00000000000E+00 0.  1.
</event>
<event>
12    1  0.2609167E-002  0.2122013E+03  0.7818608E-02  0.1139835E+00
          2   -1    0    0  502    0  0.00000000000E+00  0.00000000000E+00  0.12621023711E+03  0.12621023711E+03  0.00000000000E+00 0. -1.
         -2   -1    0    0    0  501 -0.00000000000E+00 -0.00000000000E+00 -0.35684986782E+03  0.35684986782E+03  0.00000000000E+00 0.  1.
          6    2    1    2  502    0  0.11715257317E+03  0.45926710900E+02 -0.11232506503E+03  0.24058854216E+03  0.17155739042E+03 0.  0.
         24    2    3    3    0    0  0.74091094614E+02 -0.35748371222E+02 -0.33879086205E+02  0.11934097901E+03  0.79542695719E+02 0.  0.
         -6    2    1    2    0  501 -0.11715257317E+03 -0.45926710900E+02 -0.11831456568E+03  0.24247156278E+03  0.17017677318E+03 0.  0.
        -24    2    5    5    0    0 -0.12856245107E+03  0.15216230750E+02 -0.83728172534E+02  0.17114868273E+03  0.74307652516E+02 0.  0.
          5    1    3    3  502    0  0.43061478558E+02  0.81675082122E+02 -0.78445978828E+02  0.12124756315E+03  0.47000000000E+01 0. -1.
        -11    1    4    4    0    0  0.15337049400E+02 -0.47698444010E+02 -0.31809602414E+02  0.59348272520E+02  0.00000000000E+00 0.  1.
         12    1    4    4    0    0  0.58754045214E+02  0.11950072788E+02 -0.20694837911E+01  0.59992706488E+02  0.00000000000E+00 0. -1.
         -5    1    5    5    0  501  0.11409877895E+02 -0.61142941650E+02 -0.34586393147E+02  0.71322880046E+02  0.47000000000E+01 0.  1.
         13    1    6    6    0    0 -0.25893580089E+02  0.32639576686E+02 -0.41409908775E+02  0.58741807946E+02  0.00000000000E+00 0. -1.
        -14    1    6    6    0    0 -0.10266887098E+03 -0.17423345936E+02 -0.42318263759E+02  0.11240687479E+03  0.00000000000E+00 0.  1.
</event>
<event>
12    1  0.2609167E-002  0.2292534E+03  0.7818608E-02  0.1127166E+00
          2   -1    0    0  502    0  0.00000000000E+00  0.00000000000E+00  0.95982312398E+03  0.95982312398E+03  0.00000000000E+00 0. -1.
         -2   -1    0    0    0  501 -0.00000000000E+00 -0.00000000000E+00 -0.54949236030E+02  0.54949236030E+02  0.00000000000E+00 0.  1.
          6    2    1    2  502    0  0.91636673816E+02 -0.11468089322E+03  0.41523286698E+03  0.47215904105E+03  0.17019647165E+03 0.  0.
         24    2    3    3    0    0  0.45063474538E+02 -0.13796868653E+03  0.35652018930E+03  0.39354191359E+03  0.81868902372E+02 0.  0.
         -6    2    1    2    0  501 -0.91636673816E+02  0.11468089322E+03  0.48964102097E+03  0.54261331896E+03  0.18202169444E+03 0.  0.
        -24    2    5    5    0    0  0.12272018847E+02  0.26421248419E+02  0.23014909412E+03  0.24944965919E+03  0.91694286263E+02 0.  0.
          5    1    3    3  502    0  0.46573199278E+02  0.23287793314E+02  0.58712677684E+02  0.78617127455E+02  0.47000000000E+01 0. -1.
        -11    1    4    4    0    0  0.50210355251E+02 -0.57244818008E+02  0.10766152362E+03  0.13186755716E+03  0.00000000000E+00 0.  1.
         12    1    4    4    0    0 -0.51468807128E+01 -0.80723868522E+02  0.24885866568E+03  0.26167435644E+03  0.00000000000E+00 0. -1.
         -5    1    5    5    0  501 -0.10390869266E+03  0.88259644797E+02  0.25949192685E+03  0.29316365977E+03  0.47000000000E+01 0.  1.
         11    1    6    6    0    0 -0.89614695059E+01  0.54798573386E+02  0.98073753904E+02  0.11270160951E+03  0.00000000000E+00 0. -1.
        -12    1    6    6    0    0  0.21233488353E+02 -0.28377324967E+02  0.13207534021E+03  0.13674804968E+03  0.00000000000E+00 0.  1.
</event>
<event>
12    1  0.2609167E-002  0.1875121E+03  0.7818608E-02  0.1160725E+00
         -3   -1    0    0    0  501 -0.00000000000E+00  0.00000000000E+00  0.41518587078E+03  0.41518587078E+03  0.00000000000E+00 0.  1.
          3   -1    0    0  502    0  0.00000000000E+00 -0.00000000000E+00 -0.88694530089E+02  0.88694530089E+02  0.00000000000E+00 0. -1.
          6    2    1    2  502    0 -0.43825330166E+01  0.70313981315E+02  0.21874495057E+03  0.28973414332E+03  0.17644618965E+03 0.  0.
         24    2    3    3    0    0 -0.14375151726E+02 -0.73141391927E+01  0.18911093653E+03  0.20591145957E+03  0.79852622059E+02 0.  0.
         -6    2    1    2    0  501  0.43825330166E+01 -0.70313981315E+02  0.10774639012E+03  0.21414625755E+03  0.17113174011E+03 0.  0.
        -24    2    5    5    0    0  0.23336422739E+02 -0.48991145186E+02 -0.56659586368E+01  0.97106246754E+02  0.80329316805E+02 0.  0.
          5    1    3    3  502    0  0.99926187090E+01  0.77628120508E+02  0.29634014041E+02  0.83822683747E+02  0.47000000000E+01 0. -1.
        -13    1    4    4    0    0 -0.85557278126E+01  0.19214584669E+02  0.17312200496E+03  0.17439503819E+03  0.00000000000E+00 0.  1.
         14    1    4    4    0    0 -0.58194239130E+01 -0.26528723861E+02  0.15988931569E+02  0.31516421388E+02  0.00000000000E+00 0. -1.
         -5    1    5    5    0  501 -0.18953889723E+02 -0.21322836129E+02  0.11341234875E+03  0.11704001079E+03  0.47000000000E+01 0.  1.
         13    1    6    6    0    0  0.22928894375E+02 -0.71147149202E+02 -0.53918434354E+01  0.74944799769E+02  0.00000000000E+00 0. -1.
        -14    1    6    6    0    0  0.40752836395E+00  0.22156004015E+02 -0.27411520134E+00  0.22161446984E+02  0.00000000000E+00 0.  1.
</event>
<event>
12    1  0.2609167E-002  0.2008708E+03  0.7818608E-02  0.1149006E+00
          3   -1    0    0  502    0  0.00000000000E+00  0.00000000000E+00  0.53562179877E+02  0.53562179877E+02  0.00000000000E+00 0.  1.
         -3   -1    0    0    0  501 -0.00000000000E+00 -0.00000000000E+00 -0.91638402518E+03  0.91638402518E+03  0.00000000000E+00 0. -1.
          6    2    1    2  502    0  0.93569414364E+01  0.10336988301E+03 -0.63623146694E+03  0.66722849742E+03  0.17213513056E+03 0.  0.
         24    2    3    3    0    0 -0.59608093884E+02  0.82972764094E+02 -0.40509900198E+03  0.42511999919E+03  0.78639734648E+02 0.  0.
         -6    2    1    2    0  501 -0.93569414364E+01 -0.10336988301E+03 -0.22659037836E+03  0.30271770764E+03  0.17181945724E+03 0.  0.
        -24    2    5    5    0    0  0.34607510985E+01 -0.18625139948E+02 -0.19424069821E+03  0.21098681576E+03  0.80169289313E+02 0.  0.
          5    1    3    3  502    0  0.68965035320E+02  0.20397118916E+02 -0.23113246496E+03  0.24210849823E+03  0.47000000000E+01 0. -1.
        -11    1    4    4    0    0 -0.49049416692E+02  0.39893513197E+01 -0.15036419648E+03  0.15821236293E+03  0.00000000000E+00 0.  1.
         12    1    4    4    0    0 -0.10558677192E+02  0.78983412775E+02 -0.25473480551E+03  0.26690763626E+03  0.00000000000E+00 0. -1.
         -5    1    5    5    0  501 -0.12817692535E+02 -0.84744743062E+02 -0.32349680156E+02  0.91730891878E+02  0.47000000000E+01 0.  1.
         13    1    6    6    0    0  0.96526068226E+01  0.11268795966E+02 -0.17337539513E+03  0.17400915556E+03  0.00000000000E+00 0. -1.
        -14    1    6    6    0    0 -0.61918557241E+01 -0.29893935915E+02 -0.20865303078E+02  0.36977660206E+02  0.00000000000E+00 0.  1.
</event>
<event>
12    1  0.2609167E-002  0.2043929E+03  0.7818608E-02  0.1146085E+00
          2   -1    0    0  502    0  0.00000000000E+00  0.00000000000E+00  0.52687630588E+02  0.52687630588E+02  0.00000000000E+00 0. -1.
         -2   -1    0    0    0  501 -0.00000000000E+00 -0.00000000000E+00 -0.88888423121E+03  0.88888423121E+03  0.00000000000E+00 0.  1.
          6    2    1    2  502    0 -0.12490429440E+02 -0.10903035381E+03 -0.26417272649E+03  0.33426968551E+03  0.17293167538E+03 0.  0.
         24    2    3    3    0    0  0.43212092527E+02 -0.92821582698E+02 -0.23573019879E+03  0.26948880410E+03  0.81070079296E+02 0.  0.
         -6    2    1    2    0  501  0.12490429440E+02  0.10903035381E+03 -0.57202387413E+03  0.60730217629E+03  0.17193310289E+03 0.  0.
        -24    2    5    5    0    0 -0.97987153334E+01 -0.88722165953E+01 -0.25776350102E+03  0.27088057443E+03  0.82216373678E+02 0.  0.
          5    1    3    3  502    0 -0.55702521967E+02 -0.16208771113E+02 -0.28442527699E+02  0.64780881411E+02  0.47000000000E+01 0. -1.
        -11    1    4    4    0    0  0.27468341340E+02 -0.56929244877E+02 -0.52662631000E+02  0.82272725749E+02  0.00000000000E+00 0.  1.
         12    1    4    4    0    0  0.15743751187E+02 -0.35892337821E+02 -0.18306756779E+03  0.18721607835E+03  0.00000000000E+00 0. -1.
         -5    1    5    5    0  501  0.22289144773E+02  0.11790257041E+03 -0.31426037311E+03  0.33642160185E+03  0.47000000000E+01 0.  1.
         11    1    6    6    0    0 -0.63469507166E+01  0.23887570132E+02 -0.22823345064E+02  0.33642307740E+02  0.00000000000E+00 0. -1.
        -12    1    6    6    0    0 -0.34517646168E+01 -0.32759786727E+02 -0.23494015595E+03  0.23723826669E+03  0.00000000000E+00 0.  1.
</event>
<event>
12    1  0.2609167E-002  0.2045691E+03  0.7818608E-02  0.1145940E+00
         -2   -1    0    0    0  501 -0.00000000000E+00  0.00000000000E+00  0.31571958947E+02  0.31571958947E+02  0.00000000000E+00 0. -1.
          2   -1    0    0  502    0  0.00000000000E+00 -0.00000000000E+00 -0.16593569355E+04  0.16593569355E+04  0.00000000000E+00 0.  1.
          6    2    1    2  502    0  0.10531240900E+03 -0.31006752158E+02 -0.11941153493E+04  0.12115641623E+04  0.17298592396E+03 0.  0.
         24    2    3    3    0    0  0.28658566426E+02  0.27062983052E+01 -0.94079997528E+03  0.94472497844E+03  0.81068205387E+02 0.  0.
         -6    2    1    2    0  501 -0.10531240900E+03  0.31006752158E+02 -0.43366962724E+03  0.47936473208E+03  0.17224714397E+03 0.  0.
        -24    2    5    5    0    0 -0.90866375164E+02  0.13209210785E+02 -0.43862450738E+03  0.45544651288E+03  0.81295056672E+02 0.  0.
          5    1    3    3  502    0  0.76653842578E+02 -0.33713050464E+02 -0.25331537399E+03  0.26683918388E+03  0.47000000000E+01 0. -1.
        -13    1    4    4    0    0  0.55753396574E+02  0.11868885932E+00 -0.73860239268E+03  0.74070368555E+03  0.00000000000E+00 0.  1.
         14    1    4    4    0    0 -0.27094830148E+02  0.25876094459E+01 -0.20219758260E+03  0.20402129289E+03  0.00000000000E+00 0. -1.
         -5    1    5    5    0  501 -0.14446033841E+02  0.17797541374E+02  0.49548801364E+01  0.23918219203E+02  0.47000000000E+01 0.  1.
         11    1    6    6    0    0 -0.32164617204E+02  0.37107691383E+02 -0.10580365734E+03  0.11664457667E+03  0.00000000000E+00 0. -1.
        -12    1    6    6    0    0 -0.58701757959E+02 -0.23898480598E+02 -0.33282085003E+03  0.33880193621E+03  0.00000000000E+00 0.  1.
</event>
<event>
12    1  0.2609167E-002  0.2088763E+03  0.7818608E-02  0.1142459E+00
         -1   -1    0    0    0  501 -0.00000000000E+00  0.00000000000E+00  0.61977183043E+03  0.61977183043E+03  0.00000000000E+00 0.  1.
          1   -1    0    0  502    0  0.00000000000E+00 -0.00000000000E+00 -0.97117497063E+02  0.97117497063E+02  0.00000000000E+00 0. -1.
          6    2    1    2  502    0 -0.10714992358E+03 -0.51132286747E+02  0.72849404092E+02  0.22073846326E+03  0.17123906275E+03 0.  0.
         24    2    3    3    0    0 -0.60348450848E+02 -0.94118452899E+02  0.69866573940E+02  0.15694837307E+03  0.85154183448E+02 0.  0.
         -6    2    1    2    0  501  0.10714992358E+03  0.51132286747E+02  0.44980492928E+03  0.49615086424E+03  0.17246909524E+03 0.  0.
        -24    2    5    5    0    0  0.72684119686E+02 -0.37320519741E+02  0.22497577179E+03  0.25205655732E+03  0.79010174961E+02 0.  0.
          5    1    3    3  502    0 -0.46801472735E+02  0.42986166151E+02  0.29828301519E+01  0.63790090188E+02  0.47000000000E+01 0. -1.
        -13    1    4    4    0    0 -0.21550855247E+02 -0.96671012456E+02  0.35993793001E+02  0.10538157878E+03  0.00000000000E+00 0.  1.
         14    1    4    4    0    0 -0.38797595601E+02  0.25525595579E+01  0.33872780940E+02  0.51566794289E+02  0.00000000000E+00 0. -1.
         -5    1    5    5    0  501  0.34465803896E+02  0.88452806488E+02  0.22482915748E+03  0.24409430691E+03  0.47000000000E+01 0.  1.
         13    1    6    6    0    0  0.13457777175E+02 -0.28311890115E+02  0.17074585199E+02  0.35696167135E+02  0.00000000000E+00 0. -1.
        -14    1    6    6    0    0  0.59226342511E+02 -0.90086296254E+01  0.20790118660E+03  0.21636039019E+03  0.00000000000E+00 0.  1.
</event>
<event>
12    1  0.2609167E-002  0.1816304E+03  0.7818608E-02  0.1166234E+00
          2   -1    0    0  502    0  0.00000000000E+00  0.00000000000E+00  0.22999510676E+03  0.22999510676E+03  0.00000000000E+00 0. -1.
         -2   -1    0    0    0  501 -0.00000000000E+00 -0.00000000000E+00 -0.28664538662E+03  0.28664538662E+03  0.00000000000E+00 0.  1.
          6    2    1    2  502    0 -0.56822649445E+02  0.13067610591E+02 -0.21091707349E+03  0.27838023619E+03  0.17207547202E+03 0.  0.
         24    2    3    3    0    0 -0.93608946845E+01  0.55067849862E+02 -0.18643280075E+03  0.21027584664E+03  0.79615626897E+02 0.  0.
         -6    2    1    2    0  501  0.56822649445E+02 -0.13067610591E+02  0.15426679363E+03  0.23826025720E+03  0.17195967727E+03 0.  0.
        -24    2    5    5    0    0  0.45881200586E+02 -0.55606969635E+02  0.16126169495E+03  0.19353519694E+03  0.79077927125E+02 0.  0.
          5    1    3    3  502    0 -0.47461754761E+02 -0.42000239271E+02 -0.24484272737E+02  0.68104389545E+02  0.47000000000E+01 0. -1.
        -11    1    4    4    0    0 -0.58199068440E+01  0.55868238342E+02 -0.19395420463E+03  0.20192415622E+03  0.00000000000E+00 0.  1.
         12    1    4    4    0    0 -0.35409878405E+01 -0.80038848004E+00  0.75214038775E+01  0.83516904213E+01  0.00000000000E+00 0. -1.
         -5    1    5    5    0  501  0.10941448859E+02  0.42539359044E+02 -0.69949013159E+01  0.44725060262E+02  0.47000000000E+01 0.  1.
         11    1    6    6    0    0 -0.12015604301E+02 -0.44195119902E+02  0.90239279235E+02  0.10119639760E+03  0.00000000000E+00 0. -1.
        -12    1    6    6    0    0  0.57896804887E+02 -0.11411849733E+02  0.71022415711E+02  0.92338799342E+02  0.00000000000E+00 0.  1.
</event>
<event>
12    1  0.2609167E-002  0.1971922E+03  0.7818608E-02  0.1152130E+00
          1   -1    0    0  502    0  0.00000000000E+00  0.00000000000E+00  0.21574825843E+04  0.21574825843E+04  0.00000000000E+00 0. -1.
         -1   -1    0    0    0  501 -0.00000000000E+00 -0.00000000000E+00 -0.21040085148E+02  0.21040085148E+02  0.00000000000E+00 0.  1.
          6    2    1    2  502    0 -0.31966744844E+02  0.92640810845E+02  0.14917839990E+04  0.15050839395E+04  0.17393669121E+03 0.  0.
         24    2    3    3    0    0 -0.11935162929E+02  0.31217949654E+02  0.31704934702E+03  0.32856465586E+03  0.79482300757E+02 0.  0.
         -6    2    1    2    0  501  0.31966744844E+02 -0.92640810845E+02  0.64465850017E+03  0.67343873000E+03  0.16831799849E+03 0.  0.
        -24    2    5    5    0    0  0.41694853426E+02 -0.12816240301E+03  0.55131439268E+03  0.57298161473E+03  0.78716636709E+02 0.  0.
          5    1    3    3  502    0 -0.20031581915E+02  0.61422861191E+02  0.11747346520E+04  0.11765192836E+04  0.47000000000E+01 0. -1.
        -13    1    4    4    0    0  0.16381478475E+02 -0.18492184794E+02  0.14925140576E+03  0.15128217296E+03  0.00000000000E+00 0.  1.
         14    1    4    4    0    0 -0.28316641404E+02  0.49710134449E+02  0.16779794127E+03  0.17728248289E+03  0.00000000000E+00 0. -1.
         -5    1    5    5    0  501 -0.97281085825E+01  0.35521592160E+02  0.93344107490E+02  0.10045711527E+03  0.47000000000E+01 0.  1.
         13    1    6    6    0    0 -0.62846749765E+01 -0.30937958475E+01  0.16054888917E+01  0.71865365015E+01  0.00000000000E+00 0. -1.
        -14    1    6    6    0    0  0.47979528403E+02 -0.12506860716E+03  0.54970890379E+03  0.56579507822E+03  0.00000000000E+00 0.  1.
</event>
<event>
12    1  0.2609167E-002  0.3460934E+03  0.7818608E-02  0.1064230E+00
         -2   -1    0    0    0  501 -0.00000000000E+00  0.00000000000E+00  0.38605891176E+03  0.38605891176E+03  0.00000000000E+00 0. -1.
          2   -1    0    0  502    0  0.00000000000E+00 -0.00000000000E+00 -0.47712101825E+03  0.47712101825E+03  0.00000000000E+00 0.  1.
          6    2    1    2  502    0 -0.15610530999E+03 -0.25691073836E+03  0.20971967643E+03  0.40444379721E+03  0.17093989333E+03 0.  0.
         24    2    3    3    0    0 -0.83665072525E+02 -0.24511328107E+03  0.16184001161E+03  0.31668663052E+03  0.83772714400E+02 0.  0.
         -6    2    1    2    0  501  0.15610530999E+03  0.25691073836E+03 -0.30078178292E+03  0.45873613279E+03  0.17203826114E+03 0.  0.
        -24    2    5    5    0    0  0.67957090191E+02  0.19352856427E+03 -0.12615011329E+03  0.25305259265E+03  0.77783624688E+02 0.  0.
          5    1    3    3  502    0 -0.72440237463E+02 -0.11797457294E+02  0.47879664825E+02  0.87757166693E+02  0.47000000000E+01 0. -1.
        -13    1    4    4    0    0  0.15699603319E+02 -0.57350635440E+02  0.29195617589E+02  0.66241656200E+02  0.00000000000E+00 0.  1.
         14    1    4    4    0    0 -0.99364675843E+02 -0.18776264563E+03  0.13264439402E+03  0.25044497432E+03  0.00000000000E+00 0. -1.
         -5    1    5    5    0  501  0.88148219796E+02  0.63382174095E+02 -0.17463166963E+03  0.20568354014E+03  0.47000000000E+01 0.  1.
         13    1    6    6    0    0  0.67862982012E+02  0.20043738823E+03 -0.12569182473E+03  0.24612794585E+03  0.00000000000E+00 0. -1.
        -14    1    6    6    0    0  0.94108179127E-01 -0.69088239615E+01 -0.45828856946E+00  0.69246467992E+01  0.00000000000E+00 0.  1.
</event>
<event>
12    1  0.2609167E-002  0.2095154E+03  0.7818608E-02  0.1141950E+00
         -2   -1    0    0    0  501 -0.00000000000E+00  0.00000000000E+00  0.67405019950E+02  0.67405019950E+02  0.00000000000E+00 0. -1.
          2   -1    0    0  502    0  0.00000000000E+00 -0.00000000000E+00 -0.83933521916E+03  0.83933521916E+03  0.00000000000E+00 0.  1.
          6    2    1    2  502    0  0.14324493382E+02 -0.11863779986E+03 -0.17192589456E+03  0.27134156307E+03  0.17259088031E+03 0.  0.
         24    2    3    3    0    0  0.51398937976E+02 -0.13817101728E+03 -0.14918666173E+03  0.22343306973E+03  0.77023345638E+02 0.  0.
         -6    2    1    2    0  501 -0.14324493382E+02  0.11863779986E+03 -0.60000430465E+03  0.63539867603E+03  0.17159893135E+03 0.  0.
        -24    2    5    5    0    0 -0.15044505492E+02  0.15337728284E+03 -0.49222230064E+03  0.52205671345E+03  0.80681415253E+02 0.  0.
          5    1    3    3  502    0 -0.37074444593E+02  0.19533217414E+02 -0.22739232831E+02  0.47908493341E+02  0.47000000000E+01 0. -1.
        -13    1    4    4    0    0 -0.30084584670E+01 -0.63056784952E+02 -0.10050057449E+03  0.11868266269E+03  0.00000000000E+00 0.  1.
         14    1    4    4    0    0  0.54407396443E+02 -0.75114232324E+02 -0.48686087240E+02  0.10475040704E+03  0.00000000000E+00 0. -1.
         -5    1    5    5    0  501  0.72001210957E+00 -0.34739482982E+02 -0.10778200401E+03  0.11334196259E+03  0.47000000000E+01 0.  1.
         13    1    6    6    0    0  0.30495340234E+02  0.58828931672E+02 -0.23730602389E+03  0.24638376154E+03  0.00000000000E+00 0. -1.
        -14    1    6    6    0    0 -0.45539845726E+02  0.94548351172E+02 -0.25491627675E+03  0.27567295191E+03  0.00000000000E+00 0.  1.
</event>
<event>
12    1  0.2609167E-002  0.1754585E+03  0.7818608E-02  0.1172272E+00
          1   -1    0    0  502    0  0.00000000000E+00  0.00000000000E+00  0.73466181811E+03  0.73466181811E+03  0.00000000000E+00 0. -1.
         -1   -1    0    0    0  501 -0.00000000000E+00 -0.00000000000E+00 -0.44300618910E+02  0.44300618910E+02  0.00000000000E+00 0.  1.
          6    2    1    2  502    0 -0.21894650106E+02 -0.12072916023E+02  0.25189385020E+03  0.30613525057E+03  0.17217185853E+03 0.  0.
         24    2    3    3    0    0 -0.39958690019E+02  0.15890002949E+02  0.56767411777E+02  0.10813360576E+03  0.81370440295E+02 0.  0.
         -6    2    1    2    0  501  0.21894650106E+02  0.12072916023E+02  0.43846734900E+03  0.47282718645E+03  0.17517648558E+03 0.  0.
        -24    2    5    5    0    0  0.58394040051E+02  0.94550318570E+01  0.14805048523E+03  0.18007626237E+03  0.83721278971E+02 0.  0.
          5    1    3    3  502    0  0.18064039913E+02 -0.27962918972E+02  0.19512643842E+03  0.19800164481E+03  0.47000000000E+01 0. -1.
        -13    1    4    4    0    0  0.18675800770E+02  0.60361880982E+01 -0.71025609221E+01  0.20872648917E+02  0.00000000000E+00 0.  1.
         14    1    4    4    0    0 -0.58634490789E+02  0.98538148507E+01  0.63869972699E+02  0.87260956847E+02  0.00000000000E+00 0. -1.
         -5    1    5    5    0  501 -0.36499389945E+02  0.26178841660E+01  0.29041686378E+03  0.29275092408E+03  0.47000000000E+01 0.  1.
         13    1    6    6    0    0  0.30811186436E+02  0.46514220088E+02  0.71899387120E+02  0.91007822456E+02  0.00000000000E+00 0. -1.
        -14    1    6    6    0    0  0.27582853615E+02 -0.37059188231E+02  0.76151098108E+02  0.89068439915E+02  0.00000000000E+00 0.  1.
</event>
<event>
12    1  0.2609167E-002  0.2034532E+03  0.7818608E-02  0.1146858E+00
         -2   -1    0    0    0  501 -0.00000000000E+00  0.00000000000E+00  0.25399859419E+03  0.25399859419E+03  0.00000000000E+00 0.  1.
          2   -1    0    0  502    0  0.00000000000E+00 -0.00000000000E+00 -0.16435448839E+03  0.16435448839E+03  0.00000000000E+00 0. -1.
          6    2    1    2  502    0 -0.53635119963E+02  0.94329020296E+02  0.25786178898E+02  0.20586059051E+03  0.17302879974E+03 0.  0.
         24    2    3    3    0    0 -0.47090893384E+02  0.15314851275E+02  0.68248502317E+02  0.11579836359E+03  0.79368167629E+02 0.  0.
         -6    2    1    2    0  501  0.53635119963E+02 -0.94329020296E+02  0.63857926904E+02  0.21249249207E+03  0.17117398808E+03 0.  0.
        -24    2    5    5    0    0  0.96279430381E+02 -0.54999912208E+02  0.17167986673E+02  0.13787777185E+03  0.80130026503E+02 0.  0.
          5    1    3    3  502    0 -0.65442265794E+01  0.79014169021E+02 -0.42462323419E+02  0.90062226920E+02  0.47000000000E+01 0. -1.
        -13    1    4    4    0    0  0.11124727399E+02  0.25552702298E+02  0.43621654041E+02  0.51764358933E+02  0.00000000000E+00 0.  1.
         14    1    4    4    0    0 -0.58215620782E+02 -0.10237851023E+02  0.24626848276E+02  0.64034004659E+02  0.00000000000E+00 0. -1.
         -5    1    5    5    0  501 -0.42644310418E+02 -0.39329108088E+02  0.46689940232E+02  0.74614720216E+02  0.47000000000E+01 0.  1.
         11    1    6    6    0    0  0.39357097201E+02 -0.67715688233E+02  0.65704171467E+01  0.78597493055E+02  0.00000000000E+00 0. -1.
        -12    1    6    6    0    0  0.56922333180E+02  0.12715776025E+02  0.10597569526E+02  0.59280278798E+02  0.00000000000E+00 0.  1.
</event>
<event>
12    1  0.2609167E-002  0.2336716E+03  0.7818608E-02  0.1124082E+00
          3   -1    0    0  502    0  0.00000000000E+00  0.00000000000E+00  0.36507754150E+02  0.36507754150E+02  0.00000000000E+00 0.  1.
         -3   -1    0    0    0  501 -0.00000000000E+00 -0.00000000000E+00 -0.15182294366E+04  0.15182294366E+04  0.00000000000E+00 0. -1.
          6    2    1    2  502    0  0.14004538368E+03 -0.72673837685E+02 -0.83552469148E+03  0.86757117306E+03  0.17229055133E+03 0.  0.
         24    2    3    3    0    0  0.72125964669E+02  0.23983164079E+02 -0.49294838185E+03  0.50516774953E+03  0.80118668584E+02 0.  0.
         -6    2    1    2    0  501 -0.14004538368E+03  0.72673837685E+02 -0.64619699094E+03  0.68716601766E+03  0.17243082252E+03 0.  0.
        -24    2    5    5    0    0 -0.42605297614E+02 -0.16395734438E+02 -0.33209543407E+03  0.34641708211E+03  0.87369250627E+02 0.  0.
          5    1    3    3  502    0  0.67919419008E+02 -0.96657001763E+02 -0.34257630963E+03  0.36240342354E+03  0.47000000000E+01 0. -1.
        -11    1    4    4    0    0  0.20387382588E+02 -0.91011625624E+00 -0.19419542460E+02  0.28170770485E+02  0.00000000000E+00 0.  1.
         12    1    4    4    0    0  0.51738582082E+02  0.24893280335E+02 -0.47352883939E+03  0.47699697904E+03  0.00000000000E+00 0. -1.
         -5    1    5    5    0  501 -0.97440086064E+02  0.89069572123E+02 -0.31410155686E+03  0.34074893554E+03  0.47000000000E+01 0.  1.
         13    1    6    6    0    0 -0.41608854096E+02 -0.49331011757E+02 -0.19431918253E+03  0.20475543987E+03  0.00000000000E+00 0. -1.
        -14    1    6    6    0    0 -0.99644351761E+00  0.32935277318E+02 -0.13777625155E+03  0.14166164224E+03  0.00000000000E+00 0.  1.
</event>
<event>
12    1  0.2609167E-002  0.2008553E+03  0.7818608E-02  0.1149019E+00
          2   -1    0    0  502    0  0.00000000000E+00  0.00000000000E+00  0.22031518822E+03  0.22031518822E+03  0.00000000000E+00 0.  1.
         -2   -1    0    0    0  501 -0.00000000000E+00 -0.00000000000E+00 -0.18527889161E+03  0.18527889161E+03  0.00000000000E+00 0. -1.
          6    2    1    2  502    0  0.35471668557E+02  0.95600246233E+02  0.39339235761E+02  0.20377291134E+03  0.17198307351E+03 0.  0.
         24    2    3    3    0    0  0.50781447120E+02 -0.90370865492E+01  0.10748745062E+02  0.94124076918E+02  0.77996038556E+02 0.  0.
         -6    2    1    2    0  501 -0.35471668557E+02 -0.95600246233E+02 -0.43029391513E+01  0.20182116849E+03  0.17411382029E+03 0.  0.
        -24    2    5    5    0    0  0.10149230958E+02 -0.11180796621E+03  0.35166342233E+02  0.13918036045E+03  0.74367149400E+02 0.  0.
          5    1    3    3  502    0 -0.15309778563E+02  0.10463733278E+03  0.28590490699E+02  0.10964883442E+03  0.47000000000E+01 0. -1.
        -11    1    4    4    0    0  0.97827401767E+01  0.25681365937E+02  0.26460655561E+02  0.38149716309E+02  0.00000000000E+00 0.  1.
         12    1    4    4    0    0  0.40998706943E+02 -0.34718452486E+02 -0.15711910499E+02  0.55974360609E+02  0.00000000000E+00 0. -1.
         -5    1    5    5    0  501 -0.45620899515E+02  0.16207719981E+02 -0.39469281384E+02  0.62640808045E+02  0.47000000000E+01 0.  1.
         11    1    6    6    0    0  0.35934037507E+00 -0.93405330836E+02 -0.54105208569E+01  0.93562592365E+02  0.00000000000E+00 0. -1.
        -12    1    6    6    0    0  0.97898905831E+01 -0.18402635378E+02  0.40576863090E+02  0.45617768081E+02  0.00000000000E+00 0.  1.
</event>
<event>
12    1  0.2609167E-002  0.2158535E+03  0.7818608E-02  0.1137013E+00
         -1   -1    0    0    0  501 -0.00000000000E+00  0.00000000000E+00  0.19796799790E+03  0.19796799790E+03  0.00000000000E+00 0. -1.
          1   -1    0    0  502    0  0.00000000000E+00 -0.00000000000E+00 -0.23599574886E+03  0.23599574886E+03  0.00000000000E+00 0.  1.
          6    2    1    2  502    0 -0.12969748235E+03 -0.39769213035E+02 -0.79307215807E+01  0.21265034634E+03  0.16356725290E+03 0.  0.
         24    2    3    3    0    0 -0.66186233429E+02 -0.84552444131E+02 -0.15407458623E+02  0.13443776344E+03  0.79412777015E+02 0.  0.
         -6    2    1    2    0  501  0.12969748235E+03  0.39769213035E+02 -0.30097029386E+02  0.22131340042E+03  0.17225203276E+03 0.  0.
        -24    2    5    5    0    0  0.14800222857E+03  0.60352836411E+02  0.23319444490E+01  0.17850595213E+03  0.79446915963E+02 0.  0.
          5    1    3    3  502    0 -0.63511248926E+02  0.44783231096E+02  0.74767370424E+01  0.78212582903E+02  0.47000000000E+01 0. -1.
        -11    1    4    4    0    0 -0.25521232303E+02 -0.56109533696E+02 -0.45307733935E+02  0.76501005380E+02  0.00000000000E+00 0.  1.
         12    1    4    4    0    0 -0.40665001126E+02 -0.28442910435E+02  0.29900275312E+02  0.57936758058E+02  0.00000000000E+00 0. -1.
         -5    1    5    5    0  501 -0.18304746211E+02 -0.20583623377E+02 -0.32428973835E+02  0.42807448290E+02  0.47000000000E+01 0.  1.
         13    1    6    6    0    0  0.95475992125E+02  0.11498892500E+02 -0.28686164194E+02  0.10035330397E+03  0.00000000000E+00 0. -1.
        -14    1    6    6    0    0  0.52526236440E+02  0.48853943912E+02  0.31018108643E+02  0.78152648158E+02  0.00000000000E+00 0.  1.
</event>
<event>
12    1  0.2609167E-002  0.1847596E+03  0.7818608E-02  0.1163275E+00
          2   -1    0    0  502    0  0.00000000000E+00  0.00000000000E+00  0.28498769181E+04  0.28498769181E+04  0.00000000000E+00 0.  1.
         -2   -1    0    0    0  501 -0.00000000000E+00 -0.00000000000E+00 -0.16381159688E+02  0.16381159688E+02  0.00000000000E+00 0. -1.
          6    2    1    2  502    0  0.29426355745E+02 -0.60515028030E+02  0.67335380737E+03  0.69822319793E+03  0.17199507317E+03 0.  0.
         24    2    3    3    0    0 -0.68410579041E+01  0.23245942340E+02  0.43473064232E+03  0.44269564492E+03  0.80009554089E+02 0.  0.
         -6    2    1    2    0  501 -0.29426355745E+02  0.60515028030E+02  0.21601419511E+04  0.21680348799E+04  0.17214532410E+03 0.  0.
        -24    2    5    5    0    0 -0.79510079598E+02  0.57808532457E+02  0.17989531207E+04  0.18033498573E+04  0.78579247768E+02 0.  0.
          5    1    3    3  502    0  0.36267413650E+02 -0.83760970370E+02  0.23862316505E+03  0.25552755301E+03  0.47000000000E+01 0. -1.
        -11    1    4    4    0    0 -0.31309490377E+02 -0.76291402219E+01  0.87649065221E+02  0.93385473186E+02  0.00000000000E+00 0.  1.
         12    1    4    4    0    0  0.24468432472E+02  0.30875082561E+02  0.34708157710E+03  0.34931017173E+03  0.00000000000E+00 0. -1.
         -5    1    5    5    0  501  0.50083723852E+02  0.27064955731E+01  0.36118883038E+03  0.36468502260E+03  0.47000000000E+01 0.  1.
         13    1    6    6    0    0 -0.56869513871E+02 -0.65805329421E+01  0.88780260909E+03  0.88964651279E+03  0.00000000000E+00 0. -1.
        -14    1    6    6    0    0 -0.22640565727E+02  0.64389065399E+02  0.91115051159E+03  0.91370334449E+03  0.00000000000E+00 0.  1.
</event>
<event>
12    1  0.2609167E-002  0.2348949E+03  0.7818608E-02  0.1123241E+00
         -2   -1    0    0    0  501 -0.00000000000E+00  0.00000000000E+00  0.89392752211E+02  0.89392752211E+02  0.00000000000E+00 0. -1.
          2   -1    0    0  502    0  0.00000000000E+00 -0.00000000000E+00 -0.91837009450E+03  0.91837009450E+03  0.00000000000E+00 0.  1.
          6    2    1    2  502    0 -0.13546046095E+03 -0.86222475744E+02 -0.12674438449E+03  0.26749688207E+03  0.17235600110E+03 0.  0.
         24    2    3    3    0    0 -0.56627500698E+02 -0.22332701653E+01 -0.35368896592E+01  0.98763367153E+02  0.80808611991E+02 0.  0.
         -6    2    1    2    0  501  0.13546046095E+03  0.86222475744E+02 -0.70223295780E+03  0.74026596463E+03  0.17052483564E+03 0.  0.
        -24    2    5    5    0    0  0.64216202622E+02 -0.61815857607E+01 -0.45810376594E+03  0.46964555290E+03  0.80907059705E+02 0.  0.
          5    1    3    3  502    0 -0.78832960256E+02 -0.83989205578E+02 -0.12320749483E+03  0.16873351492E+03  0.47000000000E+01 0. -1.
        -11    1    4    4    0    0  0.81509164971E+01 -0.11280103379E+02  0.24042211684E+02  0.27779598893E+02  0.00000000000E+00 0.  1.
         12    1    4    4    0    0 -0.64778417195E+02  0.90468332141E+01 -0.27579101343E+02  0.70983768260E+02  0.00000000000E+00 0. -1.
         -5    1    5    5    0  501  0.71244258332E+02  0.92404061504E+02 -0.24412919187E+03  0.27062041174E+03  0.47000000000E+01 0.  1.
         13    1    6    6    0    0 -0.11370263528E+02  0.98757585353E+00 -0.10059224983E+02  0.15213356172E+02  0.00000000000E+00 0. -1.
        -14    1    6    6    0    0  0.75586466150E+02 -0.71691616142E+01 -0.44804454095E+03  0.45443219673E+03  0.00000000000E+00 0.  1.
</event>
<event>
12    1  0.2609167E-002  0.2136821E+03  0.7818608E-02  0.1138683E+00
          1   -1    0    0  502    0  0.00000000000E+00  0.00000000000E+00  0.28736585629E+04  0.28736585629E+04  0.00000000000E+00 0. -1.
         -1   -1    0    0    0  501 -0.00000000000E+00 -0.00000000000E+00 -0.16016657306E+02  0.16016657306E+02  0.00000000000E+00 0.  1.
          6    2    1    2  502    0  0.48468293993E+02 -0.11604190188E+03  0.13038155964E+04  0.13213036380E+04  0.17347419365E+03 0.  0.
         24    2    3    3    0    0  0.96125851425E+02 -0.66208247052E+02  0.98722075481E+03  0.99725268575E+03  0.79274139624E+02 0.  0.
         -6    2    1    2    0  501 -0.48468293993E+02  0.11604190188E+03  0.15538263093E+04  0.15683715823E+04  0.17204162932E+03 0.  0.
        -24    2    5    5    0    0  0.12784307881E+01 -0.49062587362E+01  0.46066953679E+03  0.46740972399E+03  0.78928589242E+02 0.  0.
          5    1    3    3  502    0 -0.47657557432E+02 -0.49833654828E+02  0.31659484154E+03  0.32405095221E+03  0.47000000000E+01 0. -1.
        -13    1    4    4    0    0  0.52792642466E+02  0.23129093296E+01  0.24602212125E+03  0.25163325852E+03  0.00000000000E+00 0.  1.
         14    1    4    4    0    0  0.43333208959E+02 -0.68521156382E+02  0.74119863356E+03  0.74561942723E+03  0.00000000000E+00 0. -1.
         -5    1    5    5    0  501 -0.49746724781E+02  0.12094816062E+03  0.10931567725E+04  0.11009618583E+04  0.47000000000E+01 0.  1.
         11    1    6    6    0    0  0.11725129361E+02 -0.85287310003E+01  0.12614597945E+02  0.19218376422E+02  0.00000000000E+00 0. -1.
        -12    1    6    6    0    0 -0.10446698573E+02  0.36224722642E+01  0.44805493884E+03  0.44819134757E+03  0.00000000000E+00 0.  1.
</event>
<event>
12    1  0.2609167E-002  0.2759108E+03  0.7818608E-02  0.1097944E+00
          1   -1    0    0  502    0  0.00000000000E+00  0.00000000000E+00  0.44439910108E+03  0.44439910108E+03  0.00000000000E+00 0. -1.
         -1   -1    0    0    0  501 -0.00000000000E+00 -0.00000000000E+00 -0.17324275367E+03  0.17324275367E+03  0.00000000000E+00 0.  1.
          6    2    1    2  502    0  0.30965781309E+02 -0.21421046912E+03  0.10313040704E+03  0.29499553626E+03  0.17187635342E+03 0.  0.
         24    2    3    3    0    0  0.50973156333E+02 -0.11889129351E+03  0.12319178775E+03  0.19544359359E+03  0.79300563484E+02 0.  0.
         -6    2    1    2    0  501 -0.30965781309E+02  0.21421046912E+03  0.16802594037E+03  0.32264631848E+03  0.17036116194E+03 0.  0.
        -24    2    5    5    0    0 -0.39528838875E+02  0.11885948620E+03  0.16916040038E+03  0.22678958737E+03  0.84428486415E+02 0.  0.
          5    1    3    3  502    0 -0.20007375025E+02 -0.95319175611E+02 -0.20061380702E+02  0.99551942674E+02  0.47000000000E+01 0. -1.
        -11    1    4    4    0    0  0.34207549673E+02 -0.82686374886E+02  0.30514309085E+02  0.94542668173E+02  0.00000000000E+00 0.  1.
         12    1    4    4    0    0  0.16765606661E+02 -0.36204918623E+02  0.92677478660E+02  0.10090092542E+03  0.00000000000E+00 0. -1.
         -5    1    5    5    0  501  0.85630575662E+01  0.95350982924E+02 -0.11344600172E+01  0.95856731109E+02  0.47000000000E+01 0.  1.
         13    1    6    6    0    0 -0.59322429412E+02  0.91979125377E+02  0.92966320777E+02  0.14360378454E+03  0.00000000000E+00 0. -1.
        -14    1    6    6    0    0  0.19793590537E+02  0.26880360818E+02  0.76194079608E+02  0.83185802823E+02  0.00000000000E+00 0.  1.
</event>
<event>
12    1  0.2609167E-002  0.1802813E+03  0.7818608E-02  0.1167531E+00
         -2   -1    0    0    0  501 -0.00000000000E+00  0.00000000000E+00  0.17576997205E+02  0.17576997205E+02  0.00000000000E+00 0. -1.
          2   -1    0    0  502    0  0.00000000000E+00 -0.00000000000E+00 -0.18789654950E+04  0.18789654950E+04  0.00000000000E+00 0.  1.
          6    2    1    2  502    0 -0.81121981983E+00 -0.54137881129E+02 -0.10519903837E+04  0.10673835498E+04  0.17231455749E+03 0.  0.
         24    2    3    3    0    0  0.10289116852E+02 -0.51073052610E+02 -0.10502889832E+04  0.10548298487E+04  0.82732936640E+02 0.  0.
         -6    2    1    2    0  501  0.81121981983E+00  0.54137881129E+02 -0.80939811410E+03  0.82915894242E+03  0.17160325297E+03 0.  0.
        -24    2    5    5    0    0  0.38666566784E+02  0.86729769935E+02 -0.46407546674E+03  0.48021040855E+03  0.78859630144E+02 0.  0.
          5    1    3    3  502    0 -0.11100336671E+02 -0.30648285187E+01 -0.17014005030E+01  0.12553701117E+02  0.47000000000E+01 0. -1.
        -11    1    4    4    0    0  0.11883477609E+02 -0.60968610779E+01 -0.23310510682E+02  0.26865752610E+02  0.00000000000E+00 0.  1.
         12    1    4    4    0    0 -0.15943607571E+01 -0.44976191533E+02 -0.10269784725E+04  0.10279640961E+04  0.00000000000E+00 0. -1.
         -5    1    5    5    0  501 -0.37855346964E+02 -0.32591888806E+02 -0.34532264736E+03  0.34894853387E+03  0.47000000000E+01 0.  1.
         11    1    6    6    0    0  0.19240940220E+02  0.44208911729E+02 -0.38753719826E+03  0.39052493095E+03  0.00000000000E+00 0. -1.
        -12    1    6    6    0    0  0.19425626565E+02  0.42520858206E+02 -0.76538268477E+02  0.89685477595E+02  0.00000000000E+00 0.  1.
</event>
<event>
12    1  0.2609167E-002  0.1737174E+03  0.7818608E-02  0.1174026E+00
         -2   -1    0    0    0  501 -0.00000000000E+00  0.00000000000E+00  0.16481713770E+02  0.16481713770E+02  0.00000000000E+00 0.  1.
          2   -1    0    0  502    0  0.00000000000E+00 -0.00000000000E+00 -0.19797483991E+04  0.19797483991E+04  0.00000000000E+00 0. -1.
          6    2    1    2  502    0 -0.95482900178E+01  0.20590477784E+02 -0.12557548282E+04  0.12677271483E+04  0.17232758411E+03 0.  0.
         24    2    3    3    0    0 -0.66815506036E+02  0.98384172686E+01 -0.99744594770E+03  0.10028862364E+04  0.79506467104E+02 0.  0.
         -6    2    1    2    0  501  0.95482900178E+01 -0.20590477784E+02 -0.70751185709E+03  0.72850296458E+03  0.17212903259E+03 0.  0.
        -24    2    5    5    0    0  0.52084641786E+02  0.27674379689E+02 -0.53624258958E+03  0.54548905887E+03  0.80768293715E+02 0.  0.
          5    1    3    3  502    0  0.57267216018E+02  0.10752060516E+02 -0.25830888054E+03  0.26484091188E+03  0.47000000000E+01 0. -1.
        -11    1    4    4    0    0 -0.30604552827E+02  0.36213857741E+02 -0.74416916166E+03  0.74567809630E+03  0.00000000000E+00 0.  1.
         12    1    4    4    0    0 -0.36210953209E+02 -0.26375440472E+02 -0.25327678604E+03  0.25720814011E+03  0.00000000000E+00 0. -1.
         -5    1    5    5    0  501 -0.42536351768E+02 -0.48264857473E+02 -0.17126926751E+03  0.18301390571E+03  0.47000000000E+01 0.  1.
         11    1    6    6    0    0 -0.82107406239E+01  0.37725911565E+02 -0.22759080890E+03  0.23084245051E+03  0.00000000000E+00 0. -1.
        -12    1    6    6    0    0  0.60295382410E+02 -0.10051531876E+02 -0.30865178068E+03  0.31464660836E+03  0.00000000000E+00 0.  1.
</event>
<event>
12    1  0.2609167E-002  0.1909609E+03  0.7818608E-02  0.1157598E+00
          1   -1    0    0  502    0  0.00000000000E+00  0.00000000000E+00  0.27353888147E+03  0.27353888147E+03  0.00000000000E+00 0. -1.
         -1   -1    0    0    0  501 -0.00000000000E+00 -0.00000000000E+00 -0.29255611310E+03  0.29255611310E+03  0.00000000000E+00 0.  1.
          6    2    1    2  502    0  0.85551639231E+02  0.20513015285E+02 -0.21830411686E+03  0.28927902866E+03  0.16818383458E+03 0.  0.
         24    2    3    3    0    0  0.11966291418E+03  0.30615747226E+02 -0.13719062726E+03  0.20058217152E+03  0.78456372071E+02 0.  0.
         -6    2    1    2    0  501 -0.85551639231E+02 -0.20513015285E+02  0.19928688522E+03  0.27681596591E+03  0.17079797888E+03 0.  0.
        -24    2    5    5    0    0  0.94867671646E+01 -0.34761205789E+01  0.37462441856E+02  0.88317172964E+02  0.79337294666E+02 0.  0.
          5    1    3    3  502    0 -0.34111274945E+02 -0.10102731941E+02 -0.81113489601E+02  0.88696857139E+02  0.47000000000E+01 0. -1.
        -13    1    4    4    0    0  0.51213760245E+02  0.53392258372E+02 -0.74770157773E+02  0.10518630608E+03  0.00000000000E+00 0.  1.
         14    1    4    4    0    0  0.68449153930E+02 -0.22776511146E+02 -0.62420469483E+02  0.95395865446E+02  0.00000000000E+00 0. -1.
         -5    1    5    5    0  501 -0.95038406395E+02 -0.17036894706E+02  0.16182444337E+03  0.18849879295E+03  0.47000000000E+01 0.  1.
         13    1    6    6    0    0  0.13207134433E+02 -0.18730927689E+02  0.58058442930E+02  0.62418417534E+02  0.00000000000E+00 0. -1.
        -14    1    6    6    0    0 -0.37203672681E+01  0.15254807110E+02 -0.20596001074E+02  0.25898755430E+02  0.00000000000E+00 0.  1.
</event>
<event>
12    1  0.2609167E-002  0.1915386E+03  0.7818608E-02  0.1157081E+00
         -2   -1    0    0    0  501 -0.00000000000E+00  0.00000000000E+00  0.27050394976E+02  0.27050394976E+02  0.00000000000E+00 0.  1.
          2   -1    0    0  502    0  0.00000000000E+00 -0.00000000000E+00 -0.15179325220E+04  0.15179325220E+04  0.00000000000E+00 0. -1.
          6    2    1    2  502    0  0.72901742872E+02  0.36171187212E+02 -0.49914396588E+03  0.53522779981E+03  0.17521723692E+03 0.  0.
         24    2    3    3    0    0  0.77494777293E+02  0.85543575185E+02 -0.31318183927E+03  0.34271096627E+03  0.77748300267E+02 0.  0.
         -6    2    1    2    0  501 -0.72901742872E+02 -0.36171187212E+02 -0.99173816116E+03  0.10097551172E+04  0.17157446629E+03 0.  0.
        -24    2    5    5    0    0 -0.11516614591E+03 -0.25975442891E+02 -0.66667597006E+03  0.68176464316E+03  0.80051326135E+02 0.  0.
          5    1    3    3  502    0 -0.45930344214E+01 -0.49372387972E+02 -0.18596212662E+03  0.19251683354E+03  0.47000000000E+01 0. -1.
        -13    1    4    4    0    0  0.63590763614E+02  0.88979506637E+02 -0.30901056622E+03  0.32779363608E+03  0.00000000000E+00 0.  1.
         14    1    4    4    0    0  0.13904013679E+02 -0.34359314518E+01 -0.41712730487E+01  0.14917330196E+02  0.00000000000E+00 0. -1.
         -5    1    5    5    0  501  0.42264403035E+02 -0.10195744321E+02 -0.32506219110E+03  0.32799047402E+03  0.47000000000E+01 0.  1.
         11    1    6    6    0    0 -0.75772139918E+02 -0.55065731093E+02 -0.43928903610E+03  0.44916423407E+03  0.00000000000E+00 0. -1.
        -12    1    6    6    0    0 -0.39394005989E+02  0.29090288202E+02 -0.22738693396E+03  0.23260040909E+03  0.00000000000E+00 0.  1.
</event>
<event>
12    1  0.2609167E-002  0.2253550E+03  0.7818608E-02  0.1129952E+00
         -2   -1    0    0    0  501 -0.00000000000E+00  0.00000000000E+00  0.13627559606E+03  0.13627559606E+03  0.00000000000E+00 0. -1.
          2   -1    0    0  502    0  0.00000000000E+00 -0.00000000000E+00 -0.41143766178E+03  0.41143766178E+03  0.00000000000E+00 0.  1.
          6    2    1    2  502    0 -0.12610220289E+03 -0.74051106682E+02 -0.22170150965E+03  0.31619142571E+03  0.17158125288E+03 0.  0.
         24    2    3    3    0    0 -0.52852112771E+02  0.12863748787E+02 -0.45093213948E+02  0.10611442099E+03  0.79171020839E+02 0.  0.
         -6    2    1    2    0  501  0.12610220289E+03  0.74051106682E+02 -0.53460556071E+02  0.23152183212E+03  0.17134466936E+03 0.  0.
        -24    2    5    5    0    0  0.26268151932E+02 -0.14403643653E+02 -0.47086976420E+02  0.97903745379E+02  0.80439289246E+02 0.  0.
          5    1    3    3  502    0 -0.73250090118E+02 -0.86914855469E+02 -0.17660829570E+03  0.21007700472E+03  0.47000000000E+01 0. -1.
        -13    1    4    4    0    0 -0.61082570577E+02  0.35722933509E+02 -0.40020295580E+02  0.81294725936E+02  0.00000000000E+00 0.  1.
         14    1    4    4    0    0  0.82304578053E+01 -0.22859184722E+02 -0.50729183679E+01  0.24819695054E+02  0.00000000000E+00 0. -1.
         -5    1    5    5    0  501  0.99834050957E+02  0.88454750335E+02 -0.63735796512E+01  0.13361808674E+03  0.47000000000E+01 0.  1.
         11    1    6    6    0    0  0.12340007556E+02  0.27726470358E+02  0.35735045252E+01  0.30558188422E+02  0.00000000000E+00 0. -1.
        -12    1    6    6    0    0  0.13928144376E+02 -0.42130114011E+02 -0.50660480945E+02  0.67345556958E+02  0.00000000000E+00 0.  1.
</event>
<event>
12    1  0.2609167E-002  0.5256106E+03  0.7818608E-02  0.1007302E+00
         -2   -1    0    0    0  501 -0.00000000000E+00  0.00000000000E+00  0.17230874142E+03  0.17230874142E+03  0.00000000000E+00 0. -1.
          2   -1    0    0  502    0  0.00000000000E+00 -0.00000000000E+00 -0.16451551347E+04  0.16451551347E+04  0.00000000000E+00 0.  1.
          6    2    1    2  502    0 -0.11782802498E+03  0.48233247981E+03 -0.88248939673E+03  0.10275961801E+04  0.17503802309E+03 0.  0.
         24    2    3    3    0    0 -0.12561746353E+03  0.49102271572E+03 -0.86885494187E+03  0.10090439859E+04  0.79861134966E+02 0.  0.
         -6    2    1    2    0  501  0.11782802498E+03 -0.48233247981E+03 -0.59035699658E+03  0.78986769603E+03  0.16982794022E+03 0.  0.
        -24    2    5    5    0    0  0.14763937698E+03 -0.42590116803E+03 -0.54248551693E+03  0.70994912360E+03  0.80919907600E+02 0.  0.
          5    1    3    3  502    0  0.77894385491E+01 -0.86902359127E+01 -0.13634454864E+02  0.18552194279E+02  0.47000000000E+01 0. -1.
        -13    1    4    4    0    0 -0.60226839699E+02  0.20803705411E+03 -0.44918243651E+03  0.49866977988E+03  0.00000000000E+00 0.  1.
         14    1    4    4    0    0 -0.65390623829E+02  0.28298566161E+03 -0.41967250537E+03  0.51037420597E+03  0.00000000000E+00 0. -1.
         -5    1    5    5    0  501 -0.29811352002E+02 -0.56431311775E+02 -0.47871479645E+02  0.79918572436E+02  0.47000000000E+01 0.  1.
         13    1    6    6    0    0  0.55835608477E+02 -0.16478594781E+03 -0.15022561459E+03  0.22986900411E+03  0.00000000000E+00 0. -1.
        -14    1    6    6    0    0  0.91803768503E+02 -0.26111522022E+03 -0.39225990234E+03  0.48008011949E+03  0.00000000000E+00 0.  1.
</event>
<event>
12    1  0.2609167E-002  0.1771883E+03  0.7818608E-02  0.1170552E+00
          2   -1    0    0  502    0  0.00000000000E+00  0.00000000000E+00  0.43643700097E+03  0.43643700097E+03  0.00000000000E+00 0.  1.
         -2   -1    0    0    0  501 -0.00000000000E+00 -0.00000000000E+00 -0.11152920006E+03  0.11152920006E+03  0.00000000000E+00 0. -1.
          6    2    1    2  502    0  0.43427719228E+02  0.12277320803E+02 -0.66782162295E+00  0.17739626089E+03  0.17155840985E+03 0.  0.
         24    2    3    3    0    0 -0.11774602149E+02  0.62137306564E+02 -0.10553501732E+02  0.10220895387E+03  0.79596530894E+02 0.  0.
         -6    2    1    2    0  501 -0.43427719228E+02 -0.12277320803E+02  0.32557562254E+03  0.37056994013E+03  0.17113122198E+03 0.  0.
        -24    2    5    5    0    0 -0.34083970028E+02 -0.27983659845E+02  0.68550185276E+02  0.11285273051E+03  0.78050039409E+02 0.  0.
          5    1    3    3  502    0  0.55202321377E+02 -0.49859985761E+02  0.98856801087E+01  0.75187307018E+02  0.47000000000E+01 0. -1.
        -11    1    4    4    0    0 -0.39014307406E+02  0.14325472261E+02 -0.20416227983E+02  0.46305050512E+02  0.00000000000E+00 0.  1.
         12    1    4    4    0    0  0.27239705257E+02  0.47811834303E+02  0.98627262518E+01  0.55903903361E+02  0.00000000000E+00 0. -1.
         -5    1    5    5    0  501 -0.93437492000E+01  0.15706339042E+02  0.25702543726E+03  0.25771720962E+03  0.47000000000E+01 0.  1.
         13    1    6    6    0    0 -0.20364733576E+02  0.51587471727E+01 -0.12341489236E+02  0.24364880517E+02  0.00000000000E+00 0. -1.
        -14    1    6    6    0    0 -0.13719236452E+02 -0.33142407018E+02  0.80891674512E+02  0.88487849997E+02  0.00000000000E+00 0.  1.
</event>
<event>
12    1  0.2609167E-002  0.2152985E+03  0.7818608E-02  0.1137438E+00
         -2   -1    0    0    0  501 -0.00000000000E+00  0.00000000000E+00  0.38118727316E+02  0.38118727316E+02  0.00000000000E+00 0.  1.
          2   -1    0    0  502    0  0.00000000000E+00 -0.00000000000E+00 -0.12225201622E+04  0.12225201622E+04  0.00000000000E+00 0. -1.
          6    2    1    2  502    0  0.10500198726E+03 -0.65316195654E+02 -0.53661603249E+03  0.57669057344E+03  0.17124143312E+03 0.  0.
         24    2    3    3    0    0  0.62639451188E+02  0.54753853015E+01 -0.42946166344E+03  0.44137545527E+03  0.80132961151E+02 0.  0.
         -6    2    1    2    0  501 -0.10500198726E+03  0.65316195654E+02 -0.64778540238E+03  0.68394831607E+03  0.18129464629E+03 0.  0.
        -24    2    5    5    0    0  0.76444503899E+01 -0.11200835539E+02 -0.28952860253E+03  0.30065456368E+03  0.79890291292E+02 0.  0.
          5    1    3    3  502    0  0.42362536074E+02 -0.70791580956E+02 -0.10715436905E+03  0.13531511817E+03  0.47000000000E+01 0. -1.
        -11    1    4    4    0    0  0.44006211089E+01  0.30273555580E+02 -0.23220575678E+03  0.23421222666E+03  0.00000000000E+00 0.  1.
         12    1    4    4    0    0  0.58238830079E+02 -0.24798170279E+02 -0.19725590665E+03  0.20716322861E+03  0.00000000000E+00 0. -1.
         -5    1    5    5    0  501 -0.11264643765E+03  0.76517031193E+02 -0.35825679985E+03  0.38329375238E+03  0.47000000000E+01 0.  1.
         13    1    6    6    0    0 -0.10563192896E+02  0.27327836172E+02 -0.55307843603E+02  0.62588730919E+02  0.00000000000E+00 0. -1.
        -14    1    6    6    0    0  0.18207643286E+02 -0.38528671711E+02 -0.23422075893E+03  0.23806583277E+03  0.00000000000E+00 0.  1.
</event>
<event>
12    1  0.2609167E-002  0.2465824E+03  0.7818608E-02  0.1115484E+00
         -2   -1    0    0    0  501 -0.00000000000E+00  0.00000000000E+00  0.71098445751E+02  0.71098445751E+02  0.00000000000E+00 0.  1.
          2   -1    0    0  502    0  0.00000000000E+00 -0.00000000000E+00 -0.98944364859E+03  0.98944364859E+03  0.00000000000E+00 0. -1.
          6    2    1    2  502    0  0.87898844975E+02 -0.14037781519E+03 -0.66724520997E+03  0.71436685463E+03  0.19409197513E+03 0.  0.
         24    2    3    3    0    0  0.13925002000E+03 -0.95659594411E+02 -0.49004114027E+03  0.52447205542E+03  0.79933045026E+02 0.  0.
         -6    2    1    2    0  501 -0.87898844975E+02  0.14037781519E+03 -0.25109999287E+03  0.34617523971E+03  0.17132995135E+03 0.  0.
        -24    2    5    5    0    0 -0.36670972369E+02  0.71830702881E+01 -0.14433843245E+03  0.16789104024E+03  0.77184594292E+02 0.  0.
          5    1    3    3  502    0 -0.51351175024E+02 -0.44718220780E+02 -0.17720406970E+03  0.18989479920E+03  0.47000000000E+01 0. -1.
        -11    1    4    4    0    0  0.45180337637E+02 -0.38326947779E+02 -0.77951971684E+02  0.97911836488E+02  0.00000000000E+00 0.  1.
         12    1    4    4    0    0  0.94069682362E+02 -0.57332646632E+02 -0.41208916859E+03  0.42656021894E+03  0.00000000000E+00 0. -1.
         -5    1    5    5    0  501 -0.51227872605E+02  0.13319474490E+03 -0.10676156041E+03  0.17828419948E+03  0.47000000000E+01 0.  1.
         13    1    6    6    0    0 -0.27921476653E+02  0.20555093279E+02 -0.14756922120E+03  0.15158758447E+03  0.00000000000E+00 0. -1.
        -14    1    6    6    0    0 -0.87494957161E+01 -0.13372022991E+02  0.32307887496E+01  0.16303455771E+02  0.00000000000E+00 0.  1.
</event>
<event>
12    1  0.2609167E-002  0.1877977E+03  0.7818608E-02  0.1160463E+00
          2   -1    0    0  502    0  0.00000000000E+00  0.00000000000E+00  0.17045431390E+04  0.17045431390E+04  0.00000000000E+00 0. -1.
         -2   -1    0    0    0  501 -0.00000000000E+00 -0.00000000000E+00 -0.22280396831E+02  0.22280396831E+02  0.00000000000E+00 0.  1.
          6    2    1    2  502    0  0.66123277480E+02 -0.34366265274E+02  0.10734436715E+04  0.10898171801E+04  0.17282025928E+03 0.  0.
         24    2    3    3    0    0 -0.15511963271E+02 -0.52850998237E+02  0.73108853194E+03  0.73734713952E+03  0.78463453906E+02 0.  0.
         -6    2    1    2    0  501 -0.66123277480E+02  0.34366265274E+02  0.60881907068E+03  0.63700635580E+03  0.17193925815E+03 0.  0.
        -24    2    5    5    0    0  0.10784808747E+02  0.17782722160E+02  0.47275078767E+03  0.47975962206E+03  0.79015507428E+02 0.  0.
          5    1    3    3  502    0  0.81635240751E+02  0.18484732963E+02  0.34235513957E+03  0.35247004053E+03  0.47000000000E+01 0. -1.
        -13    1    4    4    0    0  0.27999574917E+02 -0.11704951776E+01  0.24107841920E+03  0.24270177267E+03  0.00000000000E+00 0.  1.
         14    1    4    4    0    0 -0.43511538188E+02 -0.51680503060E+02  0.49001011275E+03  0.49464536685E+03  0.00000000000E+00 0. -1.
         -5    1    5    5    0  501 -0.76908086227E+02  0.16583543114E+02  0.13606828301E+03  0.15724673373E+03  0.47000000000E+01 0.  1.
         11    1    6    6    0    0 -0.88840475907E+01  0.24911785778E+02  0.44065109397E+03  0.44144411876E+03  0.00000000000E+00 0. -1.
        -12    1    6    6    0    0  0.19668856338E+02 -0.71290636189E+01  0.32099693696E+02  0.38315503300E+02  0.00000000000E+00 0.  1.
</event>
<event>
12    1  0.2609167E-002  0.2299468E+03  0.7818608E-02  0.1126677E+00
         -1   -1    0    0    0  501 -0.00000000000E+00  0.00000000000E+00  0.37098578439E+03  0.37098578439E+03  0.00000000000E+00 0.  1.
          1   -1    0    0  502    0  0.00000000000E+00 -0.00000000000E+00 -0.15268091413E+03  0.15268091413E+03  0.00000000000E+00 0. -1.
          6    2    1    2  502    0  0.82817780195E+02 -0.12819841696E+03  0.42063628413E+02  0.23470716544E+03  0.17327575089E+03 0.  0.
         24    2    3    3    0    0  0.79691743124E+02 -0.96165225676E+01  0.31274393715E+02  0.11550173197E+03  0.76937058408E+02 0.  0.
         -6    2    1    2    0  501 -0.82817780195E+02  0.12819841696E+03  0.17624124185E+03  0.28895953308E+03  0.17071326135E+03 0.  0.
        -24    2    5    5    0    0 -0.35875827292E+02  0.12140991054E+03  0.57021822039E+02  0.16056564373E+03  0.80637437927E+02 0.  0.
          5    1    3    3  502    0  0.31260370715E+01 -0.11858189439E+03  0.10789234698E+02  0.11920543348E+03  0.47000000000E+01 0. -1.
        -13    1    4    4    0    0  0.31626874458E+02  0.31988727389E+02  0.76812593369E+00  0.44990308794E+02  0.00000000000E+00 0.  1.
         14    1    4    4    0    0  0.48064868666E+02 -0.41605249956E+02  0.30506267781E+02  0.70511423172E+02  0.00000000000E+00 0. -1.
         -5    1    5    5    0  501 -0.46941952903E+02  0.67885064152E+01  0.11921941982E+03  0.12839388935E+03  0.47000000000E+01 0.  1.
         11    1    6    6    0    0 -0.60162112788E+02  0.10422298217E+03  0.46292866704E+02  0.12893773433E+03  0.00000000000E+00 0. -1.
        -12    1    6    6    0    0  0.24286285496E+02  0.17186928372E+02  0.10728955335E+02  0.31627909394E+02  0.00000000000E+00 0.  1.
</event>
<event>
12    1  0.2609167E-002  0.1743034E+03  0.7818608E-02  0.1173433E+00
          1   -1    0    0  502    0  0.00000000000E+00  0.00000000000E+00  0.14620157256E+03  0.14620157256E+03  0.00000000000E+00 0. -1.
         -1   -1    0    0    0  501 -0.00000000000E+00 -0.00000000000E+00 -0.23865341327E+03  0.23865341327E+03  0.00000000000E+00 0.  1.
          6    2    1    2  502    0  0.20552371151E+02 -0.44474883074E+02  0.21590657474E+02  0.18064604654E+03  0.17252948287E+03 0.  0.
         24    2    3    3    0    0  0.19741588248E+02  0.25531777377E+02 -0.31737951701E+02  0.92511941722E+02  0.80681843190E+02 0.  0.
         -6    2    1    2    0  501 -0.20552371151E+02  0.44474883074E+02 -0.11404249818E+03  0.20420893929E+03  0.16215789932E+03 0.  0.
        -24    2    5    5    0    0  0.36527916390E+02  0.17133132631E+01 -0.29629091069E+02  0.93599607050E+02  0.80905990410E+02 0.  0.
          5    1    3    3  502    0  0.81078290308E+00 -0.70006660450E+02  0.53328609175E+02  0.88134104822E+02  0.47000000000E+01 0. -1.
        -13    1    4    4    0    0 -0.86522929329E+01 -0.26097541153E+02 -0.14692764550E+02  0.31174046214E+02  0.00000000000E+00 0.  1.
         14    1    4    4    0    0  0.28393881181E+02  0.51629318530E+02 -0.17045187151E+02  0.61337895508E+02  0.00000000000E+00 0. -1.
         -5    1    5    5    0  501 -0.57080287542E+02  0.42761569811E+02 -0.84413407115E+02  0.11060933224E+03  0.47000000000E+01 0.  1.
         13    1    6    6    0    0 -0.85012217780E+01 -0.17300221755E+02  0.17254576119E+02  0.25870617340E+02  0.00000000000E+00 0. -1.
        -14    1    6    6    0    0  0.45029138168E+02  0.19013535018E+02 -0.46883667189E+02  0.67728989710E+02  0.00000000000E+00 0.  1.
</event>
<event>
12    1  0.2609167E-002  0.1967656E+03  0.7818608E-02  0.1152497E+00
         -1   -1    0    0    0  501 -0.00000000000E+00  0.00000000000E+00  0.48504458582E+02  0.48504458582E+02  0.00000000000E+00 0.  1.
          1   -1    0    0  502    0  0.00000000000E+00 -0.00000000000E+00 -0.10917327754E+04  0.10917327754E+04  0.00000000000E+00 0. -1.
          6    2    1    2  502    0  0.21080328238E+01  0.80800242541E+02 -0.21361767039E+03  0.28601639309E+03  0.17216197320E+03 0.  0.
         24    2    3    3    0    0  0.57926780313E+02  0.52664612293E+02 -0.76632413082E+02  0.13536979678E+03  0.79519694918E+02 0.  0.
         -6    2    1    2    0  501 -0.21080328238E+01 -0.80800242541E+02 -0.82961064641E+03  0.85422084087E+03  0.18683227062E+03 0.  0.
        -24    2    5    5    0    0 -0.18081865799E+02 -0.10176496352E+03 -0.34757188120E+03  0.37143916762E+03  0.80484662945E+02 0.  0.
          5    1    3    3  502    0 -0.55818747489E+02  0.28135630248E+02 -0.13698525731E+03  0.15064659631E+03  0.47000000000E+01 0. -1.
        -13    1    4    4    0    0  0.36722247097E+01 -0.20306627258E+02 -0.15276283331E+02  0.25675069179E+02  0.00000000000E+00 0.  1.
         14    1    4    4    0    0  0.54254555603E+02  0.72971239551E+02 -0.61356129751E+02  0.10969472760E+03  0.00000000000E+00 0. -1.
         -5    1    5    5    0  501  0.15973832975E+02  0.20964720974E+02 -0.48203876521E+03  0.48278167325E+03  0.47000000000E+01 0.  1.
         13    1    6    6    0    0 -0.70243683305E+01 -0.85744517157E+02 -0.33972853429E+03  0.35045248035E+03  0.00000000000E+00 0. -1.
        -14    1    6    6    0    0 -0.11057497469E+02 -0.16020446359E+02 -0.78433469143E+01  0.20986687271E+02  0.00000000000E+00 0.  1.
</event>
<event>
12    1  0.2609167E-002  0.1755562E+03  0.7818608E-02  0.1172174E+00
         -1   -1    0    0    0  501 -0.00000000000E+00  0.00000000000E+00  0.36435755332E+02  0.36435755332E+02  0.00000000000E+00 0. -1.
          1   -1    0    0  502    0  0.00000000000E+00 -0.00000000000E+00 -0.88829479004E+03  0.88829479004E+03  0.00000000000E+00 0.  1.
          6    2    1    2  502    0 -0.25511789688E+02  0.16617950587E+02 -0.52877206136E+03  0.55740279678E+03  0.17369794840E+03 0.  0.
         24    2    3    3    0    0  0.38750697810E+02 -0.20819834073E+02 -0.24664563922E+03  0.26560035831E+03  0.88172540617E+02 0.  0.
         -6    2    1    2    0  501  0.25511789688E+02 -0.16617950587E+02 -0.32308697335E+03  0.36732774860E+03  0.17209728310E+03 0.  0.
        -24    2    5    5    0    0  0.23260861870E+02 -0.49837981187E+02 -0.91463531706E+02  0.13327616064E+03  0.79825217188E+02 0.  0.
          5    1    3    3  502    0 -0.64262487498E+02  0.37437784660E+02 -0.28212642215E+03  0.29180243847E+03  0.47000000000E+01 0. -1.
        -13    1    4    4    0    0 -0.13171956500E+02 -0.15577325247E+02 -0.17902610022E+03  0.18018462216E+03  0.00000000000E+00 0.  1.
         14    1    4    4    0    0  0.51922654310E+02 -0.52425088256E+01 -0.67619538992E+02  0.85415736155E+02  0.00000000000E+00 0. -1.
         -5    1    5    5    0  501  0.22509278178E+01  0.33220030600E+02 -0.23162344164E+03  0.23405158796E+03  0.47000000000E+01 0.  1.
         13    1    6    6    0    0 -0.93592638275E+01 -0.52628085161E+02 -0.24631624195E+02  0.58855994407E+02  0.00000000000E+00 0. -1.
        -14    1    6    6    0    0  0.32620125697E+02  0.27901039739E+01 -0.66831907511E+02  0.74420166234E+02  0.00000000000E+00 0.  1.
</event>
<event>
12    1  0.2609167E-002  0.2109727E+03  0.7818608E-02  0.1140798E+00
          1   -1    0    0  502    0  0.00000000000E+00  0.00000000000E+00  0.72518867499E+03  0.72518867499E+03  0.00000000000E+00 0. -1.
         -1   -1    0    0    0  501 -0.00000000000E+00 -0.00000000000E+00 -0.91785908996E+02  0.91785908996E+02  0.00000000000E+00 0.  1.
          6    2    1    2  502    0  0.43310017605E+02  0.11570019424E+03  0.55141271707E+03  0.59024847000E+03  0.17051386812E+03 0.  0.
         24    2    3    3    0    0  0.66039558968E+02  0.43145306837E+02  0.19945564793E+03  0.23014194097E+03  0.83426714247E+02 0.  0.
         -6    2    1    2    0  501 -0.43310017605E+02 -0.11570019424E+03  0.81990048925E+02  0.22672611399E+03  0.17152279752E+03 0.  0.
        -24    2    5    5    0    0 -0.90379033218E+02 -0.79629276568E+02  0.29352418078E+02  0.14729429723E+03  0.79528952063E+02 0.  0.
          5    1    3    3  502    0 -0.22729541364E+02  0.72554887402E+02  0.35195706914E+03  0.36010652903E+03  0.47000000000E+01 0. -1.
        -13    1    4    4    0    0  0.57093637115E+02  0.27001395838E+02  0.52773369485E+02  0.82303021226E+02  0.00000000000E+00 0.  1.
         14    1    4    4    0    0  0.89459218537E+01  0.16143911000E+02  0.14668227845E+03  0.14783891974E+03  0.00000000000E+00 0. -1.
         -5    1    5    5    0  501  0.47069015613E+02 -0.36070917672E+02  0.52637630847E+02  0.79431816759E+02  0.47000000000E+01 0.  1.
         11    1    6    6    0    0 -0.32575834056E+02 -0.62342869660E+02  0.46802918367E+02  0.84488647341E+02  0.00000000000E+00 0. -1.
        -12    1    6    6    0    0 -0.57803199162E+02 -0.17286406908E+02 -0.17450500289E+02  0.62805649885E+02  0.00000000000E+00 0.  1.
</event>
<event>
12    1  0.2609167E-002  0.2107153E+03  0.7818608E-02  0.1141001E+00
          1   -1    0    0  502    0  0.00000000000E+00  0.00000000000E+00  0.49775385078E+03  0.49775385078E+03  0.00000000000E+00 0. -1.
         -1   -1    0    0    0  501 -0.00000000000E+00 -0.00000000000E+00 -0.10201022213E+03  0.10201022213E+03  0.00000000000E+00 0.  1.
          6    2    1    2  502    0  0.75552445582E+02  0.79248602139E+02  0.99283760997E+02  0.24081215418E+03  0.19011763577E+03 0.  0.
         24    2    3    3    0    0  0.74633432049E+02 -0.99349495000E+01  0.10513961351E+03  0.15130834713E+03  0.78555872989E+02 0.  0.
         -6    2    1    2    0  501 -0.75552445582E+02 -0.79248602139E+02  0.29645986765E+03  0.35895191873E+03  0.17020432973E+03 0.  0.
        -24    2    5    5    0    0 -0.15321815683E+02  0.20551128028E+02  0.94985925272E+02  0.12613964591E+03  0.78941607348E+02 0.  0.
          5    1    3    3  502    0  0.91901353352E+00  0.89183551639E+02 -0.58558525106E+01  0.89503807056E+02  0.47000000000E+01 0. -1.
        -11    1    4    4    0    0 -0.13313979950E+02 -0.58381888315E+01  0.48568977257E+00  0.14545872456E+02  0.00000000000E+00 0.  1.
         12    1    4    4    0    0  0.87947411999E+02 -0.40967606685E+01  0.10465392373E+03  0.13676247467E+03  0.00000000000E+00 0. -1.
         -5    1    5    5    0  501 -0.60230629899E+02 -0.99799730167E+02  0.20147394238E+03  0.23281227282E+03  0.47000000000E+01 0.  1.
         11    1    6    6    0    0  0.10922645216E+02 -0.99773104432E+01  0.82750965543E+02  0.84062912158E+02  0.00000000000E+00 0. -1.
        -12    1    6    6    0    0 -0.26244460899E+02  0.30528438471E+02  0.12234959729E+02  0.42076733749E+02  0.00000000000E+00 0.  1.
</event>
<event>
12    1  0.2609167E-002  0.1830631E+03  0.7818608E-02  0.1164871E+00
          2   -1    0    0  502    0  0.00000000000E+00  0.00000000000E+00  0.19366129944E+04  0.19366129944E+04  0.00000000000E+00 0. -1.
         -2   -1    0    0    0  501 -0.00000000000E+00 -0.00000000000E+00 -0.18160811610E+02  0.18160811610E+02  0.00000000000E+00 0.  1.
          6    2    1    2  502    0  0.62750003979E+02  0.10905590501E+02  0.11695850969E+04  0.11837671558E+04  0.17122758344E+03 0.  0.
         24    2    3    3    0    0  0.75432325617E+02 -0.14562831623E+02  0.45163263901E+03  0.46523580393E+03  0.81056775351E+02 0.  0.
         -6    2    1    2    0  501 -0.62750003979E+02 -0.10905590501E+02  0.74886708591E+03  0.77100665025E+03  0.17202571742E+03 0.  0.
        -24    2    5    5    0    0  0.25390381260E+02 -0.36669439065E+02  0.42901896062E+03  0.43820428147E+03  0.77307208675E+02 0.  0.
          5    1    3    3  502    0 -0.12682321639E+02  0.25468422123E+02  0.71795245787E+03  0.71853135184E+03  0.47000000000E+01 0. -1.
        -13    1    4    4    0    0  0.56437450747E+02  0.26031520429E+02  0.19335816418E+03  0.20310146617E+03  0.00000000000E+00 0.  1.
         14    1    4    4    0    0  0.18994874870E+02 -0.40594352052E+02  0.25827447482E+03  0.26213433776E+03  0.00000000000E+00 0. -1.
         -5    1    5    5    0  501 -0.88140385239E+02  0.25763848565E+02  0.31984812530E+03  0.33280236877E+03  0.47000000000E+01 0.  1.
         11    1    6    6    0    0  0.20788774719E+02  0.84717785613E+01  0.31027603499E+03  0.31108706510E+03  0.00000000000E+00 0. -1.
        -12    1    6    6    0    0  0.46016065408E+01 -0.45141217626E+02  0.11874292563E+03  0.12711721637E+03  0.00000000000E+00 0.  1.
</event>
<event>
12    1  0.2609167E-002  0.1829066E+03  0.7818608E-02  0.1165019E+00
         -2   -1    0    0    0  501 -0.00000000000E+00  0.00000000000E+00  0.26724915741E+02  0.26724915741E+02  0.00000000000E+00 0. -1.
          2   -1    0    0  502    0  0.00000000000E+00 -0.00000000000E+00 -0.17284129783E+04  0.17284129783E+04  0.00000000000E+00 0.  1.
          6    2    1    2  502    0 -0.25042160581E+02  0.51178042561E+02 -0.38743457371E+03  0.42811075035E+03  0.17299411496E+03 0.  0.
         24    2    3    3    0    0  0.44593674994E+02  0.34911280817E+02 -0.29291071109E+03  0.30949115779E+03  0.82344998032E+02 0.  0.
         -6    2    1    2    0  501  0.25042160581E+02 -0.51178042561E+02 -0.13142534889E+04  0.13270271437E+04  0.17462103341E+03 0.  0.
        -24    2    5    5    0    0  0.67502237072E+02  0.69968102182E+01 -0.93520399727E+03  0.94116735224E+03  0.81141611163E+02 0.  0.
          5    1    3    3  502    0 -0.69635835576E+02  0.16266761744E+02 -0.94523862627E+02  0.11861959256E+03  0.47000000000E+01 0. -1.
        -13    1    4    4    0    0  0.23614369781E+01  0.46010416628E+02 -0.21771594374E+03  0.22253711372E+03  0.00000000000E+00 0.  1.
         14    1    4    4    0    0  0.42232238016E+02 -0.11099135811E+02 -0.75194767341E+02  0.86954044064E+02  0.00000000000E+00 0. -1.
         -5    1    5    5    0  501 -0.42460076491E+02 -0.58174852779E+02 -0.37904949163E+03  0.38585979150E+03  0.47000000000E+01 0.  1.
         13    1    6    6    0    0  0.16158227080E+02 -0.32697260633E+02 -0.21766891340E+03  0.22070331899E+03  0.00000000000E+00 0. -1.
        -14    1    6    6    0    0  0.51344009993E+02  0.39694070851E+02 -0.71753508387E+03  0.72046403325E+03  0.00000000000E+00 0.  1.
</event>
<event>
12    1  0.2609167E-002  0.1817589E+03  0.7818608E-02  0.1166112E+00
         -1   -1    0    0    0  501 -0.00000000000E+00  0.00000000000E+00  0.47974754006E+02  0.47974754006E+02  0.00000000000E+00 0. -1.
          1   -1    0    0  502    0  0.00000000000E+00 -0.00000000000E+00 -0.84830773171E+03  0.84830773171E+03  0.00000000000E+00 0.  1.
          6    2    1    2  502    0  0.13891309005E+02  0.59521018775E+02 -0.59270475208E+03  0.61964091772E+03  0.17005947087E+03 0.  0.
         24    2    3    3    0    0 -0.26157571021E+02  0.41093243814E+02 -0.15517125161E+03  0.17986694200E+03  0.76818788661E+02 0.  0.
         -6    2    1    2    0  501 -0.13891309005E+02 -0.59521018775E+02 -0.20762822562E+03  0.27664156799E+03  0.17229439029E+03 0.  0.
        -24    2    5    5    0    0  0.38556421964E+02 -0.54768952134E+02 -0.19489820559E+03  0.22225875792E+03  0.83231058732E+02 0.  0.
          5    1    3    3  502    0  0.40048880027E+02  0.18427774961E+02 -0.43753350048E+03  0.43977397572E+03  0.47000000000E+01 0. -1.
        -13    1    4    4    0    0  0.27085375952E+02  0.17417230710E+02 -0.64398809928E+02  0.72001279407E+02  0.00000000000E+00 0.  1.
         14    1    4    4    0    0 -0.53242946973E+02  0.23676013104E+02 -0.90772441681E+02  0.10786566260E+03  0.00000000000E+00 0. -1.
         -5    1    5    5    0  501 -0.52447730970E+02 -0.47520666404E+01 -0.12730020030E+02  0.54382810071E+02  0.47000000000E+01 0.  1.
         11    1    6    6    0    0 -0.22144031380E+02 -0.28405068663E+02 -0.10220699150E+03  0.10836731594E+03  0.00000000000E+00 0. -1.
        -12    1    6    6    0    0  0.60700453345E+02 -0.26363883471E+02 -0.92691214084E+02  0.11389144198E+03  0.00000000000E+00 0.  1.
</event>
<event>
12    1  0.2609167E-002  0.1917555E+03  0.7818608E-02  0.1156887E+00
         -2   -1    0    0    0  501 -0.00000000000E+00  0.00000000000E+00  0.99299513117E+02  0.99299513117E+02  0.00000000000E+00 0.  1.
          2   -1    0    0  502    0  0.00000000000E+00 -0.00000000000E+00 -0.50798624456E+03  0.50798624456E+03  0.00000000000E+00 0. -1.
          6    2    1    2  502    0  0.13459031341E+02 -0.83826572540E+02 -0.36175010860E+03  0.40902670020E+03  0.17097268967E+03 0.  0.
         24    2    3    3    0    0 -0.22730291119E+02 -0.63156411624E+02 -0.10477023208E+03  0.14864684393E+03  0.81324560971E+02 0.  0.
         -6    2    1    2    0  501 -0.13459031341E+02  0.83826572540E+02 -0.46936622840E+02  0.19825905748E+03  0.17290334734E+03 0.  0.
        -24    2    5    5    0    0  0.24872106169E+02  0.87647116303E+02 -0.82805676005E+02  0.14541445858E+03  0.77381820377E+02 0.  0.
          5    1    3    3  502    0  0.36189322460E+02 -0.20670160916E+02 -0.25697987652E+03  0.26037985627E+03  0.47000000000E+01 0. -1.
        -13    1    4    4    0    0  0.17528088719E+02 -0.62346132241E+02 -0.58081627043E+02  0.86992812918E+02  0.00000000000E+00 0.  1.
         14    1    4    4    0    0 -0.40258379838E+02 -0.81027938353E+00 -0.46688605033E+02  0.61654031010E+02  0.00000000000E+00 0. -1.
         -5    1    5    5    0  501 -0.38331137509E+02 -0.38205437633E+01  0.35869053164E+02  0.52844598895E+02  0.47000000000E+01 0.  1.
         13    1    6    6    0    0  0.25299015201E+02  0.45298471110E+01 -0.49687549080E+02  0.55941149600E+02  0.00000000000E+00 0. -1.
        -14    1    6    6    0    0 -0.42690903277E+00  0.83117269192E+02 -0.33118126925E+02  0.89473308983E+02  0.00000000000E+00 0.  1.
</event>
<event>
12    1  0.2609167E-002  0.1770464E+03  0.7818608E-02  0.1170693E+00
         -3   -1    0    0    0  501 -0.00000000000E+00  0.00000000000E+00  0.62761997268E+02  0.62761997268E+02  0.00000000000E+00 0.  1.
          3   -1    0    0  502    0  0.00000000000E+00 -0.00000000000E+00 -0.53827514112E+03  0.53827514112E+03  0.00000000000E+00 0. -1.
          6    2    1    2  502    0  0.22581976805E+02  0.31670460582E+02 -0.31898177789E+03  0.36501698822E+03  0.17313307978E+03 0.  0.
         24    2    3    3    0    0  0.59178307350E+02  0.69383721045E+02 -0.25543157403E+03  0.28241977377E+03  0.78736692827E+02 0.  0.
         -6    2    1    2    0  501 -0.22581976805E+02 -0.31670460582E+02 -0.15653136596E+03  0.23602015017E+03  0.17230925398E+03 0.  0.
        -24    2    5    5    0    0 -0.50969584807E+02  0.36693683416E+02 -0.10509119250E+03  0.14575557285E+03  0.79096164872E+02 0.  0.
          5    1    3    3  502    0 -0.36596330546E+02 -0.37713260463E+02 -0.63550203855E+02  0.82597214445E+02  0.47000000000E+01 0. -1.
        -11    1    4    4    0    0  0.70100923147E+02  0.61209904669E+02 -0.15297587019E+03  0.17905979090E+03  0.00000000000E+00 0.  1.
         12    1    4    4    0    0 -0.10922615797E+02  0.81738163763E+01 -0.10245570384E+03  0.10335998287E+03  0.00000000000E+00 0. -1.
         -5    1    5    5    0  501  0.28387608002E+02 -0.68364143998E+02 -0.51440173455E+02  0.90264577314E+02  0.47000000000E+01 0.  1.
         11    1    6    6    0    0 -0.54328976268E+02 -0.90498904352E+01 -0.54976869662E+02  0.77820269706E+02  0.00000000000E+00 0. -1.
        -12    1    6    6    0    0  0.33593914614E+01  0.45743573851E+02 -0.50114322841E+02  0.67935303146E+02  0.00000000000E+00 0.  1.
</event>
<event>
12    1  0.2609167E-002  0.2288969E+03  0.7818608E-02  0.1127419E+00
         -1   -1    0    0    0  501 -0.00000000000E+00  0.00000000000E+00  0.17620457722E+03  0.17620457722E+03  0.00000000000E+00 0.  1.
          1   -1    0    0  502    0  0.00000000000E+00 -0.00000000000E+00 -0.31953722859E+03  0.31953722859E+03  0.00000000000E+00 0. -1.
          6    2    1    2  502    0  0.42577048501E+02 -0.14047842367E+03 -0.72026863995E+01  0.23174086666E+03  0.17917856460E+03 0.  0.
         24    2    3    3    0    0  0.14907537308E+02 -0.16281365160E+03  0.25020879125E+02  0.18352352091E+03  0.79525584043E+02 0.  0.
         -6    2    1    2    0  501 -0.42577048501E+02  0.14047842367E+03 -0.13612996497E+03  0.26400093914E+03  0.17209920374E+03 0.  0.
        -24    2    5    5    0    0 -0.35991382590E+02  0.87418240262E+02 -0.53437317814E+01  0.12262950338E+03  0.77923752976E+02 0.  0.
          5    1    3    3  502    0  0.27669511193E+02  0.22335227929E+02 -0.32223565525E+02  0.48217345753E+02  0.47000000000E+01 0. -1.
        -11    1    4    4    0    0  0.19670192609E+02 -0.11949953412E+03 -0.17825087276E+02  0.12241237221E+03  0.00000000000E+00 0.  1.
         12    1    4    4    0    0 -0.47626553009E+01 -0.43314117478E+02  0.42845966402E+02  0.61111148699E+02  0.00000000000E+00 0. -1.
         -5    1    5    5    0  501 -0.65856659115E+01  0.53060183412E+02 -0.13078623319E+03  0.14137143577E+03  0.47000000000E+01 0.  1.
         11    1    6    6    0    0 -0.27554269396E+02  0.29464482332E+02 -0.38132216376E+02  0.55510894487E+02  0.00000000000E+00 0. -1.
        -12    1    6    6    0    0 -0.84371131940E+01  0.57953757929E+02  0.32788484595E+02  0.67118608889E+02  0.00000000000E+00 0.  1.
</event>
<event>
12    1  0.2609167E-002  0.2334559E+03  0.7818608E-02  0.1124231E+00
         -2   -1    0    0    0  501 -0.00000000000E+00  0.00000000000E+00  0.13812932437E+02  0.13812932437E+02  0.00000000000E+00 0. -1.
          2   -1    0    0  502    0  0.00000000000E+00 -0.00000000000E+00 -0.39853393001E+04  0.39853393001E+04  0.00000000000E+00 0.  1.
          6    2    1    2  502    0 -0.12612937758E+03  0.95024109425E+02 -0.17848666602E+04  0.18000469322E+04  0.17170254036E+03 0.  0.
         24    2    3    3    0    0 -0.65554986120E+02  0.12005696022E+03 -0.90890230942E+03  0.92162133247E+03  0.67611703809E+02 0.  0.
         -6    2    1    2    0  501  0.12612937758E+03 -0.95024109425E+02 -0.21866597075E+04  0.21991053004E+04  0.17217794350E+03 0.  0.
        -24    2    5    5    0    0  0.71646227875E+02 -0.11476271303E+03 -0.11301674453E+04  0.11410145593E+04  0.79574543164E+02 0.  0.
          5    1    3    3  502    0 -0.60574391462E+02 -0.25032850797E+02 -0.87596435074E+03  0.87842559974E+03  0.47000000000E+01 0. -1.
        -13    1    4    4    0    0 -0.50154410224E+02  0.57719505531E+02 -0.31020520429E+03  0.31949064924E+03  0.00000000000E+00 0.  1.
         14    1    4    4    0    0 -0.15400575897E+02  0.62337454692E+02 -0.59869710513E+03  0.60213068323E+03  0.00000000000E+00 0. -1.
         -5    1    5    5    0  501  0.54483149707E+02  0.19738603607E+02 -0.10564922623E+04  0.10580907410E+04  0.47000000000E+01 0.  1.
         11    1    6    6    0    0  0.13436374424E+02 -0.85888332282E+01 -0.28054290369E+02  0.32269915122E+02  0.00000000000E+00 0. -1.
        -12    1    6    6    0    0  0.58209853451E+02 -0.10617387980E+03 -0.11021131549E+04  0.11087446442E+04  0.00000000000E+00 0.  1.
</event>
<event>
12    1  0.2609167E-002  0.2460258E+03  0.7818608E-02  0.1115843E+00
          2   -1    0    0  502    0  0.00000000000E+00  0.00000000000E+00  0.83653274995E+03  0.83653274995E+03  0.00000000000E+00 0. -1.
         -2   -1    0    0    0  501 -0.00000000000E+00 -0.00000000000E+00 -0.10558142890E+03  0.10558142890E+03  0.00000000000E+00 0.  1.
          6    2    1    2  502    0  0.15061757789E+03 -0.91477804335E+02  0.10203735773E+03  0.26707829788E+03  0.17281594651E+03 0.  0.
         24    2    3    3    0    0  0.11414525187E+03 -0.11716165387E+03  0.12347941077E+03  0.21736167761E+03  0.72408164927E+02 0.  0.
         -6    2    1    2    0  501 -0.15061757789E+03  0.91477804335E+02  0.62891396332E+03  0.67503588097E+03  0.17054859686E+03 0.  0.
        -24    2    5    5    0    0 -0.10513992588E+03  0.12687060319E+03  0.52682126087E+03  0.55770780703E+03  0.79666825870E+02 0.  0.
          5    1    3    3  502    0  0.36472326021E+02  0.25683849537E+02 -0.21442053036E+02  0.49716620267E+02  0.47000000000E+01 0. -1.
        -11    1    4    4    0    0  0.11119794912E+03 -0.75390675103E+02  0.77189963600E+02  0.15494201581E+03  0.00000000000E+00 0.  1.
         12    1    4    4    0    0  0.29473027471E+01 -0.41770978769E+02  0.46289447167E+02  0.62419661804E+02  0.00000000000E+00 0. -1.
         -5    1    5    5    0  501 -0.45477652010E+02 -0.35392798858E+02  0.10209270245E+03  0.11732807395E+03  0.47000000000E+01 0.  1.
         13    1    6    6    0    0 -0.79427402933E+02  0.33766949551E+02  0.23826257145E+03  0.25341265196E+03  0.00000000000E+00 0. -1.
        -14    1    6    6    0    0 -0.25712522948E+02  0.93103653641E+02  0.28855868942E+03  0.30429515507E+03  0.00000000000E+00 0.  1.
</event>
<event>
12    1  0.2609167E-002  0.1754559E+03  0.7818608E-02  0.1172275E+00
          1   -1    0    0  502    0  0.00000000000E+00  0.00000000000E+00  0.81806611512E+02  0.81806611512E+02  0.00000000000E+00 0.  1.
         -1   -1    0    0    0  501 -0.00000000000E+00 -0.00000000000E+00 -0.40443400450E+03  0.40443400450E+03  0.00000000000E+00 0. -1.
          6    2    1    2  502    0 -0.34210218758E+02 -0.51425389352E+01 -0.22492660551E+03  0.28491322522E+03  0.17142573688E+03 0.  0.
         24    2    3    3    0    0  0.11446284931E+02  0.44734590577E+02 -0.67479688018E+02  0.11349599678E+03  0.78712336759E+02 0.  0.
         -6    2    1    2    0  501  0.34210218758E+02  0.51425389352E+01 -0.97700787481E+02  0.20132739079E+03  0.17259921678E+03 0.  0.
        -24    2    5    5    0    0 -0.51292408292E+02  0.66294670343E+01 -0.34412301256E+02  0.94835923171E+02  0.71657413184E+02 0.  0.
          5    1    3    3  502    0 -0.45656503688E+02 -0.49877129513E+02 -0.15744691749E+03  0.17141722843E+03  0.47000000000E+01 0. -1.
        -13    1    4    4    0    0  0.34790632121E+01  0.36742499658E+02  0.75089589456E+01  0.37662974210E+02  0.00000000000E+00 0.  1.
         14    1    4    4    0    0  0.79672217185E+01  0.79920909197E+01 -0.74988646964E+02  0.75833022574E+02  0.00000000000E+00 0. -1.
         -5    1    5    5    0  501  0.85502627050E+02 -0.14869280991E+01 -0.63288486224E+02  0.10649146762E+03  0.47000000000E+01 0.  1.
         11    1    6    6    0    0 -0.28285448671E+02  0.38320442042E+02 -0.27714789999E+02  0.55105648254E+02  0.00000000000E+00 0. -1.
        -12    1    6    6    0    0 -0.23006959621E+02 -0.31690975007E+02 -0.66975112572E+01  0.39730274917E+02  0.00000000000E+00 0.  1.
</event>
<event>
12    1  0.2609167E-002  0.2545866E+03  0.7818608E-02  0.1110440E+00
         -1   -1    0    0    0  501 -0.00000000000E+00  0.00000000000E+00  0.10557821617E+04  0.10557821617E+04  0.00000000000E+00 0. -1.
          1   -1    0    0  502    0  0.00000000000E+00 -0.00000000000E+00 -0.15516112775E+03  0.15516112775E+03  0.00000000000E+00 0.  1.
          6    2    1    2  502    0  0.18213395199E+03 -0.46775541194E+02  0.92029954897E+03  0.95459865665E+03  0.17013702631E+03 0.  0.
         24    2    3    3    0    0  0.32622747680E+02  0.19407076931E+02  0.39106006462E+03  0.40065799110E+03  0.78472755709E+02 0.  0.
         -6    2    1    2    0  501 -0.18213395199E+03  0.46775541194E+02 -0.19678515022E+02  0.25634463281E+03  0.17310285697E+03 0.  0.
        -24    2    5    5    0    0 -0.11458722771E+03  0.97562007320E+02 -0.21933955823E+02  0.17167467287E+03  0.79639920007E+02 0.  0.
          5    1    3    3  502    0  0.14951120431E+03 -0.66182618125E+02  0.52923948434E+03  0.55394066554E+03  0.47000000000E+01 0. -1.
        -11    1    4    4    0    0  0.40422905017E+02  0.17406797229E+02  0.97337619784E+02  0.10682518460E+03  0.00000000000E+00 0.  1.
         12    1    4    4    0    0 -0.78001573369E+01  0.20002797023E+01  0.29372244484E+03  0.29383280650E+03  0.00000000000E+00 0. -1.
         -5    1    5    5    0  501 -0.67546724283E+02 -0.50786466126E+02  0.22554408016E+01  0.84669959939E+02  0.47000000000E+01 0.  1.
         11    1    6    6    0    0 -0.39262635002E+02  0.21879945004E+01  0.18681679307E+02  0.43535582791E+02  0.00000000000E+00 0. -1.
        -12    1    6    6    0    0 -0.75324592708E+02  0.95374012820E+02 -0.40615635131E+02  0.12813909007E+03  0.00000000000E+00 0.  1.
</event>
<event>
12    1  0.2609167E-002  0.1731995E+03  0.7818608E-02  0.1174552E+00
         -2   -1    0    0    0  501 -0.00000000000E+00  0.00000000000E+00  0.14151679735E+03  0.14151679735E+03  0.00000000000E+00 0.  1.
          2   -1    0    0  502    0  0.00000000000E+00 -0.00000000000E+00 -0.38665102158E+03  0.38665102158E+03  0.00000000000E+00 0. -1.
          6    2    1    2  502    0  0.74282374414E+01 -0.41689280404E+01 -0.30020588053E+03  0.34676556402E+03  0.17335001301E+03 0.  0.
         24    2    3    3    0    0 -0.13133988789E+01  0.78240904170E+01 -0.31509353978E+03  0.32522534361E+03  0.80153876405E+02 0.  0.
         -6    2    1    2    0  501 -0.74282374414E+01  0.41689280404E+01  0.55071656303E+02  0.18140225492E+03  0.17263062327E+03 0.  0.
        -24    2    5    5    0    0 -0.67502269592E+00  0.70331029384E+02  0.20989725564E+02  0.10652437056E+03  0.77200800474E+02 0.  0.
          5    1    3    3  502    0  0.87416363203E+01 -0.11993018457E+02  0.14887659253E+02  0.21540220410E+02  0.47000000000E+01 0. -1.
        -11    1    4    4    0    0 -0.12454603435E+02  0.38751125438E+02 -0.10568405996E+03  0.11325143443E+03  0.00000000000E+00 0.  1.
         12    1    4    4    0    0  0.11141204556E+02 -0.30927035021E+02 -0.20940947982E+03  0.21197390918E+03  0.00000000000E+00 0. -1.
         -5    1    5    5    0  501 -0.67532147455E+01 -0.66162101344E+02  0.34081930739E+02  0.74877884362E+02  0.47000000000E+01 0.  1.
         13    1    6    6    0    0 -0.26514180396E+02  0.19875670643E+00 -0.57736154179E+01  0.27136247001E+02  0.00000000000E+00 0. -1.
        -14    1    6    6    0    0  0.25839157700E+02  0.70132272678E+02  0.26763340982E+02  0.79388123558E+02  0.00000000000E+00 0.  1.
</event>
<event>
12    1  0.2609167E-002  0.1932791E+03  0.7818608E-02  0.1155537E+00
         -3   -1    0    0    0  501 -0.00000000000E+00  0.00000000000E+00  0.15703545643E+03  0.15703545643E+03  0.00000000000E+00 0.  1.
          3   -1    0    0  502    0  0.00000000000E+00 -0.00000000000E+00 -0.23886058629E+03  0.23886058629E+03  0.00000000000E+00 0. -1.
          6    2    1    2  502    0 -0.66145160436E+02 -0.19843954640E+02 -0.52146880508E+02  0.20819873083E+03  0.18936327413E+03 0.  0.
         24    2    3    3    0    0 -0.11782232913E+03  0.58306369167E+01 -0.23575627072E+02  0.14363774463E+03  0.78484991705E+02 0.  0.
         -6    2    1    2    0  501  0.66145160436E+02  0.19843954640E+02 -0.29678249350E+02  0.18769731189E+03  0.17198987651E+03 0.  0.
        -24    2    5    5    0    0  0.76672441987E+02  0.54146269707E+02  0.21320278509E+02  0.12516402220E+03  0.80006226588E+02 0.  0.
          5    1    3    3  502    0  0.51677168694E+02 -0.25674591556E+02 -0.28571253436E+02  0.64560986197E+02  0.47000000000E+01 0. -1.
        -11    1    4    4    0    0 -0.75371539532E+02 -0.92483930378E+01  0.22498472251E+02  0.79199640143E+02  0.00000000000E+00 0.  1.
         12    1    4    4    0    0 -0.42450789598E+02  0.15079029955E+02 -0.46074099323E+02  0.64438104490E+02  0.00000000000E+00 0. -1.
         -5    1    5    5    0  501 -0.10527281550E+02 -0.34302315068E+02 -0.50998527860E+02  0.62533289692E+02  0.47000000000E+01 0.  1.
         11    1    6    6    0    0 -0.59880684903E+01  0.36765350476E+02 -0.26984565727E+01  0.37347417953E+02  0.00000000000E+00 0. -1.
        -12    1    6    6    0    0  0.82660510477E+02  0.17380919231E+02  0.24018735082E+02  0.87816604242E+02  0.00000000000E+00 0.  1.
</event>
<event>
12    1  0.2609167E-002  0.1797061E+03  0.7818608E-02  0.1168088E+00
         -2   -1    0    0    0  501 -0.00000000000E+00  0.00000000000E+00  0.10201796938E+02  0.10201796938E+02  0.00000000000E+00 0.  1.
          2   -1    0    0  502    0  0.00000000000E+00 -0.00000000000E+00 -0.34391507019E+04  0.34391507019E+04  0.00000000000E+00 0. -1.
          6    2    1    2  502    0 -0.17597408989E+02 -0.54612361706E+02 -0.22132276472E+04  0.22206274337E+04  0.17180629179E+03 0.  0.
         24    2    3    3    0    0  0.32978997459E+02 -0.16368035190E+02 -0.64073861684E+03  0.64685348483E+03  0.80733691055E+02 0.  0.
         -6    2    1    2    0  501  0.17597408989E+02  0.54612361706E+02 -0.12157212577E+04  0.12287250651E+04  0.16880441460E+03 0.  0.
        -24    2    5    5    0    0 -0.26283282337E+02  0.87928335906E+02 -0.88847259196E+03  0.89683766187E+03  0.80697223653E+02 0.  0.
          5    1    3    3  502    0 -0.50576406448E+02 -0.38244326516E+02 -0.15724890304E+04  0.15737739489E+04  0.47000000000E+01 0. -1.
        -13    1    4    4    0    0  0.18956493788E+02 -0.48930572499E+02 -0.42391859690E+03  0.42715398439E+03  0.00000000000E+00 0.  1.
         14    1    4    4    0    0  0.14022503671E+02  0.32562537309E+02 -0.21682001994E+03  0.21969950044E+03  0.00000000000E+00 0. -1.
         -5    1    5    5    0  501  0.43880691326E+02 -0.33315974200E+02 -0.32724866576E+03  0.33188740328E+03  0.47000000000E+01 0.  1.
         13    1    6    6    0    0 -0.54098105698E+02  0.67469279324E+02 -0.68791444927E+03  0.69332892498E+03  0.00000000000E+00 0. -1.
        -14    1    6    6    0    0  0.27814823361E+02  0.20459056583E+02 -0.20055814269E+03  0.20350873689E+03  0.00000000000E+00 0.  1.
</event>
<event>
12    1  0.2609167E-002  0.2198037E+03  0.7818608E-02  0.1134029E+00
         -1   -1    0    0    0  501 -0.00000000000E+00  0.00000000000E+00  0.20912270161E+03  0.20912270161E+03  0.00000000000E+00 0.  1.
          1   -1    0    0  502    0  0.00000000000E+00 -0.00000000000E+00 -0.32663139222E+03  0.32663139222E+03  0.00000000000E+00 0. -1.
          6    2    1    2  502    0 -0.29367492649E+02  0.13394480252E+03  0.86252709736E+02  0.23570457159E+03  0.17121172678E+03 0.  0.
         24    2    3    3    0    0 -0.56306473281E+02  0.34599196039E+02  0.26720757054E+01  0.10302800776E+03  0.78994348502E+02 0.  0.
         -6    2    1    2    0  501  0.29367492649E+02 -0.13394480252E+03 -0.20376140034E+03  0.30004952224E+03  0.17235819615E+03 0.  0.
        -24    2    5    5    0    0 -0.42257717681E+01 -0.23599813961E+02 -0.24209636956E+02  0.86588870951E+02  0.79603502970E+02 0.  0.
          5    1    3    3  502    0  0.26938980632E+02  0.99345606480E+02  0.83580634030E+02  0.13267656383E+03  0.47000000000E+01 0. -1.
        -11    1    4    4    0    0 -0.47958177043E+02  0.14747509714E+02  0.37112695577E+02  0.62408556793E+02  0.00000000000E+00 0.  1.
         12    1    4    4    0    0 -0.83482962385E+01  0.19851686325E+02 -0.34440619872E+02  0.40619450971E+02  0.00000000000E+00 0. -1.
         -5    1    5    5    0  501  0.33593264417E+02 -0.11034498856E+03 -0.17955176338E+03  0.21346065129E+03  0.47000000000E+01 0.  1.
         13    1    6    6    0    0 -0.53801619629E+01 -0.43416588373E+02 -0.41472641776E+02  0.60282056240E+02  0.00000000000E+00 0. -1.
        -14    1    6    6    0    0  0.11543901948E+01  0.19816774412E+02  0.17263004820E+02  0.26306814711E+02  0.00000000000E+00 0.  1.
</event>
<event>
12    1  0.2609167E-002  0.1938716E+03  0.7818608E-02  0.1155015E+00
         -2   -1    0    0    0  501 -0.00000000000E+00  0.00000000000E+00  0.47818466311E+02  0.47818466311E+02  0.00000000000E+00 0. -1.
          2   -1    0    0  502    0  0.00000000000E+00 -0.00000000000E+00 -0.12802390275E+04  0.12802390275E+04  0.00000000000E+00 0.  1.
          6    2    1    2  502    0 -0.76355655011E+02 -0.45380185589E+02 -0.20236854128E+03  0.27979840948E+03  0.17159421946E+03 0.  0.
         24    2    3    3    0    0  0.11488806078E+02 -0.41375061807E+02 -0.49711214018E+02  0.10356265849E+03  0.80063293896E+02 0.  0.
         -6    2    1    2    0  501  0.76355655011E+02  0.45380185589E+02 -0.10300520199E+04  0.10482590844E+04  0.17306182962E+03 0.  0.
        -24    2    5    5    0    0  0.16330655910E-01  0.57323945790E+02 -0.78735002671E+03  0.79351079022E+03  0.80332276253E+02 0.  0.
          5    1    3    3  502    0 -0.87844461088E+02 -0.40051237815E+01 -0.15265732726E+03  0.17623575099E+03  0.47000000000E+01 0. -1.
        -13    1    4    4    0    0  0.26730946445E+02 -0.31638844985E+01  0.11939254320E+02  0.29446552543E+02  0.00000000000E+00 0.  1.
         14    1    4    4    0    0 -0.15242140367E+02 -0.38211177309E+02 -0.61650468338E+02  0.74116105946E+02  0.00000000000E+00 0. -1.
         -5    1    5    5    0  501  0.76339324355E+02 -0.11943760201E+02 -0.24270199322E+03  0.25474829413E+03  0.47000000000E+01 0.  1.
         11    1    6    6    0    0 -0.26329370775E+02  0.31987972076E+02 -0.65191533430E+03  0.65323048705E+03  0.00000000000E+00 0. -1.
        -12    1    6    6    0    0  0.26345701431E+02  0.25335973713E+02 -0.13543469241E+03  0.14028030317E+03  0.00000000000E+00 0.  1.
</event>
<event>
12    1  0.2609167E-002  0.1736885E+03  0.7818608E-02  0.1174055E+00
         -2   -1    0    0    0  501 -0.00000000000E+00  0.00000000000E+00  0.17685448835E+02  0.17685448835E+02  0.00000000000E+00 0. -1.
          2   -1    0    0  502    0  0.00000000000E+00 -0.00000000000E+00 -0.17261467355E+04  0.17261467355E+04  0.00000000000E+00 0.  1.
          6    2    1    2  502    0  0.24283468353E+02  0.10722829983E+02 -0.94954673379E+03  0.96532494236E+03  0.17178061237E+03 0.  0.
         24    2    3    3    0    0 -0.22834402138E+02 -0.10208662173E+02 -0.83878502068E+03  0.84306101402E+03  0.81030461801E+02 0.  0.
         -6    2    1    2    0  501 -0.24283468353E+02 -0.10722829983E+02 -0.75891455285E+03  0.77850724194E+03  0.17151548418E+03 0.  0.
        -24    2    5    5    0    0  0.28644831935E+02  0.41633042944E+02 -0.33284933728E+03  0.34596105907E+03  0.79665151746E+02 0.  0.
          5    1    3    3  502    0  0.47117870491E+02  0.20931492156E+02 -0.11076171311E+03  0.12226392834E+03  0.47000000000E+01 0. -1.
        -11    1    4    4    0    0  0.20465217887E+02 -0.30605531453E+02 -0.38729204302E+03  0.38903810904E+03  0.00000000000E+00 0.  1.
         12    1    4    4    0    0 -0.43299620025E+02  0.20396869280E+02 -0.45149297766E+03  0.45402290498E+03  0.00000000000E+00 0. -1.
         -5    1    5    5    0  501 -0.52928300288E+02 -0.52355872927E+02 -0.42606521557E+03  0.43254618287E+03  0.47000000000E+01 0.  1.
         13    1    6    6    0    0  0.53629452248E+02  0.17204358837E+02 -0.24559029584E+03  0.25196567529E+03  0.00000000000E+00 0. -1.
        -14    1    6    6    0    0 -0.24984620314E+02  0.24428684107E+02 -0.87259041439E+02  0.93995383782E+02  0.00000000000E+00 0.  1.
</event>
<event>
12    1  0.2609167E-002  0.1956490E+03  0.7818608E-02  0.1153463E+00
         -1   -1    0    0    0  501 -0.00000000000E+00  0.00000000000E+00  0.74351056054E+02  0.74351056054E+02  0.00000000000E+00 0. -1.
          1   -1    0    0  502    0  0.00000000000E+00 -0.00000000000E+00 -0.55155945023E+03  0.55155945023E+03  0.00000000000E+00 0.  1.
          6    2    1    2  502    0 -0.70238706946E+02 -0.55487228363E+02 -0.15917108224E+03  0.25310777899E+03  0.17525925338E+03 0.  0.
         24    2    3    3    0    0 -0.33295200208E+02 -0.93520442641E+02 -0.16213154257E+03  0.19979546893E+03  0.61456885369E+02 0.  0.
         -6    2    1    2    0  501  0.70238706946E+02  0.55487228363E+02 -0.31803731193E+03  0.37280272729E+03  0.17268999170E+03 0.  0.
        -24    2    5    5    0    0  0.50738348320E+02 -0.98482308281E+01 -0.78487411878E+02  0.12369385385E+03  0.80427159689E+02 0.  0.
          5    1    3    3  502    0 -0.36943506737E+02  0.38033214277E+02  0.29604603299E+01  0.53312310058E+02  0.47000000000E+01 0. -1.
        -11    1    4    4    0    0 -0.42542444068E+02 -0.36044033817E+02 -0.10106625572E+03  0.11542711972E+03  0.00000000000E+00 0.  1.
         12    1    4    4    0    0  0.92472438598E+01 -0.57476408824E+02 -0.61065286850E+02  0.84368349210E+02  0.00000000000E+00 0. -1.
         -5    1    5    5    0  501  0.19500358625E+02  0.65335459191E+02 -0.23954990005E+03  0.24910887345E+03  0.47000000000E+01 0.  1.
         13    1    6    6    0    0  0.29210029907E+02 -0.43959406125E+02 -0.30322906320E+02  0.60869810923E+02  0.00000000000E+00 0. -1.
        -14    1    6    6    0    0  0.21528318413E+02  0.34111175297E+02 -0.48164505558E+02  0.62824042925E+02  0.00000000000E+00 0.  1.
</event>
<event>
12    1  0.2609167E-002  0.2121527E+03  0.7818608E-02  0.1139873E+00
         -2   -1    0    0    0  501 -0.00000000000E+00  0.00000000000E+00  0.35516319431E+02  0.35516319431E+02  0.00000000000E+00 0.  1.
          2   -1    0    0  502    0  0.00000000000E+00 -0.00000000000E+00 -0.14836187744E+04  0.14836187744E+04  0.00000000000E+00 0. -1.
          6    2    1    2  502    0 -0.28935313744E+02 -0.12194552546E+03 -0.10118720427E+04  0.10337172929E+04  0.17023057148E+03 0.  0.
         24    2    3    3    0    0  0.32382965294E+02 -0.17581798670E+02 -0.48813326334E+03  0.49615230359E+03  0.80840890028E+02 0.  0.
         -6    2    1    2    0  501  0.28935313744E+02  0.12194552546E+03 -0.43623041230E+03  0.48541780087E+03  0.17212061244E+03 0.  0.
        -24    2    5    5    0    0 -0.15600232325E+02  0.96026339560E+02 -0.15159818622E+03  0.19612069894E+03  0.77568636385E+02 0.  0.
          5    1    3    3  502    0 -0.61318279038E+02 -0.10436372679E+03 -0.52373877932E+03  0.53756498935E+03  0.47000000000E+01 0. -1.
        -13    1    4    4    0    0  0.44033632197E+02 -0.25209860274E+02 -0.16285817193E+03  0.17057925426E+03  0.00000000000E+00 0.  1.
         14    1    4    4    0    0 -0.11650666903E+02  0.76280616039E+01 -0.32527509141E+03  0.32557304934E+03  0.00000000000E+00 0. -1.
         -5    1    5    5    0  501  0.44535546069E+02  0.25919185900E+02 -0.28463222607E+03  0.28929710192E+03  0.47000000000E+01 0.  1.
         13    1    6    6    0    0 -0.24849684889E+02  0.10380369869E+03 -0.14974908914E+03  0.18389536264E+03  0.00000000000E+00 0. -1.
        -14    1    6    6    0    0  0.92494525643E+01 -0.77773591303E+01 -0.18490970796E+01  0.12225336306E+02  0.00000000000E+00 0.  1.
</event>
<event>
12    1  0.2609167E-002  0.1791691E+03  0.7818608E-02  0.1168610E+00
         -2   -1    0    0    0  501 -0.00000000000E+00  0.00000000000E+00  0.46559946449E+02  0.46559946449E+02  0.00000000000E+00 0.  1.
          2   -1    0    0  502    0  0.00000000000E+00 -0.00000000000E+00 -0.19698396303E+04  0.19698396303E+04  0.00000000000E+00 0. -1.
          6    2    1    2  502    0 -0.10703807913E+02  0.43410852690E+02 -0.14890075261E+03  0.23300255267E+03  0.17355022843E+03 0.  0.
         24    2    3    3    0    0  0.50975569477E+02  0.12258873626E+02 -0.39610275776E+02  0.10361441673E+03  0.80113574019E+02 0.  0.
         -6    2    1    2    0  501  0.10703807913E+02 -0.43410852690E+02 -0.17743789313E+04  0.17833970241E+04  0.17345108883E+03 0.  0.
        -24    2    5    5    0    0  0.44849709175E+02 -0.82004207671E+02 -0.10540854274E+04  0.10612473088E+04  0.80084802888E+02 0.  0.
          5    1    3    3  502    0 -0.61679377390E+02  0.31151979065E+02 -0.10929047683E+03  0.12938813594E+03  0.47000000000E+01 0. -1.
        -13    1    4    4    0    0 -0.21437578372E+02  0.90193364678E+01 -0.94102547998E+01  0.25089262488E+02  0.00000000000E+00 0.  1.
         14    1    4    4    0    0  0.72413147850E+02  0.32395371579E+01 -0.30200020976E+02  0.78525154247E+02  0.00000000000E+00 0. -1.
         -5    1    5    5    0  501 -0.34145901262E+02  0.38593354981E+02 -0.72029350390E+03  0.72214971535E+03  0.47000000000E+01 0.  1.
         11    1    6    6    0    0  0.50634554893E+02 -0.16610358179E+02 -0.61176744509E+03  0.61408400811E+03  0.00000000000E+00 0. -1.
        -12    1    6    6    0    0 -0.57848457186E+01 -0.65393849492E+02 -0.44231798228E+03  0.44716330064E+03  0.00000000000E+00 0.  1.
</event>
<event>
12    1  0.2609167E-002  0.2260188E+03  0.7818608E-02  0.1129474E+00
         -3   -1    0    0    0  501 -0.00000000000E+00  0.00000000000E+00  0.73683325829E+03  0.73683325829E+03  0.00000000000E+00 0. -1.
          3   -1    0    0  502    0  0.00000000000E+00 -0.00000000000E+00 -0.69621752613E+02  0.69621752613E+02  0.00000000000E+00 0.  1.
          6    2    1    2  502    0  0.14689973244E+03 -0.17654448054E+01  0.30440243370E+03  0.37776103997E+03  0.16870066238E+03 0.  0.
         24    2    3    3    0    0  0.15019226086E+03 -0.25893363054E+02  0.17206768491E+03  0.24312236455E+03  0.79202364090E+02 0.  0.
         -6    2    1    2    0  501 -0.14689973244E+03  0.17654448054E+01  0.36280907198E+03  0.42869397094E+03  0.17482977385E+03 0.  0.
        -24    2    5    5    0    0 -0.36170848323E+02 -0.33369879215E+02  0.24218831410E+03  0.26116237988E+03  0.84431807226E+02 0.  0.
          5    1    3    3  502    0 -0.32925284253E+01  0.24127918249E+02  0.13233474878E+03  0.13463867542E+03  0.47000000000E+01 0. -1.
        -11    1    4    4    0    0  0.79313835238E+01 -0.26712620254E+02  0.16811177892E+02  0.32543611163E+02  0.00000000000E+00 0.  1.
         12    1    4    4    0    0  0.14226087734E+03  0.81925719932E+00  0.15525650702E+03  0.21057875338E+03  0.00000000000E+00 0. -1.
         -5    1    5    5    0  501 -0.11072888411E+03  0.35135324020E+02  0.12062075788E+03  0.16753159106E+03  0.47000000000E+01 0.  1.
         11    1    6    6    0    0 -0.32178632465E+02  0.27959611678E+01  0.21034511529E+03  0.21281059492E+03  0.00000000000E+00 0. -1.
        -12    1    6    6    0    0 -0.39922158583E+01 -0.36165840382E+02  0.31843198812E+02  0.48351784957E+02  0.00000000000E+00 0.  1.
</event>
<event>
12    1  0.3054653E-002  0.1774684E+03  0.7818608E-02  0.1170276E+00
          2   -1    0    0  502    0  0.00000000000E+00  0.00000000000E+00  0.65921300818E+03  0.65921300818E+03  0.00000000000E+00 0.  1.
         -2   -1    0    0    0  501 -0.00000000000E+00 -0.00000000000E+00 -0.54430427637E+02  0.54430427637E+02  0.00000000000E+00 0. -1.
          6    2    1    2  502    0  0.92675121591E+01  0.56876399453E+02  0.42252677326E+03  0.45714242915E+03  0.16471039679E+03 0.  0.
         24    2    3    3    0    0  0.24742086302E+01  0.30441131549E+02  0.42057693973E+03  0.42937798763E+03  0.80917920364E+02 0.  0.
         -6    2    1    2    0  501 -0.92675121591E+01 -0.56876399453E+02  0.18225580728E+03  0.25650100667E+03  0.17104027461E+03 0.  0.
        -24    2    5    5    0    0 -0.59471856157E+02 -0.65409135308E+02  0.80469793817E+02  0.14258978565E+03  0.77725173514E+02 0.  0.
          5    1    3    3  502    0  0.67933035289E+01  0.26435267904E+02  0.19498335380E+01  0.27764441518E+02  0.47000000000E+01 0. -1.
        -11    1    4    4    0    0 -0.19192054791E+02  0.46700819699E+02  0.16995612502E+03  0.17729745052E+03  0.00000000000E+00 0.  1.
         12    1    4    4    0    0  0.21666263421E+02 -0.16259688150E+02  0.25062081470E+03  0.25208053711E+03  0.00000000000E+00 0. -1.
         -5    1    5    5    0  501  0.50204343998E+02  0.85327358552E+01  0.10178601346E+03  0.11391122102E+03  0.47000000000E+01 0.  1.
         11    1    6    6    0    0 -0.80780509269E+00 -0.22181011112E+02 -0.11702172819E+02  0.25091645057E+02  0.00000000000E+00 0. -1.
        -12    1    6    6    0    0 -0.58664051064E+02 -0.43228124197E+02  0.92171966636E+02  0.11749814059E+03  0.00000000000E+00 0.  1.
</event>
<event>
12    1  0.2609167E-002  0.2670762E+03  0.7818608E-02  0.1102965E+00
          2   -1    0    0  502    0  0.00000000000E+00  0.00000000000E+00  0.24468329475E+03  0.24468329475E+03  0.00000000000E+00 0. -1.
         -2   -1    0    0    0  501 -0.00000000000E+00 -0.00000000000E+00 -0.35380449103E+03  0.35380449103E+03  0.00000000000E+00 0.  1.
          6    2    1    2  502    0  0.75557928200E+02 -0.19049866685E+03 -0.18006535511E+03  0.32185486968E+03  0.17078724320E+03 0.  0.
         24    2    3    3    0    0 -0.10643380626E+01 -0.44478828003E+02 -0.24168762752E+02  0.94877772745E+02  0.80238168674E+02 0.  0.
         -6    2    1    2    0  501 -0.75557928200E+02  0.19049866685E+03  0.70944158834E+02  0.27663291611E+03  0.17173803893E+03 0.  0.
        -24    2    5    5    0    0 -0.35508794370E+02  0.19087176450E+03  0.19174802550E+02  0.21101105563E+03  0.80405768343E+02 0.  0.
          5    1    3    3  502    0  0.76622266263E+02 -0.14601983885E+03 -0.15589659236E+03  0.22697709693E+03  0.47000000000E+01 0. -1.
        -11    1    4    4    0    0  0.17940877980E+02 -0.34578904370E+02 -0.48661515932E+02  0.62333930270E+02  0.00000000000E+00 0.  1.
         12    1    4    4    0    0 -0.19005216042E+02 -0.98999236329E+01  0.24492753179E+02  0.32543842475E+02  0.00000000000E+00 0. -1.
         -5    1    5    5    0  501 -0.40049133830E+02 -0.37309765161E+00  0.51769356284E+02  0.65621860477E+02  0.47000000000E+01 0.  1.
         13    1    6    6    0    0 -0.19199407810E+02  0.33963968601E+02  0.35068612554E+02  0.52459279540E+02  0.00000000000E+00 0. -1.
        -14    1    6    6    0    0 -0.16309386560E+02  0.15690779590E+03 -0.15893810003E+02  0.15855177609E+03  0.00000000000E+00 0.  1.
</event>
<event>
12    1  0.2609167E-002  0.1882727E+03  0.7818608E-02  0.1160029E+00
          2   -1    0    0  502    0  0.00000000000E+00  0.00000000000E+00  0.10582761622E+04  0.10582761622E+04  0.00000000000E+00 0. -1.
         -2   -1    0    0    0  501 -0.00000000000E+00 -0.00000000000E+00 -0.81515938127E+02  0.81515938127E+02  0.00000000000E+00 0.  1.
          6    2    1    2  502    0 -0.31397364027E+02  0.71340684654E+02  0.92349127040E+03  0.94206672508E+03  0.16905117642E+03 0.  0.
         24    2    3    3    0    0 -0.12222733455E+02  0.50870091431E+02  0.24818377135E+03  0.26616065178E+03  0.80679283484E+02 0.  0.
         -6    2    1    2    0  501  0.31397364027E+02 -0.71340684654E+02  0.53268953669E+02  0.19772537524E+03  0.17373098409E+03 0.  0.
        -24    2    5    5    0    0 -0.20680690583E+02 -0.62976901490E+02  0.85498608938E+02  0.13573410715E+03  0.81975329391E+02 0.  0.
          5    1    3    3  502    0 -0.19174630571E+02  0.20470593223E+02  0.67530749905E+03  0.67590607330E+03  0.47000000000E+01 0. -1.
        -13    1    4    4    0    0  0.17209294791E+02  0.56241691635E+02  0.10960069029E+03  0.12438488259E+03  0.00000000000E+00 0.  1.
         14    1    4    4    0    0 -0.29432028246E+02 -0.53716002038E+01  0.13858308105E+03  0.14177576919E+03  0.00000000000E+00 0. -1.
         -5    1    5    5    0  501  0.52078054609E+02 -0.83637831639E+01 -0.32229655269E+02  0.61991268090E+02  0.47000000000E+01 0.  1.
         11    1    6    6    0    0 -0.20166424004E+02 -0.42748400502E+02  0.10015547865E+03  0.11074850025E+03  0.00000000000E+00 0. -1.
        -12    1    6    6    0    0 -0.51426657878E+00 -0.20228500988E+02 -0.14656869716E+02  0.24985606901E+02  0.00000000000E+00 0.  1.
</event>
<event>
12    1  0.2609167E-002  0.1894116E+03  0.7818608E-02  0.1158993E+00
         -1   -1    0    0    0  501 -0.00000000000E+00  0.00000000000E+00  0.12047436687E+03  0.12047436687E+03  0.00000000000E+00 0. -1.
          1   -1    0    0  502    0  0.00000000000E+00 -0.00000000000E+00 -0.33215263161E+03  0.33215263161E+03  0.00000000000E+00 0.  1.
          6    2    1    2  502    0 -0.44546815587E+02  0.70353769504E+02 -0.17738965734E+03  0.25780105347E+03  0.16751185324E+03 0.  0.
         24    2    3    3    0    0  0.24220134183E+02  0.73329241596E+02 -0.14062871965E+03  0.17962686748E+03  0.80781075503E+02 0.  0.
         -6    2    1    2    0  501  0.44546815587E+02 -0.70353769504E+02 -0.34288607395E+02  0.19482594500E+03  0.17276390997E+03 0.  0.
        -24    2    5    5    0    0  0.47150102296E+02 -0.65612588711E+02  0.40722197887E+02  0.11947366033E+03  0.78022523459E+02 0.  0.
          5    1    3    3  502    0 -0.68766949770E+02 -0.29754720917E+01 -0.36760937694E+02  0.78174185988E+02  0.47000000000E+01 0. -1.
        -13    1    4    4    0    0  0.12680914035E+02  0.74645671136E+02 -0.14773780239E+03  0.16600975891E+03  0.00000000000E+00 0.  1.
         14    1    4    4    0    0  0.11539220148E+02 -0.13164295395E+01  0.71090827414E+01  0.13617108569E+02  0.00000000000E+00 0. -1.
         -5    1    5    5    0  501 -0.26032867090E+01 -0.47411807933E+01 -0.75010805282E+02  0.75352284677E+02  0.47000000000E+01 0.  1.
         13    1    6    6    0    0  0.30082239920E+02  0.90077714340E+01  0.27604960255E+02  0.41810464425E+02  0.00000000000E+00 0. -1.
        -14    1    6    6    0    0  0.17067862376E+02 -0.74620360145E+02  0.13117237632E+02  0.77663195900E+02  0.00000000000E+00 0.  1.
</event>
<event>
12    1  0.2609167E-002  0.1774641E+03  0.7818608E-02  0.1170280E+00
         -1   -1    0    0    0  501 -0.00000000000E+00  0.00000000000E+00  0.44548292349E+02  0.44548292349E+02  0.00000000000E+00 0. -1.
          1   -1    0    0  502    0  0.00000000000E+00 -0.00000000000E+00 -0.79411340307E+03  0.79411340307E+03  0.00000000000E+00 0.  1.
          6    2    1    2  502    0 -0.34809294919E+02 -0.15966558176E+02 -0.51658654437E+03  0.54672912930E+03  0.17488414738E+03 0.  0.
         24    2    3    3    0    0  0.88071324901E+01 -0.13094869978E+02 -0.48695911983E+03  0.49371485181E+03  0.79850668781E+02 0.  0.
         -6    2    1    2    0  501  0.34809294919E+02  0.15966558176E+02 -0.23297856635E+03  0.29193256613E+03  0.17169447513E+03 0.  0.
        -24    2    5    5    0    0  0.30081671238E+02 -0.10150001356E+02 -0.38746088623E+02  0.95838786231E+02  0.81706083559E+02 0.  0.
          5    1    3    3  502    0 -0.43616427409E+02 -0.28716881983E+01 -0.29627424538E+02  0.53014277490E+02  0.47000000000E+01 0. -1.
        -13    1    4    4    0    0 -0.19337615257E+02 -0.30273275443E+02 -0.38231157052E+03  0.38399550977E+03  0.00000000000E+00 0.  1.
         14    1    4    4    0    0  0.28144747747E+02  0.17178405465E+02 -0.10464754931E+03  0.10971934204E+03  0.00000000000E+00 0. -1.
         -5    1    5    5    0  501  0.47276236810E+01  0.26116559532E+02 -0.19423247773E+03  0.19609377989E+03  0.47000000000E+01 0.  1.
         11    1    6    6    0    0 -0.32209014361E+01  0.32087123329E+02 -0.23595416483E+02  0.39958745834E+02  0.00000000000E+00 0. -1.
        -12    1    6    6    0    0  0.33302572674E+02 -0.42237124686E+02 -0.15150672140E+02  0.55880040397E+02  0.00000000000E+00 0.  1.
</event>
<event>
12    1  0.2609167E-002  0.2598302E+03  0.7818608E-02  0.1107245E+00
          1   -1    0    0  502    0  0.00000000000E+00  0.00000000000E+00  0.34161096275E+03  0.34161096275E+03  0.00000000000E+00 0.  1.
         -1   -1    0    0    0  501 -0.00000000000E+00 -0.00000000000E+00 -0.19779664623E+03  0.19779664623E+03  0.00000000000E+00 0. -1.
          6    2    1    2  502    0  0.18618340900E+03  0.29339846107E+02  0.67491936182E+02  0.27345589003E+03  0.18627365350E+03 0.  0.
         24    2    3    3    0    0  0.17155318070E+03 -0.40155039552E+02  0.61861490083E+02  0.20205998934E+03  0.77191154455E+02 0.  0.
         -6    2    1    2    0  501 -0.18618340900E+03 -0.29339846107E+02  0.76322380340E+02  0.26595171895E+03  0.17140630886E+03 0.  0.
        -24    2    5    5    0    0 -0.34581733035E+02  0.11445587465E+02  0.64069680209E+02  0.10841207820E+03  0.79506962250E+02 0.  0.
          5    1    3    3  502    0  0.14630228302E+02  0.69494885659E+02  0.56304460996E+01  0.71395900696E+02  0.47000000000E+01 0. -1.
        -11    1    4    4    0    0  0.28090086527E+02  0.58348484589E+01  0.40893130145E+02  0.49953443431E+02  0.00000000000E+00 0.  1.
         12    1    4    4    0    0  0.14346309417E+03 -0.45989888011E+02  0.20968359938E+02  0.15210654590E+03  0.00000000000E+00 0. -1.
         -5    1    5    5    0  501 -0.15160167597E+03 -0.40785433571E+02  0.12252700132E+02  0.15753964075E+03  0.47000000000E+01 0.  1.
         11    1    6    6    0    0 -0.23222610986E+01 -0.29726934710E+02  0.62894479049E+01  0.30473606593E+02  0.00000000000E+00 0. -1.
        -12    1    6    6    0    0 -0.32259471936E+02  0.41172522174E+02  0.57780232304E+02  0.77938471610E+02  0.00000000000E+00 0.  1.
</event>
<event>
12    1  0.2609167E-002  0.1909122E+03  0.7818608E-02  0.1157641E+00
         -3   -1    0    0    0  501 -0.00000000000E+00  0.00000000000E+00  0.17450670146E+03  0.17450670146E+03  0.00000000000E+00 0.  1.
          3   -1    0    0  502    0  0.00000000000E+00 -0.00000000000E+00 -0.22200802319E+03  0.22200802319E+03  0.00000000000E+00 0. -1.
          6    2    1    2  502    0  0.54654790371E+02  0.57760216510E+02 -0.71739520305E+02  0.20219905051E+03  0.17150658452E+03 0.  0.
         24    2    3    3    0    0 -0.36699892233E+02  0.17446214098E+02 -0.20004866230E+02  0.89640349132E+02  0.77355963204E+02 0.  0.
         -6    2    1    2    0  501 -0.54654790371E+02 -0.57760216510E+02  0.24238198577E+02  0.19431567414E+03  0.17563513949E+03 0.  0.
        -24    2    5    5    0    0 -0.53027282291E+02  0.19913446273E+02  0.40552077666E+02  0.11479159399E+03  0.91237059562E+02 0.  0.
          5    1    3    3  502    0  0.91354682604E+02  0.40314002412E+02 -0.51734654075E+02  0.11255870138E+03  0.47000000000E+01 0. -1.
        -13    1    4    4    0    0 -0.29687057725E+01 -0.84473013765E+01  0.25698630791E+02  0.27213778478E+02  0.00000000000E+00 0.  1.
         14    1    4    4    0    0 -0.33731186461E+02  0.25893515475E+02 -0.45703497021E+02  0.62426570654E+02  0.00000000000E+00 0. -1.
         -5    1    5    5    0  501 -0.16275080799E+01 -0.77673662783E+02 -0.16313879089E+02  0.79524080149E+02  0.47000000000E+01 0.  1.
         13    1    6    6    0    0  0.10950890469E+02 -0.22892970184E+02 -0.42416640382E+01  0.25729395635E+02  0.00000000000E+00 0. -1.
        -14    1    6    6    0    0 -0.63978172760E+02  0.42806416457E+02  0.44793741704E+02  0.89062198353E+02  0.00000000000E+00 0.  1.
</event>
<event>
12    1  0.2609167E-002  0.2613062E+03  0.7818608E-02  0.1106361E+00
          1   -1    0    0  502    0  0.00000000000E+00  0.00000000000E+00  0.16460454676E+04  0.16460454676E+04  0.00000000000E+00 0. -1.
         -1   -1    0    0    0  501 -0.00000000000E+00 -0.00000000000E+00 -0.44301532789E+02  0.44301532789E+02  0.00000000000E+00 0.  1.
          6    2    1    2  502    0  0.19267025769E+03  0.41823530860E+02  0.58588529928E+03  0.64126518916E+03  0.17055328491E+03 0.  0.
         24    2    3    3    0    0  0.19228271663E+03  0.13223509263E+02  0.57149404852E+03  0.60890302728E+03  0.83725413254E+02 0.  0.
         -6    2    1    2    0  501 -0.19267025769E+03 -0.41823530860E+02  0.10158586355E+04  0.10490818112E+04  0.17243214121E+03 0.  0.
        -24    2    5    5    0    0 -0.32115431883E+02 -0.42652538153E+02  0.49167957467E+03  0.50084434699E+03  0.79029208456E+02 0.  0.
          5    1    3    3  502    0  0.38754106123E+00  0.28600021597E+02  0.14391250754E+02  0.32362161882E+02  0.47000000000E+01 0. -1.
        -13    1    4    4    0    0  0.43469165253E+02  0.18726665840E+02  0.61454449782E+02  0.77568716241E+02  0.00000000000E+00 0.  1.
         14    1    4    4    0    0  0.14881355137E+03 -0.55031565767E+01  0.51003959874E+03  0.53133431104E+03  0.00000000000E+00 0. -1.
         -5    1    5    5    0  501 -0.16055482580E+03  0.82900729224E+00  0.52417906088E+03  0.54823746425E+03  0.47000000000E+01 0.  1.
         13    1    6    6    0    0 -0.14606816448E+01  0.62275608102E+01  0.31330803987E+03  0.31337333000E+03  0.00000000000E+00 0. -1.
        -14    1    6    6    0    0 -0.30654750239E+02 -0.48880098963E+02  0.17837153480E+03  0.18747101699E+03  0.00000000000E+00 0.  1.
</event>
<event>
12    1  0.2609167E-002  0.1918483E+03  0.7818608E-02  0.1156805E+00
         -2   -1    0    0    0  501 -0.00000000000E+00  0.00000000000E+00  0.18524757899E+03  0.18524757899E+03  0.00000000000E+00 0. -1.
          2   -1    0    0  502    0  0.00000000000E+00 -0.00000000000E+00 -0.22673773982E+03  0.22673773982E+03  0.00000000000E+00 0.  1.
          6    2    1    2  502    0 -0.97766533576E+01 -0.85210963866E+02 -0.93065781233E+02  0.21206183549E+03  0.17015431561E+03 0.  0.
         24    2    3    3    0    0  0.21566226775E+02 -0.16054038106E+02 -0.10568593551E+03  0.13494883523E+03  0.79491112006E+02 0.  0.
         -6    2    1    2    0  501  0.97766533576E+01  0.85210963866E+02  0.51575620400E+02  0.19992348332E+03  0.17306895519E+03 0.  0.
        -24    2    5    5    0    0 -0.27193808298E+02  0.16838156427E+02  0.78099302910E+02  0.11766017700E+03  0.81984080261E+02 0.  0.
          5    1    3    3  502    0 -0.31342880133E+02 -0.69156925760E+02  0.12620154273E+02  0.77113000263E+02  0.47000000000E+01 0. -1.
        -11    1    4    4    0    0  0.28995214650E+02 -0.33330586947E+02 -0.10733469129E+03  0.11607060977E+03  0.00000000000E+00 0.  1.
         12    1    4    4    0    0 -0.74289878746E+01  0.17276548841E+02  0.16487557804E+01  0.18878225455E+02  0.00000000000E+00 0. -1.
         -5    1    5    5    0  501  0.36970461656E+02  0.68372807439E+02 -0.26523682509E+02  0.82263306316E+02  0.47000000000E+01 0.  1.
         13    1    6    6    0    0  0.29561753345E+02  0.44083210561E+01  0.27490652468E+02  0.40608700158E+02  0.00000000000E+00 0. -1.
        -14    1    6    6    0    0 -0.56755561644E+02  0.12429835371E+02  0.50608650442E+02  0.77051476847E+02  0.00000000000E+00 0.  1.
</event>
<event>
12    1  0.2609167E-002  0.2211244E+03  0.7818608E-02  0.1133048E+00
         -2   -1    0    0    0  501 -0.00000000000E+00  0.00000000000E+00  0.61664780482E+03  0.61664780482E+03  0.00000000000E+00 0.  1.
          2   -1    0    0  502    0  0.00000000000E+00 -0.00000000000E+00 -0.79297337681E+02  0.79297337681E+02  0.00000000000E+00 0. -1.
          6    2    1    2  502    0 -0.13651663033E+03  0.23081218058E+02  0.27082815326E+03  0.34947261403E+03  0.17208627596E+03 0.  0.
         24    2    3    3    0    0 -0.16245605610E+03 -0.41654021986E+01  0.20861119633E+03  0.27661472596E+03  0.81164984086E+02 0.  0.
         -6    2    1    2    0  501  0.13651663033E+03 -0.23081218058E+02  0.26652231388E+03  0.34647252847E+03  0.17274124060E+03 0.  0.
        -24    2    5    5    0    0  0.10366337691E+03 -0.79915530628E+02  0.16301241376E+03  0.22381094211E+03  0.79910593922E+02 0.  0.
          5    1    3    3  502    0  0.25939425771E+02  0.27246620256E+02  0.62216956930E+02  0.72857888072E+02  0.47000000000E+01 0. -1.
        -13    1    4    4    0    0 -0.22880101828E+02  0.17920701462E+02  0.81566327128E+02  0.86589354552E+02  0.00000000000E+00 0.  1.
         14    1    4    4    0    0 -0.13957595428E+03 -0.22086103661E+02  0.12704486920E+03  0.19002537140E+03  0.00000000000E+00 0. -1.
         -5    1    5    5    0  501  0.32853253426E+02  0.56834312571E+02  0.10350990011E+03  0.12266158636E+03  0.47000000000E+01 0.  1.
         13    1    6    6    0    0  0.57142733597E+02 -0.26807816075E+01  0.34431907289E+02  0.66768516777E+02  0.00000000000E+00 0. -1.
        -14    1    6    6    0    0  0.46520643310E+02 -0.77234749021E+02  0.12858050647E+03  0.15704242534E+03  0.00000000000E+00 0.  1.
</event>
<event>
12    1  0.2609167E-002  0.2362004E+03  0.7818608E-02  0.1122350E+00
         -2   -1    0    0    0  501 -0.00000000000E+00  0.00000000000E+00  0.33375857706E+02  0.33375857706E+02  0.00000000000E+00 0. -1.
          2   -1    0    0  502    0  0.00000000000E+00 -0.00000000000E+00 -0.21443410170E+04  0.21443410170E+04  0.00000000000E+00 0.  1.
          6    2    1    2  502    0 -0.52499928980E+02  0.15566606285E+03 -0.15619609725E+04  0.15795166647E+04  0.16781730758E+03 0.  0.
         24    2    3    3    0    0 -0.91034304400E+02  0.10294233507E+03 -0.86756219718E+03  0.88203803510E+03  0.80265562066E+02 0.  0.
         -6    2    1    2    0  501  0.52499928980E+02 -0.15566606285E+03 -0.54900418678E+03  0.59820021001E+03  0.17160923195E+03 0.  0.
        -24    2    5    5    0    0  0.61705239608E+02 -0.24385421259E+02 -0.19792258332E+03  0.22323390901E+03  0.79106534355E+02 0.  0.
          5    1    3    3  502    0  0.38534375419E+02  0.52723727784E+02 -0.69439877536E+03  0.69747862962E+03  0.47000000000E+01 0. -1.
        -11    1    4    4    0    0 -0.77344410702E+02  0.10536726444E+03 -0.84813987926E+03  0.85815247659E+03  0.00000000000E+00 0.  1.
         12    1    4    4    0    0 -0.13689893698E+02 -0.24249293707E+01 -0.19422317924E+02  0.23885558512E+02  0.00000000000E+00 0. -1.
         -5    1    5    5    0  501 -0.92053106273E+01 -0.13128064159E+03 -0.35108160346E+03  0.37496630100E+03  0.47000000000E+01 0.  1.
         13    1    6    6    0    0  0.76804742135E+02 -0.29111188286E+02 -0.18629733942E+03  0.20360041349E+03  0.00000000000E+00 0. -1.
        -14    1    6    6    0    0 -0.15099502527E+02  0.47257670272E+01 -0.11625243902E+02  0.19633495520E+02  0.00000000000E+00 0.  1.
</event>
<event>
12    1  0.2609167E-002  0.2049440E+03  0.7818608E-02  0.1145634E+00
          1   -1    0    0  502    0  0.00000000000E+00  0.00000000000E+00  0.26178054994E+03  0.26178054994E+03  0.00000000000E+00 0. -1.
         -1   -1    0    0    0  501 -0.00000000000E+00 -0.00000000000E+00 -0.20828545247E+03  0.20828545247E+03  0.00000000000E+00 0.  1.
          6    2    1    2  502    0 -0.62782779230E+02  0.72514225869E+02  0.13785093929E+03  0.23905182880E+03  0.17012614457E+03 0.  0.
         24    2    3    3    0    0 -0.68945182970E+02  0.25503284418E+02  0.24387392663E+01  0.95501984662E+02  0.60916548280E+02 0.  0.
         -6    2    1    2    0  501  0.62782779230E+02 -0.72514225869E+02 -0.84355841822E+02  0.23101417361E+03  0.19248805168E+03 0.  0.
        -24    2    5    5    0    0  0.93773591466E+02 -0.91562190093E+02 -0.10292414723E+02  0.14836590311E+03  0.68770533610E+02 0.  0.
          5    1    3    3  502    0  0.61624037397E+01  0.47010941450E+02  0.13541220002E+03  0.14354984413E+03  0.47000000000E+01 0. -1.
        -13    1    4    4    0    0 -0.22114592622E+02 -0.48016900364E+00 -0.26587559451E+02  0.34585894331E+02  0.00000000000E+00 0.  1.
         14    1    4    4    0    0 -0.46830590348E+02  0.25983453422E+02  0.29026298717E+02  0.60916090332E+02  0.00000000000E+00 0. -1.
         -5    1    5    5    0  501 -0.30990812236E+02  0.19047964224E+02 -0.74063427098E+02  0.82648270506E+02  0.47000000000E+01 0.  1.
         11    1    6    6    0    0  0.65205551537E+02 -0.47926283381E+02  0.25802792995E+02  0.84938075775E+02  0.00000000000E+00 0. -1.
        -12    1    6    6    0    0  0.28568039929E+02 -0.43635906712E+02 -0.36095207718E+02  0.63427827333E+02  0.00000000000E+00 0.  1.
</event>
<event>
12    1  0.2609167E-002  0.1824424E+03  0.7818608E-02  0.1165460E+00
          1   -1    0    0  502    0  0.00000000000E+00  0.00000000000E+00  0.17480749278E+03  0.17480749278E+03  0.00000000000E+00 0. -1.
         -1   -1    0    0    0  501 -0.00000000000E+00 -0.00000000000E+00 -0.41309765513E+03  0.41309765513E+03  0.00000000000E+00 0.  1.
          6    2    1    2  502    0  0.39875459616E+02  0.47327889050E+02  0.96698329738E+02  0.20642508699E+03  0.17155398044E+03 0.  0.
         24    2    3    3    0    0  0.29604050495E+02  0.68871826222E+02 -0.68257642618E+01  0.10008144067E+03  0.65954343724E+02 0.  0.
         -6    2    1    2    0  501 -0.39875459616E+02 -0.47327889050E+02 -0.33498849208E+03  0.38148006092E+03  0.17169672592E+03 0.  0.
        -24    2    5    5    0    0  0.15203541040E+01 -0.66596090066E+02 -0.31359353287E+03  0.33083708269E+03  0.81700188125E+02 0.  0.
          5    1    3    3  502    0  0.10271409121E+02 -0.21543937172E+02  0.10352409400E+03  0.10634364632E+03  0.47000000000E+01 0. -1.
        -11    1    4    4    0    0  0.79869809892E+01  0.35271029918E+01 -0.26985019923E+02  0.28362362756E+02  0.00000000000E+00 0.  1.
         12    1    4    4    0    0  0.21617069506E+02  0.65344723230E+02  0.20159255662E+02  0.71719077914E+02  0.00000000000E+00 0. -1.
         -5    1    5    5    0  501 -0.41395813720E+02  0.19268201016E+02 -0.21394959217E+02  0.50642978229E+02  0.47000000000E+01 0.  1.
         13    1    6    6    0    0  0.39254373332E+02 -0.22926370573E+02 -0.17265902683E+03  0.17854317080E+03  0.00000000000E+00 0. -1.
        -14    1    6    6    0    0 -0.37734019228E+02 -0.43669719493E+02 -0.14093450604E+03  0.15229391189E+03  0.00000000000E+00 0.  1.
</event>
<event>
12    1  0.2609167E-002  0.2030775E+03  0.7818608E-02  0.1147168E+00
         -2   -1    0    0    0  501 -0.00000000000E+00  0.00000000000E+00  0.14443017832E+03  0.14443017832E+03  0.00000000000E+00 0.  1.
          2   -1    0    0  502    0  0.00000000000E+00 -0.00000000000E+00 -0.32634022862E+03  0.32634022862E+03  0.00000000000E+00 0. -1.
          6    2    1    2  502    0 -0.46354827499E+01  0.10932633582E+03 -0.75798566254E+01  0.20284639693E+03  0.17063256172E+03 0.  0.
         24    2    3    3    0    0 -0.84875318290E+00  0.23306369878E+02  0.51019218992E+02  0.98588469061E+02  0.81072919439E+02 0.  0.
         -6    2    1    2    0  501  0.46354827499E+01 -0.10932633582E+03 -0.17433019367E+03  0.26792401001E+03  0.17151828856E+03 0.  0.
        -24    2    5    5    0    0 -0.67313473238E+01 -0.33405475280E+02 -0.16960910299E+03  0.19086844182E+03  0.80636700407E+02 0.  0.
          5    1    3    3  502    0 -0.37867295670E+01  0.86019965940E+02 -0.58599075617E+02  0.10425792787E+03  0.47000000000E+01 0. -1.
        -11    1    4    4    0    0  0.22437525710E+02  0.46313462474E+02  0.28172174034E+02  0.58668993141E+02  0.00000000000E+00 0.  1.
         12    1    4    4    0    0 -0.23286278893E+02 -0.23007092596E+02  0.22847044958E+02  0.39919475920E+02  0.00000000000E+00 0. -1.
         -5    1    5    5    0  501  0.11366830074E+02 -0.75920860538E+02 -0.47210906788E+01  0.77055568183E+02  0.47000000000E+01 0.  1.
         11    1    6    6    0    0 -0.19056632055E+02  0.21647403307E+02 -0.79350156310E+02  0.84428742746E+02  0.00000000000E+00 0. -1.
        -12    1    6    6    0    0  0.12325284731E+02 -0.55052878587E+02 -0.90258946676E+02  0.10643969908E+03  0.00000000000E+00 0.  1.
</event>
<event>
12    1  0.2609167E-002  0.1801522E+03  0.7818608E-02  0.1167656E+00
         -2   -1    0    0    0  501 -0.00000000000E+00  0.00000000000E+00  0.17541643192E+02  0.17541643192E+02  0.00000000000E+00 0.  1.
          2   -1    0    0  502    0  0.00000000000E+00 -0.00000000000E+00 -0.26870964714E+04  0.26870964714E+04  0.00000000000E+00 0. -1.
          6    2    1    2  502    0  0.33281805023E+02  0.44321199578E+02 -0.20881843567E+04  0.20959190019E+04  0.17114469784E+03 0.  0.
         24    2    3    3    0    0  0.53092505010E+02 -0.29942030353E+02 -0.13624176715E+04  0.13660787026E+04  0.79207138100E+02 0.  0.
         -6    2    1    2    0  501 -0.33281805023E+02 -0.44321199578E+02 -0.58137047152E+03  0.60871911272E+03  0.17168367937E+03 0.  0.
        -24    2    5    5    0    0  0.10136914456E+02  0.37628712675E+02 -0.31308135467E+03  0.32481399910E+03  0.77236793814E+02 0.  0.
          5    1    3    3  502    0 -0.19810699987E+02  0.74263229931E+02 -0.72576668519E+03  0.72984029930E+03  0.47000000000E+01 0. -1.
        -13    1    4    4    0    0  0.44982053969E+02  0.48175001342E+00 -0.31583561328E+03  0.31902312123E+03  0.00000000000E+00 0.  1.
         14    1    4    4    0    0  0.81104510411E+01 -0.30423780366E+02 -0.10465820582E+04  0.10470555813E+04  0.00000000000E+00 0. -1.
         -5    1    5    5    0  501 -0.43418719479E+02 -0.81949912253E+02 -0.26828911685E+03  0.28390511362E+03  0.47000000000E+01 0.  1.
         11    1    6    6    0    0  0.27124004024E+02  0.23480540825E+02 -0.54244131613E+02  0.65034400176E+02  0.00000000000E+00 0. -1.
        -12    1    6    6    0    0 -0.16987089568E+02  0.14148171850E+02 -0.25883722306E+03  0.25977959893E+03  0.00000000000E+00 0.  1.
</event>
<event>
12    1  0.2609167E-002  0.1764157E+03  0.7818608E-02  0.1171318E+00
         -1   -1    0    0    0  501 -0.00000000000E+00  0.00000000000E+00  0.14424691631E+03  0.14424691631E+03  0.00000000000E+00 0.  1.
          1   -1    0    0  502    0  0.00000000000E+00 -0.00000000000E+00 -0.22568246231E+03  0.22568246231E+03  0.00000000000E+00 0. -1.
          6    2    1    2  502    0 -0.28458604492E+02  0.19675990403E+02 -0.79879445048E+02  0.19543712374E+03  0.17497973262E+03 0.  0.
         24    2    3    3    0    0 -0.40721370356E+02  0.63076771988E+02 -0.10171744047E+02  0.11227910039E+03  0.82862674588E+02 0.  0.
         -6    2    1    2    0  501  0.28458604492E+02 -0.19675990403E+02 -0.15561009557E+01  0.17449225488E+03  0.17102072621E+03 0.  0.
        -24    2    5    5    0    0  0.57847152150E+02 -0.64649221202E+02  0.13409348886E+02  0.11852500632E+03  0.79640138573E+02 0.  0.
          5    1    3    3  502    0  0.12262765864E+02 -0.43400781585E+02 -0.69707701002E+02  0.83158023352E+02  0.47000000000E+01 0. -1.
        -13    1    4    4    0    0  0.80694143637E+01  0.46095035634E+02  0.21694295594E+02  0.51580133963E+02  0.00000000000E+00 0.  1.
         14    1    4    4    0    0 -0.48790784720E+02  0.16981736354E+02 -0.31866039641E+02  0.60698966429E+02  0.00000000000E+00 0. -1.
         -5    1    5    5    0  501 -0.29388547658E+02  0.44973230799E+02 -0.14965449841E+02  0.55967248556E+02  0.47000000000E+01 0.  1.
         11    1    6    6    0    0  0.48490874730E+02 -0.56557772617E+02  0.43305104585E+02  0.86171217112E+02  0.00000000000E+00 0. -1.
        -12    1    6    6    0    0  0.93562774201E+01 -0.80914485851E+01 -0.29895755699E+02  0.32353789209E+02  0.00000000000E+00 0.  1.
</event>
<event>
12    1  0.2609167E-002  0.3524447E+03  0.7818608E-02  0.1061616E+00
          2   -1    0    0  502    0  0.00000000000E+00  0.00000000000E+00  0.30441506681E+04  0.30441506681E+04  0.00000000000E+00 0. -1.
         -2   -1    0    0    0  501 -0.00000000000E+00 -0.00000000000E+00 -0.18594738331E+03  0.18594738331E+03  0.00000000000E+00 0.  1.
          6    2    1    2  502    0 -0.30661579788E+03 -0.24822960170E+02  0.28557920188E+04  0.28774320683E+04  0.17157455077E+03 0.  0.
         24    2    3    3    0    0 -0.23034367773E+03 -0.31946178370E+02  0.25615406827E+04  0.25733364990E+04  0.80568600386E+02 0.  0.
         -6    2    1    2    0  501  0.30661579788E+03  0.24822960170E+02  0.24112659787E+01  0.35266598304E+03  0.17244725144E+03 0.  0.
        -24    2    5    5    0    0  0.15847828062E+03 -0.35155727347E+02  0.45141978065E+02  0.18716622252E+03  0.81499117026E+02 0.  0.
          5    1    3    3  502    0 -0.76272120146E+02  0.71232182008E+01  0.29425133604E+03  0.30409556937E+03  0.47000000000E+01 0. -1.
        -13    1    4    4    0    0 -0.34612420037E+02 -0.35291280385E+02  0.61139886813E+03  0.61339389469E+03  0.00000000000E+00 0.  1.
         14    1    4    4    0    0 -0.19573125770E+03  0.33451020147E+01  0.19501418146E+04  0.19599426043E+04  0.00000000000E+00 0. -1.
         -5    1    5    5    0  501  0.14813751726E+03  0.59978687517E+02 -0.42730712087E+02  0.16549976052E+03  0.47000000000E+01 0.  1.
         13    1    6    6    0    0 -0.29691913833E+01 -0.10695793418E+02 -0.98750323624E+01  0.14857064261E+02  0.00000000000E+00 0. -1.
        -14    1    6    6    0    0  0.16144747201E+03 -0.24459933929E+02  0.55017010428E+02  0.17230915826E+03  0.00000000000E+00 0.  1.
</event>
<event>
12    1  0.2609167E-002  0.1730005E+03  0.7818608E-02  0.1174754E+00
         -1   -1    0    0    0  501 -0.00000000000E+00  0.00000000000E+00  0.47458874886E+02  0.47458874886E+02  0.00000000000E+00 0. -1.
          1   -1    0    0  502    0  0.00000000000E+00 -0.00000000000E+00 -0.15067486289E+04  0.15067486289E+04  0.00000000000E+00 0.  1.
          6    2    1    2  502    0  0.55804447034E+01  0.75418736341E+01 -0.13737851127E+03  0.22104611970E+03  0.17291764067E+03 0.  0.
         24    2    3    3    0    0  0.26543023195E+02 -0.44785589616E+02 -0.31713289793E+02  0.10119278376E+03  0.80771069184E+02 0.  0.
         -6    2    1    2    0  501 -0.55804447034E+01 -0.75418736341E+01 -0.13219112428E+04  0.13331613841E+04  0.17257439297E+03 0.  0.
        -24    2    5    5    0    0 -0.38158356326E+02  0.27040939054E+02 -0.11777096765E+04  0.11812618351E+04  0.78690333154E+02 0.  0.
          5    1    3    3  502    0 -0.20962578491E+02  0.52327463250E+02 -0.10566522148E+03  0.11985333595E+03  0.47000000000E+01 0. -1.
        -13    1    4    4    0    0  0.48573284898E+02 -0.27428916862E+02  0.38332843816E+01  0.55914251808E+02  0.00000000000E+00 0.  1.
         14    1    4    4    0    0 -0.22030261703E+02 -0.17356672753E+02 -0.35546574175E+02  0.45278531948E+02  0.00000000000E+00 0. -1.
         -5    1    5    5    0  501  0.32577911623E+02 -0.34582812688E+02 -0.14420156630E+03  0.15189954899E+03  0.47000000000E+01 0.  1.
         13    1    6    6    0    0  0.22574749605E+02  0.19189074147E+02 -0.45406487537E+03  0.45503049451E+03  0.00000000000E+00 0. -1.
        -14    1    6    6    0    0 -0.60733105931E+02  0.78518649062E+01 -0.72364480109E+03  0.72623134061E+03  0.00000000000E+00 0.  1.
</event>
<event>
12    1  0.2609167E-002  0.2386763E+03  0.7818608E-02  0.1120678E+00
         -1   -1    0    0    0  501 -0.00000000000E+00  0.00000000000E+00  0.67924469835E+02  0.67924469835E+02  0.00000000000E+00 0.  1.
          1   -1    0    0  502    0  0.00000000000E+00 -0.00000000000E+00 -0.91055086184E+03  0.91055086184E+03  0.00000000000E+00 0. -1.
          6    2    1    2  502    0 -0.98037755851E+02  0.13221636351E+03 -0.55887442023E+03  0.60773159798E+03  0.17292920298E+03 0.  0.
         24    2    3    3    0    0 -0.10506400466E+03  0.24347135124E+02 -0.31309579661E+03  0.33919042715E+03  0.73416210384E+02 0.  0.
         -6    2    1    2    0  501  0.98037755851E+02 -0.13221636351E+03 -0.28375197178E+03  0.37074373370E+03  0.17275174741E+03 0.  0.
        -24    2    5    5    0    0  0.12899737892E+03 -0.99579151780E+02 -0.26616500096E+03  0.32221459407E+03  0.80138041281E+02 0.  0.
          5    1    3    3  502    0  0.70262488136E+01  0.10786922839E+03 -0.24577862362E+03  0.26854117083E+03  0.47000000000E+01 0. -1.
        -13    1    4    4    0    0 -0.60901362453E+02  0.85134370278E+01 -0.77318038738E+02  0.98790352125E+02  0.00000000000E+00 0.  1.
         14    1    4    4    0    0 -0.44162642212E+02  0.15833698097E+02 -0.23577775787E+03  0.24040007502E+03  0.00000000000E+00 0. -1.
         -5    1    5    5    0  501 -0.30959623067E+02 -0.32637211733E+02 -0.17586970819E+02  0.48529139625E+02  0.47000000000E+01 0.  1.
         13    1    6    6    0    0 -0.39732630762E+01 -0.10933774435E+02  0.14491198867E+00  0.11634227192E+02  0.00000000000E+00 0. -1.
        -14    1    6    6    0    0  0.13297064199E+03 -0.88645377345E+02 -0.26630991295E+03  0.31058036688E+03  0.00000000000E+00 0.  1.
</event>
<event>
12    1  0.2609167E-002  0.1898172E+03  0.7818608E-02  0.1158626E+00
         -1   -1    0    0    0  501 -0.00000000000E+00  0.00000000000E+00  0.14865389258E+03  0.14865389258E+03  0.00000000000E+00 0. -1.
          1   -1    0    0  502    0  0.00000000000E+00 -0.00000000000E+00 -0.24481170485E+03  0.24481170485E+03  0.00000000000E+00 0.  1.
          6    2    1    2  502    0 -0.42826103138E+02  0.52030961233E+02 -0.68242621818E+02  0.20662979307E+03  0.18302327697E+03 0.  0.
         24    2    3    3    0    0  0.33471257513E+02  0.47209846490E+02 -0.82927739615E+02  0.12864086389E+03  0.79513314482E+02 0.  0.
         -6    2    1    2    0  501  0.42826103138E+02 -0.52030961233E+02 -0.27915190459E+02  0.18683580436E+03  0.17200890644E+03 0.  0.
        -24    2    5    5    0    0  0.79493334840E+02 -0.34651842085E+01  0.13415786722E+02  0.11312379548E+03  0.79283112861E+02 0.  0.
          5    1    3    3  502    0 -0.76297360652E+02  0.48211147432E+01  0.14685117796E+02  0.77988929179E+02  0.47000000000E+01 0. -1.
        -11    1    4    4    0    0  0.20968556910E+01  0.46367480723E+02 -0.75958351730E+01  0.47032295121E+02  0.00000000000E+00 0.  1.
         12    1    4    4    0    0  0.31374401822E+02  0.84236576652E+00 -0.75331904442E+02  0.81608568769E+02  0.00000000000E+00 0. -1.
         -5    1    5    5    0  501 -0.36667231701E+02 -0.48565777024E+02 -0.41330977181E+02  0.73712008881E+02  0.47000000000E+01 0.  1.
         13    1    6    6    0    0 -0.81480197187E+01  0.58412983769E+01  0.22391877885E+02  0.24533796838E+02  0.00000000000E+00 0. -1.
        -14    1    6    6    0    0  0.87641354558E+02 -0.93064825855E+01 -0.89760911627E+01  0.88589998643E+02  0.00000000000E+00 0.  1.
</event>
<event>
12    1  0.2609167E-002  0.1860346E+03  0.7818608E-02  0.1162087E+00
          2   -1    0    0  502    0  0.00000000000E+00  0.00000000000E+00  0.11187947275E+04  0.11187947275E+04  0.00000000000E+00 0.  1.
         -2   -1    0    0    0  501 -0.00000000000E+00 -0.00000000000E+00 -0.38176190460E+02  0.38176190460E+02  0.00000000000E+00 0. -1.
          6    2    1    2  502    0 -0.68744000646E+02  0.16826294255E+02  0.28816533517E+03  0.34295603633E+03  0.17196139293E+03 0.  0.
         24    2    3    3    0    0 -0.67132745381E+02  0.47376228713E+02  0.10088584834E+03  0.15313614584E+03  0.80755261238E+02 0.  0.
         -6    2    1    2    0  501  0.68744000646E+02 -0.16826294255E+02  0.79245320191E+03  0.81401488167E+03  0.17213160245E+03 0.  0.
        -24    2    5    5    0    0  0.13545428538E+02 -0.48440455497E+01  0.70757407681E+03  0.71195111472E+03  0.77500788145E+02 0.  0.
          5    1    3    3  502    0 -0.16112552656E+01 -0.30549934457E+02  0.18727948683E+03  0.18981989049E+03  0.47000000000E+01 0. -1.
        -13    1    4    4    0    0 -0.80171142586E+01 -0.21416274436E+02  0.31557400671E+02  0.38971790681E+02  0.00000000000E+00 0.  1.
         14    1    4    4    0    0 -0.59115631122E+02  0.68792503149E+02  0.69328447673E+02  0.11416435516E+03  0.00000000000E+00 0. -1.
         -5    1    5    5    0  501  0.55198572108E+02 -0.11982248706E+02  0.84879125100E+02  0.10206376695E+03  0.47000000000E+01 0.  1.
         11    1    6    6    0    0  0.10975422660E+02  0.17717906643E+02  0.64578954644E+03  0.64612577910E+03  0.00000000000E+00 0. -1.
        -12    1    6    6    0    0  0.25700058785E+01 -0.22561952193E+02  0.61784530369E+02  0.65825335623E+02  0.00000000000E+00 0.  1.
</event>
<event>
12    1  0.2609167E-002  0.1828153E+03  0.7818608E-02  0.1165106E+00
         -2   -1    0    0    0  501 -0.00000000000E+00  0.00000000000E+00  0.19760717069E+03  0.19760717069E+03  0.00000000000E+00 0. -1.
          2   -1    0    0  502    0  0.00000000000E+00 -0.00000000000E+00 -0.19347471345E+03  0.19347471345E+03  0.00000000000E+00 0.  1.
          6    2    1    2  502    0  0.47850632442E+02  0.37406629162E+02 -0.67297584337E+02  0.19459410653E+03  0.17218874094E+03 0.  0.
         24    2    3    3    0    0  0.53241649124E+02  0.31687596654E+00 -0.10554059359E+03  0.14084161255E+03  0.76568722840E+02 0.  0.
         -6    2    1    2    0  501 -0.47850632442E+02 -0.37406629162E+02  0.71430041583E+02  0.19648777761E+03  0.17267384567E+03 0.  0.
        -24    2    5    5    0    0 -0.51095832330E+02  0.41236523780E+02  0.34234699447E+02  0.10930486470E+03  0.80400894428E+02 0.  0.
          5    1    3    3  502    0 -0.53910166814E+01  0.37089753196E+02  0.38243009251E+02  0.53752493985E+02  0.47000000000E+01 0. -1.
        -11    1    4    4    0    0  0.40926050067E+02 -0.35218759375E+02 -0.74889726286E+02  0.92324285479E+02  0.00000000000E+00 0.  1.
         12    1    4    4    0    0  0.12315599057E+02  0.35535635341E+02 -0.30650867303E+02  0.48517327066E+02  0.00000000000E+00 0. -1.
         -5    1    5    5    0  501  0.32451998878E+01 -0.78643152942E+02  0.37195342136E+02  0.87182912911E+02  0.47000000000E+01 0.  1.
         11    1    6    6    0    0  0.91816279937E+01  0.40007888720E+02  0.25659522881E+02  0.48408104351E+02  0.00000000000E+00 0. -1.
        -12    1    6    6    0    0 -0.60277460324E+02  0.12286350604E+01  0.85751765662E+01  0.60896760344E+02  0.00000000000E+00 0.  1.
</event>
<event>
12    1  0.2609167E-002  0.1753793E+03  0.7818608E-02  0.1172351E+00
          2   -1    0    0  502    0  0.00000000000E+00  0.00000000000E+00  0.11541151364E+03  0.11541151364E+03  0.00000000000E+00 0.  1.
         -2   -1    0    0    0  501 -0.00000000000E+00 -0.00000000000E+00 -0.28052396546E+03  0.28052396546E+03  0.00000000000E+00 0. -1.
          6    2    1    2  502    0 -0.61243142544E+01  0.29411321064E+02 -0.37882013413E+02  0.17847768713E+03  0.17180426313E+03 0.  0.
         24    2    3    3    0    0  0.51116642670E+02  0.18657814750E+02  0.16459415388E+02  0.98682662647E+02  0.80661827050E+02 0.  0.
         -6    2    1    2    0  501  0.61243142544E+01 -0.29411321064E+02 -0.12723043841E+03  0.21745779198E+03  0.17377506669E+03 0.  0.
        -24    2    5    5    0    0 -0.29269551481E+02 -0.77994580071E+02 -0.78630250402E+02  0.14001667201E+03  0.80511433958E+02 0.  0.
          5    1    3    3  502    0 -0.57240956924E+02  0.10753506314E+02 -0.54341428802E+02  0.79795024481E+02  0.47000000000E+01 0. -1.
        -11    1    4    4    0    0  0.53812071481E+02 -0.10238390146E+02  0.34286527674E+02  0.64622980817E+02  0.00000000000E+00 0.  1.
         12    1    4    4    0    0 -0.26954288106E+01  0.28896204897E+02 -0.17827112285E+02  0.34059681829E+02  0.00000000000E+00 0. -1.
         -5    1    5    5    0  501  0.35393865735E+02  0.48583259007E+02 -0.48600188009E+02  0.77441119968E+02  0.47000000000E+01 0.  1.
         13    1    6    6    0    0 -0.31235265948E+02 -0.11921549906E+02  0.45808243980E+01  0.33745357357E+02  0.00000000000E+00 0. -1.
        -14    1    6    6    0    0  0.19657144673E+01 -0.66073030164E+02 -0.83211074800E+02  0.10627131465E+03  0.00000000000E+00 0.  1.
</event>
<event>
12    1  0.2609167E-002  0.1821563E+03  0.7818608E-02  0.1165732E+00
          1   -1    0    0  502    0  0.00000000000E+00  0.00000000000E+00  0.50865901112E+02  0.50865901112E+02  0.00000000000E+00 0.  1.
         -1   -1    0    0    0  501 -0.00000000000E+00 -0.00000000000E+00 -0.66172067719E+03  0.66172067719E+03  0.00000000000E+00 0. -1.
          6    2    1    2  502    0  0.58971218674E+02  0.14541087849E+02 -0.26050905400E+03  0.31699484538E+03  0.17009325945E+03 0.  0.
         24    2    3    3    0    0  0.46869372841E+02  0.60091079680E+02 -0.98126097911E+02  0.14784529363E+03  0.80136282600E+02 0.  0.
         -6    2    1    2    0  501 -0.58971218674E+02 -0.14541087849E+02 -0.35034572208E+03  0.39559173293E+03  0.17338294701E+03 0.  0.
        -24    2    5    5    0    0 -0.98094545502E+02  0.21267242009E+02 -0.27378100009E+03  0.30233339366E+03  0.79841151503E+02 0.  0.
          5    1    3    3  502    0  0.12101845833E+02 -0.45549991831E+02 -0.16238295609E+03  0.16914955175E+03  0.47000000000E+01 0. -1.
        -11    1    4    4    0    0  0.39916254543E+02  0.39348078903E+02 -0.98625827912E+01  0.56910888496E+02  0.00000000000E+00 0.  1.
         12    1    4    4    0    0  0.69531182973E+01  0.20743000778E+02 -0.88263515120E+02  0.90934405131E+02  0.00000000000E+00 0. -1.
         -5    1    5    5    0  501  0.39123326828E+02 -0.35808329858E+02 -0.76564721988E+02  0.93258339265E+02  0.47000000000E+01 0.  1.
         13    1    6    6    0    0 -0.46449762477E+02  0.21053979621E+02 -0.45701261843E+02  0.68479601533E+02  0.00000000000E+00 0. -1.
        -14    1    6    6    0    0 -0.51644783024E+02  0.21326238786E+00 -0.22807973825E+03  0.23385379213E+03  0.00000000000E+00 0.  1.
</event>
<event>
12    1  0.2609167E-002  0.2114988E+03  0.7818608E-02  0.1140385E+00
          1   -1    0    0  502    0  0.00000000000E+00  0.00000000000E+00  0.13216688278E+04  0.13216688278E+04  0.00000000000E+00 0. -1.
         -1   -1    0    0    0  501 -0.00000000000E+00 -0.00000000000E+00 -0.50328711282E+02  0.50328711282E+02  0.00000000000E+00 0.  1.
          6    2    1    2  502    0 -0.10619187840E+03 -0.60835283099E+02  0.24352569823E+03  0.32269288449E+03  0.17276656301E+03 0.  0.
         24    2    3    3    0    0 -0.12717666848E+03 -0.53249260019E+01  0.19654558784E+03  0.24685765566E+03  0.78142652985E+02 0.  0.
         -6    2    1    2    0  501  0.10619187840E+03  0.60835283099E+02  0.10278144183E+04  0.10493046546E+04  0.17222117466E+03 0.  0.
        -24    2    5    5    0    0  0.26040589133E+02 -0.30374765190E+02  0.44762328703E+03  0.45652531887E+03  0.80299570524E+02 0.  0.
          5    1    3    3  502    0  0.20984790080E+02 -0.55510357097E+02  0.46980110398E+02  0.75835228837E+02  0.47000000000E+01 0. -1.
        -13    1    4    4    0    0 -0.27500908033E+02 -0.23680843540E+02  0.15687600747E+02  0.39537110550E+02  0.00000000000E+00 0.  1.
         14    1    4    4    0    0 -0.99675760448E+02  0.18355917538E+02  0.18085798709E+03  0.20732054511E+03  0.00000000000E+00 0. -1.
         -5    1    5    5    0  501  0.80151289269E+02  0.91210048289E+02  0.58019113129E+03  0.59277933576E+03  0.47000000000E+01 0.  1.
         11    1    6    6    0    0  0.45343738671E+02  0.81697951675E+01  0.25599983580E+03  0.26011289110E+03  0.00000000000E+00 0. -1.
        -12    1    6    6    0    0 -0.19303149538E+02 -0.38544560357E+02  0.19162345124E+03  0.19641242776E+03  0.00000000000E+00 0.  1.
</event>
<event>
12    1  0.2609167E-002  0.1771572E+03  0.7818608E-02  0.1170583E+00
          2   -1    0    0  502    0  0.00000000000E+00  0.00000000000E+00  0.68978727338E+03  0.68978727338E+03  0.00000000000E+00 0.  1.
         -2   -1    0    0    0  501 -0.00000000000E+00 -0.00000000000E+00 -0.47936135319E+02  0.47936135319E+02  0.00000000000E+00 0. -1.
          6    2    1    2  502    0  0.13082072832E+02 -0.36197157592E+02  0.40220516336E+03  0.43905886760E+03  0.17182060684E+03 0.  0.
         24    2    3    3    0    0 -0.16357264112E+02  0.38152717000E+02  0.26645340794E+03  0.28143524148E+03  0.80530656513E+02 0.  0.
         -6    2    1    2    0  501 -0.13082072832E+02  0.36197157592E+02  0.23964597470E+03  0.29866454110E+03  0.17403718015E+03 0.  0.
        -24    2    5    5    0    0  0.27751773154E+02  0.56994015004E+02  0.21985041418E+03  0.24852606812E+03  0.97018159439E+02 0.  0.
          5    1    3    3  502    0  0.29439336945E+02 -0.74349874591E+02  0.13575175542E+03  0.15762362612E+03  0.47000000000E+01 0. -1.
        -11    1    4    4    0    0 -0.20076923949E+02 -0.15901935018E+02  0.15947065417E+03  0.16151422214E+03  0.00000000000E+00 0.  1.
         12    1    4    4    0    0  0.37196598365E+01  0.54054652018E+02  0.10698275377E+03  0.11992101934E+03  0.00000000000E+00 0. -1.
         -5    1    5    5    0  501 -0.40833845987E+02 -0.20796857413E+02  0.19795560514E+02  0.50138472976E+02  0.47000000000E+01 0.  1.
         13    1    6    6    0    0  0.14217781803E+02  0.66014847785E+02  0.68093739824E+02  0.95900275551E+02  0.00000000000E+00 0. -1.
        -14    1    6    6    0    0  0.13533991352E+02 -0.90208327811E+01  0.15175667436E+03  0.15262579257E+03  0.00000000000E+00 0.  1.
</event>
<event>
12    1  0.2609167E-002  0.1848291E+03  0.7818608E-02  0.1163210E+00
         -2   -1    0    0    0  501 -0.00000000000E+00  0.00000000000E+00  0.16728390295E+03  0.16728390295E+03  0.00000000000E+00 0. -1.
          2   -1    0    0  502    0  0.00000000000E+00 -0.00000000000E+00 -0.21026215554E+03  0.21026215554E+03  0.00000000000E+00 0.  1.
          6    2    1    2  502    0 -0.49828944873E+02  0.47670474158E+02 -0.53490036611E+02  0.19229549665E+03  0.17135044838E+03 0.  0.
         24    2    3    3    0    0 -0.60226069859E+02  0.95502730119E+02 -0.48316338488E+02  0.14284974788E+03  0.72963216451E+02 0.  0.
         -6    2    1    2    0  501  0.49828944873E+02 -0.47670474158E+02  0.10511784020E+02  0.18525056184E+03  0.17161548650E+03 0.  0.
        -24    2    5    5    0    0  0.93332561449E+02 -0.33417243969E+02  0.36222207565E+02  0.13253590444E+03  0.80162574956E+02 0.  0.
          5    1    3    3  502    0  0.10397124986E+02 -0.47832255961E+02 -0.51736981235E+01  0.49445748761E+02  0.47000000000E+01 0. -1.
        -11    1    4    4    0    0 -0.66448897414E+01  0.70260024773E+02 -0.76140067352E+01  0.70983087700E+02  0.00000000000E+00 0.  1.
         12    1    4    4    0    0 -0.53581180118E+02  0.25242705346E+02 -0.40702331753E+02  0.71866660184E+02  0.00000000000E+00 0. -1.
         -5    1    5    5    0  501 -0.43503616576E+02 -0.14253230189E+02 -0.25710423545E+02  0.52714657401E+02  0.47000000000E+01 0.  1.
         11    1    6    6    0    0  0.86369207104E+00  0.15895864693E+02  0.21437334170E+02  0.26701756022E+02  0.00000000000E+00 0. -1.
        -12    1    6    6    0    0  0.92468869378E+02 -0.49313108662E+02  0.14784873395E+02  0.10583414842E+03  0.00000000000E+00 0.  1.
</event>
<event>
12    1  0.2609167E-002  0.2406172E+03  0.7818608E-02  0.1119382E+00
         -1   -1    0    0    0  501 -0.00000000000E+00  0.00000000000E+00  0.59714988090E+02  0.59714988090E+02  0.00000000000E+00 0. -1.
          1   -1    0    0  502    0  0.00000000000E+00 -0.00000000000E+00 -0.10652488025E+04  0.10652488025E+04  0.00000000000E+00 0.  1.
          6    2    1    2  502    0 -0.49242780187E+02  0.16020565390E+03 -0.33464341859E+03  0.41231220564E+03  0.17298680405E+03 0.  0.
         24    2    3    3    0    0 -0.47637044124E+02  0.18970392165E+03 -0.30013278381E+03  0.36664164509E+03  0.78035518422E+02 0.  0.
         -6    2    1    2    0  501  0.49242780187E+02 -0.16020565390E+03 -0.67089039582E+03  0.71265158495E+03  0.17230106029E+03 0.  0.
        -24    2    5    5    0    0  0.88809859404E+02 -0.64432553100E+02 -0.41961852554E+03  0.44081030149E+03  0.78710036839E+02 0.  0.
          5    1    3    3  502    0 -0.16057360636E+01 -0.29498267747E+02 -0.34510634774E+02  0.45670560550E+02  0.47000000000E+01 0. -1.
        -11    1    4    4    0    0 -0.85855366181E+01  0.13018843785E+03 -0.24120828640E+03  0.27423380211E+03  0.00000000000E+00 0.  1.
         12    1    4    4    0    0 -0.39051507505E+02  0.59515483798E+02 -0.58924497411E+02  0.92407842986E+02  0.00000000000E+00 0. -1.
         -5    1    5    5    0  501 -0.39567079217E+02 -0.95773100801E+02 -0.25127187028E+03  0.27184128345E+03  0.47000000000E+01 0.  1.
         13    1    6    6    0    0  0.31867357929E+02  0.13094528931E+02 -0.16656675146E+03  0.17009255681E+03  0.00000000000E+00 0. -1.
        -14    1    6    6    0    0  0.56942501475E+02 -0.77527082031E+02 -0.25305177408E+03  0.27071774469E+03  0.00000000000E+00 0.  1.
</event>
<event>
12    1  0.2609167E-002  0.2810074E+03  0.7818608E-02  0.1095140E+00
          1   -1    0    0  502    0  0.00000000000E+00  0.00000000000E+00  0.30658967380E+04  0.30658967380E+04  0.00000000000E+00 0. -1.
         -1   -1    0    0    0  501 -0.00000000000E+00 -0.00000000000E+00 -0.27508690519E+02  0.27508690519E+02  0.00000000000E+00 0.  1.
          6    2    1    2  502    0 -0.14124146971E+03  0.16952485871E+03  0.19129213027E+04  0.19335468502E+04  0.17506479192E+03 0.  0.
         24    2    3    3    0    0 -0.16970368681E+03  0.11967733364E+03  0.15850198113E+04  0.16006259113E+04  0.81200370231E+02 0.  0.
         -6    2    1    2    0  501  0.14124146971E+03 -0.16952485871E+03  0.11254667448E+04  0.11598585783E+04  0.17294131216E+03 0.  0.
        -24    2    5    5    0    0  0.15290487368E+02 -0.91845818561E+02  0.36320969772E+03  0.38335643464E+03  0.79821163077E+02 0.  0.
          5    1    3    3  502    0  0.28462217095E+02  0.49847525073E+02  0.32790149135E+03  0.33292093894E+03  0.47000000000E+01 0. -1.
        -11    1    4    4    0    0 -0.38267865736E+02  0.17946631255E+02  0.14466158776E+03  0.15070994026E+03  0.00000000000E+00 0.  1.
         12    1    4    4    0    0 -0.13143582107E+03  0.10173070238E+03  0.14403582235E+04  0.14499159710E+04  0.00000000000E+00 0. -1.
         -5    1    5    5    0  501  0.12595098234E+03 -0.77679040150E+02  0.76225704712E+03  0.77650214366E+03  0.47000000000E+01 0.  1.
         11    1    6    6    0    0  0.12492122752E+02  0.82594986215E+01  0.11077825933E+03  0.11178593467E+03  0.00000000000E+00 0. -1.
        -12    1    6    6    0    0  0.27983646164E+01 -0.10010531718E+03  0.25243143839E+03  0.27157049998E+03  0.00000000000E+00 0.  1.
</event>
<event>
12    1  0.2609167E-002  0.2464671E+03  0.7818608E-02  0.1115558E+00
          2   -1    0    0  502    0  0.00000000000E+00  0.00000000000E+00  0.12769278000E+04  0.12769278000E+04  0.00000000000E+00 0. -1.
         -2   -1    0    0    0  501 -0.00000000000E+00 -0.00000000000E+00 -0.72246298910E+02  0.72246298910E+02  0.00000000000E+00 0.  1.
          6    2    1    2  502    0 -0.15637456981E+03  0.71976324967E+02  0.99162611372E+03  0.10210753420E+04  0.17215953982E+03 0.  0.
         24    2    3    3    0    0 -0.98636355103E+02 -0.26520362866E+02  0.51997375914E+03  0.53577818298E+03  0.79076488099E+02 0.  0.
         -6    2    1    2    0  501  0.15637456981E+03 -0.71976324967E+02  0.21305538739E+03  0.32809875695E+03  0.18061727154E+03 0.  0.
        -24    2    5    5    0    0  0.28582216846E+02 -0.79695296569E+02  0.70034990143E+02  0.13608992375E+03  0.80294981703E+02 0.  0.
          5    1    3    3  502    0 -0.57738214704E+02  0.98496687833E+02  0.47165235458E+03  0.48529715900E+03  0.47000000000E+01 0. -1.
        -11    1    4    4    0    0 -0.90593995032E+02  0.36611335397E+01  0.29420817218E+03  0.30786218412E+03  0.00000000000E+00 0.  1.
         12    1    4    4    0    0 -0.80423600711E+01 -0.30181496406E+02  0.22576558696E+03  0.22791599886E+03  0.00000000000E+00 0. -1.
         -5    1    5    5    0  501  0.12779235296E+03  0.77189716023E+01  0.14302039724E+03  0.19200883320E+03  0.47000000000E+01 0.  1.
         13    1    6    6    0    0 -0.23981829747E+02 -0.41789818571E+02  0.47007690833E+02  0.67314486492E+02  0.00000000000E+00 0. -1.
        -14    1    6    6    0    0  0.52564046593E+02 -0.37905477998E+02  0.23027299310E+02  0.68775437258E+02  0.00000000000E+00 0.  1.
</event>
<event>
12    1  0.2609167E-002  0.2875389E+03  0.7818608E-02  0.1091641E+00
         -2   -1    0    0    0  501 -0.00000000000E+00  0.00000000000E+00  0.30296019913E+03  0.30296019913E+03  0.00000000000E+00 0.  1.
          2   -1    0    0  502    0  0.00000000000E+00 -0.00000000000E+00 -0.79184364740E+03  0.79184364740E+03  0.00000000000E+00 0. -1.
          6    2    1    2  502    0 -0.22775141743E+03 -0.35651313091E+02  0.19873247424E+03  0.34945009565E+03  0.17169463814E+03 0.  0.
         24    2    3    3    0    0 -0.54282754334E+02  0.17613501613E+02  0.11584197973E+03  0.14989699083E+03  0.76111042143E+02 0.  0.
         -6    2    1    2    0  501  0.22775141743E+03  0.35651313091E+02 -0.68761592250E+03  0.74535375088E+03  0.17203148784E+03 0.  0.
        -24    2    5    5    0    0  0.21355886907E+03 -0.23323249532E+02 -0.55611892252E+03  0.60046421203E+03  0.71677398196E+02 0.  0.
          5    1    3    3  502    0 -0.17346866310E+03 -0.53264814704E+02  0.82890494509E+02  0.19955310482E+03  0.47000000000E+01 0. -1.
        -13    1    4    4    0    0 -0.72678266491E+02  0.67553243517E+01  0.97131760314E+02  0.12150038555E+03  0.00000000000E+00 0.  1.
         14    1    4    4    0    0  0.18395512158E+02  0.10858177262E+02  0.18710219416E+02  0.28396605283E+02  0.00000000000E+00 0. -1.
         -5    1    5    5    0  501  0.14192548364E+02  0.58974562623E+02 -0.13149699998E+03  0.14488953885E+03  0.47000000000E+01 0.  1.
         11    1    6    6    0    0  0.12460179254E+03  0.22132223843E+02 -0.30673284111E+03  0.33181392052E+03  0.00000000000E+00 0. -1.
        -12    1    6    6    0    0  0.88957076531E+02 -0.45455473376E+02 -0.24938608142E+03  0.26865029151E+03  0.00000000000E+00 0.  1.
</event>
<event>
12    1  0.2609167E-002  0.3588080E+03  0.7818608E-02  0.1059057E+00
          1   -1    0    0  502    0  0.00000000000E+00  0.00000000000E+00  0.70151538154E+03  0.70151538154E+03  0.00000000000E+00 0. -1.
         -1   -1    0    0    0  501 -0.00000000000E+00 -0.00000000000E+00 -0.30178578965E+03  0.30178578965E+03  0.00000000000E+00 0.  1.
          6    2    1    2  502    0  0.71678628979E+02  0.30583784812E+03 -0.11446490408E+03  0.37579146346E+03  0.17158786247E+03 0.  0.
         24    2    3    3    0    0  0.93012520276E+02  0.12445840966E+03 -0.50076680983E+02  0.18208661352E+03  0.80663722850E+02 0.  0.
         -6    2    1    2    0  501 -0.71678628979E+02 -0.30583784812E+03  0.51419449597E+03  0.62750970773E+03  0.17520798619E+03 0.  0.
        -24    2    5    5    0    0 -0.10842303681E+03 -0.17897315804E+03  0.28368477632E+03  0.36180005050E+03  0.81457215870E+02 0.  0.
          5    1    3    3  502    0 -0.21333891297E+02  0.18137943846E+03 -0.64388223099E+02  0.19370484993E+03  0.47000000000E+01 0. -1.
        -11    1    4    4    0    0  0.86002645020E+02  0.12388322519E+03 -0.66045459151E+02  0.16463751428E+03  0.00000000000E+00 0.  1.
         12    1    4    4    0    0  0.70098752554E+01  0.57518446774E+00  0.15968778168E+02  0.17449099244E+02  0.00000000000E+00 0. -1.
         -5    1    5    5    0  501  0.36744407828E+02 -0.12686469008E+03  0.23050971965E+03  0.26570965724E+03  0.47000000000E+01 0.  1.
         13    1    6    6    0    0 -0.35762584841E+02 -0.77298227587E+02  0.55566394927E+02  0.10169367093E+03  0.00000000000E+00 0. -1.
        -14    1    6    6    0    0 -0.72660451966E+02 -0.10167493045E+03  0.22811838139E+03  0.26010637957E+03  0.00000000000E+00 0.  1.
</event>
<event>
12    1  0.2609167E-002  0.1867254E+03  0.7818608E-02  0.1161448E+00
         -2   -1    0    0    0  501 -0.00000000000E+00  0.00000000000E+00  0.42908238695E+02  0.42908238695E+02  0.00000000000E+00 0.  1.
          2   -1    0    0  502    0  0.00000000000E+00 -0.00000000000E+00 -0.15046781744E+04  0.15046781744E+04  0.00000000000E+00 0. -1.
          6    2    1    2  502    0  0.54021217203E+02  0.54696956134E+02 -0.20829382571E+03  0.28043031387E+03  0.17130322295E+03 0.  0.
         24    2    3    3    0    0 -0.11012945891E+02  0.69172190561E+02 -0.72209289923E+02  0.12883854081E+03  0.80492925914E+02 0.  0.
         -6    2    1    2    0  501 -0.54021217203E+02 -0.54696956134E+02 -0.12534761100E+04  0.12671560992E+04  0.16903305164E+03 0.  0.
        -24    2    5    5    0    0 -0.11270305911E+02 -0.93221414673E+02 -0.96547006072E+03  0.97341922932E+03  0.81211488768E+02 0.  0.
          5    1    3    3  502    0  0.65034163094E+02 -0.14475234427E+02 -0.13608453579E+03  0.15159177307E+03  0.47000000000E+01 0. -1.
        -13    1    4    4    0    0  0.11410700476E+02  0.27189223095E+02  0.12219230297E+02  0.31918137899E+02  0.00000000000E+00 0.  1.
         14    1    4    4    0    0 -0.22423646367E+02  0.41982967466E+02 -0.84428520219E+02  0.96920402909E+02  0.00000000000E+00 0. -1.
         -5    1    5    5    0  501 -0.42750911292E+02  0.38524458538E+02 -0.28800604926E+03  0.29373686989E+03  0.47000000000E+01 0.  1.
         11    1    6    6    0    0 -0.29939314456E+02 -0.15409742115E+01 -0.27797497694E+03  0.27958688266E+03  0.00000000000E+00 0. -1.
        -12    1    6    6    0    0  0.18669008546E+02 -0.91680440461E+02 -0.68749508379E+03  0.69383234666E+03  0.00000000000E+00 0.  1.
</event>
<event>
12    1  0.2609167E-002  0.1766737E+03  0.7818608E-02  0.1171062E+00
         -2   -1    0    0    0  501 -0.00000000000E+00  0.00000000000E+00  0.24928851755E+02  0.24928851755E+02  0.00000000000E+00 0. -1.
          2   -1    0    0  502    0  0.00000000000E+00 -0.00000000000E+00 -0.13282116297E+04  0.13282116297E+04  0.00000000000E+00 0.  1.
          6    2    1    2  502    0 -0.28379559049E+02  0.31296047464E+02 -0.49065447868E+03  0.52158715507E+03  0.17183277022E+03 0.  0.
         24    2    3    3    0    0  0.68465352492E+01 -0.39164385516E+02 -0.33832448379E+03  0.35002938730E+03  0.80476030649E+02 0.  0.
         -6    2    1    2    0  501  0.28379559049E+02 -0.31296047464E+02 -0.81262829926E+03  0.83155332638E+03  0.17126394806E+03 0.  0.
        -24    2    5    5    0    0  0.53295850237E+02 -0.24576703483E+02 -0.25948146646E+03  0.27778489121E+03  0.79933424459E+02 0.  0.
          5    1    3    3  502    0 -0.35226094298E+02  0.70460432980E+02 -0.15232999490E+03  0.17155776777E+03  0.47000000000E+01 0. -1.
        -11    1    4    4    0    0  0.43557458070E+02 -0.25247479398E+02 -0.20023394427E+03  0.20646626797E+03  0.00000000000E+00 0.  1.
         12    1    4    4    0    0 -0.36710922821E+02 -0.13916906118E+02 -0.13809053951E+03  0.14356311933E+03  0.00000000000E+00 0. -1.
         -5    1    5    5    0  501 -0.24916291188E+02 -0.67193439811E+01 -0.55314683280E+03  0.55376843517E+03  0.47000000000E+01 0.  1.
         11    1    6    6    0    0 -0.16990701566E+02 -0.23175972489E+02 -0.69022758794E+02  0.74765974026E+02  0.00000000000E+00 0. -1.
        -12    1    6    6    0    0  0.70286551803E+02 -0.14007309940E+01 -0.19045870766E+03  0.20301891719E+03  0.00000000000E+00 0.  1.
</event>
<event>
12    1  0.2609167E-002  0.2367157E+03  0.7818608E-02  0.1122000E+00
         -2   -1    0    0    0  501 -0.00000000000E+00  0.00000000000E+00  0.24568230797E+03  0.24568230797E+03  0.00000000000E+00 0. -1.
          2   -1    0    0  502    0  0.00000000000E+00 -0.00000000000E+00 -0.29756716418E+03  0.29756716418E+03  0.00000000000E+00 0.  1.
          6    2    1    2  502    0 -0.15873285498E+03  0.56590104907E+02  0.10484229998E+03  0.26308051166E+03  0.17268725642E+03 0.  0.
         24    2    3    3    0    0 -0.14336737979E+02  0.35048893081E+01  0.62321842900E+02  0.10339845885E+03  0.81175137113E+02 0.  0.
         -6    2    1    2    0  501  0.15873285498E+03 -0.56590104907E+02 -0.15672715619E+03  0.28016896049E+03  0.15978950438E+03 0.  0.
        -24    2    5    5    0    0  0.16427383974E+03 -0.22628679767E+02 -0.89565161102E+02  0.20455874627E+03  0.79526165636E+02 0.  0.
          5    1    3    3  502    0 -0.14439611700E+03  0.53085215599E+02  0.42520457076E+02  0.15968205281E+03  0.47000000000E+01 0. -1.
        -11    1    4    4    0    0 -0.30525447445E+02  0.34518100412E+02  0.25740540243E+02  0.52781413488E+02  0.00000000000E+00 0.  1.
         12    1    4    4    0    0  0.16188709467E+02 -0.31013211104E+02  0.36581302656E+02  0.50617045362E+02  0.00000000000E+00 0. -1.
         -5    1    5    5    0  501 -0.55409847621E+01 -0.33961425140E+02 -0.67161995090E+02  0.75610214218E+02  0.47000000000E+01 0.  1.
         11    1    6    6    0    0  0.15387237406E+03  0.27085460967E+01 -0.87642077724E+02  0.17710216687E+03  0.00000000000E+00 0. -1.
        -12    1    6    6    0    0  0.10401465679E+02 -0.25337225864E+02 -0.19230833771E+01  0.27456579401E+02  0.00000000000E+00 0.  1.
</event>
<event>
12    1  0.2609167E-002  0.2026778E+03  0.7818608E-02  0.1147499E+00
          2   -1    0    0  502    0  0.00000000000E+00  0.00000000000E+00  0.10937164253E+04  0.10937164253E+04  0.00000000000E+00 0. -1.
         -2   -1    0    0    0  501 -0.00000000000E+00 -0.00000000000E+00 -0.39329241597E+02  0.39329241597E+02  0.00000000000E+00 0.  1.
          6    2    1    2  502    0  0.10725555583E+03 -0.70540564824E+01  0.64775302152E+03  0.67876313144E+03  0.17199388868E+03 0.  0.
         24    2    3    3    0    0  0.10771667470E+02  0.24216315436E+02  0.43501626635E+03  0.44303872907E+03  0.79634820979E+02 0.  0.
         -6    2    1    2    0  501 -0.10725555583E+03  0.70540564824E+01  0.40663416215E+03  0.45428253543E+03  0.17166177850E+03 0.  0.
        -24    2    5    5    0    0 -0.85093232246E+02 -0.59345680118E+02  0.28843156153E+03  0.31682694841E+03  0.80148497389E+02 0.  0.
          5    1    3    3  502    0  0.96483888356E+02 -0.31270371919E+02  0.21273675517E+03  0.23572440237E+03  0.47000000000E+01 0. -1.
        -13    1    4    4    0    0  0.14971992757E+02  0.13359103135E+02  0.21687783504E+02  0.29546339147E+02  0.00000000000E+00 0.  1.
         14    1    4    4    0    0 -0.42003252865E+01  0.10857212302E+02  0.41332848285E+03  0.41349238992E+03  0.00000000000E+00 0. -1.
         -5    1    5    5    0  501 -0.22162323579E+02  0.66399736601E+02  0.11820260063E+03  0.13745558702E+03  0.47000000000E+01 0.  1.
         11    1    6    6    0    0 -0.15370912021E+02  0.19512861638E+02  0.71817214096E+02  0.75991637343E+02  0.00000000000E+00 0. -1.
        -12    1    6    6    0    0 -0.69722320225E+02 -0.78858541756E+02  0.21661434743E+03  0.24083531107E+03  0.00000000000E+00 0.  1.
</event>
<event>
12    1  0.2609167E-002  0.6323196E+03  0.7818608E-02  0.9840533E-01
         -2   -1    0    0    0  501 -0.00000000000E+00  0.00000000000E+00  0.15562179646E+03  0.15562179646E+03  0.00000000000E+00 0.  1.
          2   -1    0    0  502    0  0.00000000000E+00 -0.00000000000E+00 -0.28982083805E+04  0.28982083805E+04  0.00000000000E+00 0. -1.
          6    2    1    2  502    0 -0.59333355157E+03 -0.13550883811E+03 -0.85708223793E+03  0.10651611037E+04  0.17196181460E+03 0.  0.
         24    2    3    3    0    0 -0.30703454677E+03 -0.13642994725E+03 -0.50272406728E+03  0.60957382153E+03  0.77236083863E+02 0.  0.
         -6    2    1    2    0  501  0.59333355157E+03  0.13550883811E+03 -0.18855043462E+04  0.19886690733E+04  0.17108680560E+03 0.  0.
        -24    2    5    5    0    0  0.59116841412E+03  0.14378410608E+03 -0.17824611093E+04  0.18851646456E+04  0.80772346800E+02 0.  0.
          5    1    3    3  502    0 -0.28629900480E+03  0.92110913748E+00 -0.35435817065E+03  0.45558728220E+03  0.47000000000E+01 0. -1.
        -13    1    4    4    0    0 -0.98304584836E+02 -0.73708372442E+02 -0.13873859185E+03  0.18532434389E+03  0.00000000000E+00 0.  1.
         14    1    4    4    0    0 -0.20872996194E+03 -0.62721574809E+02 -0.36398547542E+03  0.42424947764E+03  0.00000000000E+00 0. -1.
         -5    1    5    5    0  501  0.21651374530E+01 -0.82752679629E+01 -0.10304323685E+03  0.10350442764E+03  0.47000000000E+01 0.  1.
         13    1    6    6    0    0  0.12833151648E+03  0.14401857977E+02 -0.29589873507E+03  0.32285051193E+03  0.00000000000E+00 0. -1.
        -14    1    6    6    0    0  0.46283689765E+03  0.12938224810E+03 -0.14865623742E+04  0.15623141337E+04  0.00000000000E+00 0.  1.
</event>
<event>
12    1  0.2609167E-002  0.2146858E+03  0.7818608E-02  0.1137908E+00
         -2   -1    0    0    0  501 -0.00000000000E+00  0.00000000000E+00  0.22980043489E+02  0.22980043489E+02  0.00000000000E+00 0.  1.
          2   -1    0    0  502    0  0.00000000000E+00 -0.00000000000E+00 -0.20063117577E+04  0.20063117577E+04  0.00000000000E+00 0. -1.
          6    2    1    2  502    0 -0.48202308957E+02 -0.11934369544E+03 -0.97320886243E+03  0.99660396602E+03  0.17180685362E+03 0.  0.
         24    2    3    3    0    0  0.34491220216E+02 -0.50375440025E+02 -0.58822214284E+03  0.59681439101E+03  0.80341762295E+02 0.  0.
         -6    2    1    2    0  501  0.48202308957E+02  0.11934369544E+03 -0.10101228518E+04  0.10326878352E+04  0.17184181383E+03 0.  0.
        -24    2    5    5    0    0  0.35586347781E+02  0.15462453399E+02 -0.69390359516E+03  0.69957046369E+03  0.79944722609E+02 0.  0.
          5    1    3    3  502    0 -0.82693529173E+02 -0.68968255411E+02 -0.38498671960E+03  0.39978957501E+03  0.47000000000E+01 0. -1.
        -13    1    4    4    0    0  0.15687078636E+02  0.21231586953E+02 -0.18136993900E+03  0.18328098508E+03  0.00000000000E+00 0.  1.
         14    1    4    4    0    0  0.18804141580E+02 -0.71607026978E+02 -0.40685220384E+03  0.41353340593E+03  0.00000000000E+00 0. -1.
         -5    1    5    5    0  501  0.12615961176E+02  0.10388124204E+03 -0.31621925662E+03  0.33311737148E+03  0.47000000000E+01 0.  1.
         11    1    6    6    0    0 -0.11192355513E+02  0.35914072523E+02 -0.31727920808E+03  0.31950146370E+03  0.00000000000E+00 0. -1.
        -12    1    6    6    0    0  0.46778703294E+02 -0.20451619124E+02 -0.37662438708E+03  0.38006899999E+03  0.00000000000E+00 0.  1.
</event>
<event>
12    1  0.2609167E-002  0.2830699E+03  0.7818608E-02  0.1094024E+00
         -1   -1    0    0    0  501 -0.00000000000E+00  0.00000000000E+00  0.47168954897E+02  0.47168954897E+02  0.00000000000E+00 0. -1.
          1   -1    0    0  502    0  0.00000000000E+00 -0.00000000000E+00 -0.19130804695E+04  0.19130804695E+04  0.00000000000E+00 0.  1.
          6    2    1    2  502    0  0.18823062828E+03  0.12858273104E+03 -0.12679431088E+04  0.12996848239E+04  0.17186222999E+03 0.  0.
         24    2    3    3    0    0  0.12149557386E+03  0.13275738111E+03 -0.67953035554E+03  0.70746640691E+03  0.79759112907E+02 0.  0.
         -6    2    1    2    0  501 -0.18823062828E+03 -0.12858273104E+03 -0.59796840574E+03  0.66056460047E+03  0.16375313426E+03 0.  0.
        -24    2    5    5    0    0 -0.12826181779E+03 -0.14229624842E+03 -0.36282202777E+03  0.41745921619E+03  0.77026340497E+02 0.  0.
          5    1    3    3  502    0  0.66735054421E+02 -0.41746500678E+01 -0.58841275329E+03  0.59221841700E+03  0.47000000000E+01 0. -1.
        -11    1    4    4    0    0  0.93484388755E+01  0.18169734051E+02 -0.21649520705E+03  0.21745736874E+03  0.00000000000E+00 0.  1.
         12    1    4    4    0    0  0.11214713498E+03  0.11458764706E+03 -0.46303514850E+03  0.49000903817E+03  0.00000000000E+00 0. -1.
         -5    1    5    5    0  501 -0.59968810493E+02  0.13713517382E+02 -0.23514637797E+03  0.24310538428E+03  0.47000000000E+01 0.  1.
         11    1    6    6    0    0 -0.70487490102E+02 -0.27095792522E+02 -0.10642501976E+03  0.13049503080E+03  0.00000000000E+00 0. -1.
        -12    1    6    6    0    0 -0.57774327686E+02 -0.11520045590E+03 -0.25639700800E+03  0.28696418538E+03  0.00000000000E+00 0.  1.
</event>
<event>
12    1  0.2609167E-002  0.1734497E+03  0.7818608E-02  0.1174297E+00
          1   -1    0    0  502    0  0.00000000000E+00  0.00000000000E+00  0.66009637434E+03  0.66009637434E+03  0.00000000000E+00 0. -1.
         -1   -1    0    0    0  501 -0.00000000000E+00 -0.00000000000E+00 -0.62689164727E+02  0.62689164727E+02  0.00000000000E+00 0.  1.
          6    2    1    2  502    0 -0.11303375343E+02 -0.73840358625E+01  0.11032746674E+03  0.20586226328E+03  0.17327674756E+03 0.  0.
         24    2    3    3    0    0 -0.43934036308E+02 -0.25742415806E+01  0.49747590043E+01  0.95367117758E+02  0.84458940654E+02 0.  0.
         -6    2    1    2    0  501  0.11303375343E+02  0.73840358625E+01  0.48707974287E+03  0.51692327579E+03  0.17257087488E+03 0.  0.
        -24    2    5    5    0    0  0.56705090203E+02  0.26063519245E+02  0.42944094284E+03  0.44106445903E+03  0.78889538828E+02 0.  0.
          5    1    3    3  502    0  0.32630660965E+02 -0.48097942819E+01  0.10535270774E+03  0.11049514552E+03  0.47000000000E+01 0. -1.
        -11    1    4    4    0    0 -0.63836338869E+02  0.17450177025E+02  0.92183125041E+01  0.66817393871E+02  0.00000000000E+00 0.  1.
         12    1    4    4    0    0  0.19902302561E+02 -0.20024418605E+02 -0.42435534999E+01  0.28549723887E+02  0.00000000000E+00 0. -1.
         -5    1    5    5    0  501 -0.45401714861E+02 -0.18679483383E+02  0.57638800030E+02  0.75858816763E+02  0.47000000000E+01 0.  1.
         11    1    6    6    0    0  0.72192817437E+02  0.34966145994E+02  0.30606827211E+03  0.31640515395E+03  0.00000000000E+00 0. -1.
        -12    1    6    6    0    0 -0.15487727234E+02 -0.89026267488E+01  0.12337267074E+03  0.12465930508E+03  0.00000000000E+00 0.  1.
</event>
<event>
12    1  0.2609167E-002  0.2391463E+03  0.7818608E-02  0.1120363E+00
          1   -1    0    0  502    0  0.00000000000E+00  0.00000000000E+00  0.18686833777E+03  0.18686833777E+03  0.00000000000E+00 0.  1.
         -1   -1    0    0    0  501 -0.00000000000E+00 -0.00000000000E+00 -0.30831598965E+03  0.30831598965E+03  0.00000000000E+00 0. -1.
          6    2    1    2  502    0 -0.70207063631E+02  0.15030373806E+03 -0.39361900437E+02  0.24180983436E+03  0.17147125511E+03 0.  0.
         24    2    3    3    0    0 -0.74695600459E+02  0.37756154997E+02 -0.54790973706E+02  0.12802384349E+03  0.79894265970E+02 0.  0.
         -6    2    1    2    0  501  0.70207063631E+02 -0.15030373806E+03 -0.82085751444E+02  0.25337449306E+03  0.17303270698E+03 0.  0.
        -24    2    5    5    0    0  0.11152677004E+03 -0.10625438037E+03 -0.35742310476E+02  0.17710216143E+03  0.79746153783E+02 0.  0.
          5    1    3    3  502    0  0.44885368281E+01  0.11254758306E+03  0.15429073269E+02  0.11378599087E+03  0.47000000000E+01 0. -1.
        -11    1    4    4    0    0 -0.46058625477E+02  0.58244384909E+02 -0.16619556744E+02  0.76092148219E+02  0.00000000000E+00 0.  1.
         12    1    4    4    0    0 -0.28636974982E+02 -0.20488229912E+02 -0.38171416962E+02  0.51931695273E+02  0.00000000000E+00 0. -1.
         -5    1    5    5    0  501 -0.41319706408E+02 -0.44049357693E+02 -0.46343440968E+02  0.76272331626E+02  0.47000000000E+01 0.  1.
         13    1    6    6    0    0 -0.86761177687E+01 -0.28570292426E+02 -0.11212731101E+02  0.31894544480E+02  0.00000000000E+00 0. -1.
        -14    1    6    6    0    0  0.12020288781E+03 -0.77684087941E+02 -0.24529579375E+02  0.14520761695E+03  0.00000000000E+00 0.  1.
</event>
<event>
12    1  0.2609167E-002  0.2090652E+03  0.7818608E-02  0.1142308E+00
          2   -1    0    0  502    0  0.00000000000E+00  0.00000000000E+00  0.59722380480E+03  0.59722380480E+03  0.00000000000E+00 0.  1.
         -2   -1    0    0    0  501 -0.00000000000E+00 -0.00000000000E+00 -0.76784442139E+02  0.76784442139E+02  0.00000000000E+00 0. -1.
          6    2    1    2  502    0 -0.88125750847E+02 -0.76789419568E+02  0.18780975460E+03  0.28137683542E+03  0.17388978311E+03 0.  0.
         24    2    3    3    0    0 -0.18165099279E+02 -0.36842089948E+02  0.17951031242E+03  0.20025191538E+03  0.78673800736E+02 0.  0.
         -6    2    1    2    0  501  0.88125750847E+02  0.76789419568E+02  0.33262960806E+03  0.39263141152E+03  0.17278369782E+03 0.  0.
        -24    2    5    5    0    0  0.12239114342E+02  0.90273479076E+02  0.13875009739E+03  0.18394035728E+03  0.79267701911E+02 0.  0.
          5    1    3    3  502    0 -0.69960651569E+02 -0.39947329620E+02  0.82994421754E+01  0.81124920044E+02  0.47000000000E+01 0. -1.
        -11    1    4    4    0    0 -0.10498454749E+02  0.23363581288E+02  0.76702215183E+02  0.80865965008E+02  0.00000000000E+00 0.  1.
         12    1    4    4    0    0 -0.76666445296E+01 -0.60205671236E+02  0.10280809724E+03  0.11938595037E+03  0.00000000000E+00 0. -1.
         -5    1    5    5    0  501  0.75886636505E+02 -0.13484059508E+02  0.19387951067E+03  0.20869105424E+03  0.47000000000E+01 0.  1.
         11    1    6    6    0    0 -0.11514622960E+01 -0.11967977556E+02  0.12737675253E+01  0.12090526701E+02  0.00000000000E+00 0. -1.
        -12    1    6    6    0    0  0.13390576639E+02  0.10224145663E+03  0.13747632987E+03  0.17184983058E+03  0.00000000000E+00 0.  1.
</event>
<event>
12    1  0.2609167E-002  0.1805642E+03  0.7818608E-02  0.1167258E+00
          1   -1    0    0  502    0  0.00000000000E+00  0.00000000000E+00  0.85674313425E+03  0.85674313425E+03  0.00000000000E+00 0. -1.
         -1   -1    0    0    0  501 -0.00000000000E+00 -0.00000000000E+00 -0.38091244709E+02  0.38091244709E+02  0.00000000000E+00 0.  1.
          6    2    1    2  502    0  0.34023667979E+02 -0.13063831738E+02  0.41071890304E+03  0.44715115584E+03  0.17299093956E+03 0.  0.
         24    2    3    3    0    0  0.17535811980E+02  0.23525012100E+02  0.89529251122E+02  0.12342986307E+03  0.79740287157E+02 0.  0.
         -6    2    1    2    0  501 -0.34023667979E+02  0.13063831738E+02  0.40793298650E+03  0.44768322312E+03  0.18078349788E+03 0.  0.
        -24    2    5    5    0    0  0.25085408605E+02  0.29073249293E+02  0.35744496322E+03  0.36817652605E+03  0.79451375380E+02 0.  0.
          5    1    3    3  502    0  0.16487855999E+02 -0.36588843838E+02  0.32118965192E+03  0.32372129276E+03  0.47000000000E+01 0. -1.
        -13    1    4    4    0    0 -0.10316504840E+02 -0.19422531462E+02  0.60966401052E+02  0.64811781782E+02  0.00000000000E+00 0.  1.
         14    1    4    4    0    0  0.27852316820E+02  0.42947543562E+02  0.28562850070E+02  0.58618081292E+02  0.00000000000E+00 0. -1.
         -5    1    5    5    0  501 -0.59109076584E+02 -0.16009417555E+02  0.50488023276E+02  0.79506697073E+02  0.47000000000E+01 0.  1.
         13    1    6    6    0    0 -0.20552048957E+02  0.36388630898E+02  0.15642890785E+03  0.16191517034E+03  0.00000000000E+00 0. -1.
        -14    1    6    6    0    0  0.45637457563E+02 -0.73153816056E+01  0.20101605537E+03  0.20626135571E+03  0.00000000000E+00 0.  1.
</event>
<event>
12    1  0.2609167E-002  0.2922800E+03  0.7818608E-02  0.1089165E+00
         -3   -1    0    0    0  501 -0.00000000000E+00  0.00000000000E+00  0.22795732456E+03  0.22795732456E+03  0.00000000000E+00 0. -1.
          3   -1    0    0  502    0  0.00000000000E+00 -0.00000000000E+00 -0.38264445192E+03  0.38264445192E+03  0.00000000000E+00 0.  1.
          6    2    1    2  502    0  0.23379810753E+03 -0.37961358786E+02 -0.12125451307E+03  0.31667118646E+03  0.17168390592E+03 0.  0.
         24    2    3    3    0    0  0.13673016770E+03 -0.19489249233E+02  0.55521173649E+00  0.15975368320E+03  0.80286745104E+02 0.  0.
         -6    2    1    2    0  501 -0.23379810753E+03  0.37961358786E+02 -0.33432614293E+02  0.29393059002E+03  0.17080641734E+03 0.  0.
        -24    2    5    5    0    0 -0.70475819924E+02 -0.25351532897E+02 -0.45028737535E+02  0.11831950849E+03  0.79764512601E+02 0.  0.
          5    1    3    3  502    0  0.97067939826E+02 -0.18472109553E+02 -0.12180972481E+03  0.15691750327E+03  0.47000000000E+01 0. -1.
        -13    1    4    4    0    0  0.39066933936E+01 -0.59196078683E+01 -0.23095752116E+02  0.24160251994E+02  0.00000000000E+00 0.  1.
         14    1    4    4    0    0  0.13282347431E+03 -0.13569641365E+02  0.23650963853E+02  0.13559343120E+03  0.00000000000E+00 0. -1.
         -5    1    5    5    0  501 -0.16332228761E+03  0.63312891683E+02  0.11596123242E+02  0.17561108153E+03  0.47000000000E+01 0.  1.
         13    1    6    6    0    0  0.59849151891E+01 -0.48463969722E+01  0.16400397937E+02  0.18118494031E+02  0.00000000000E+00 0. -1.
        -14    1    6    6    0    0 -0.76460735113E+02 -0.20505135925E+02 -0.61429135472E+02  0.10020101446E+03  0.00000000000E+00 0.  1.
</event>
<event>
12    1  0.2609167E-002  0.2061211E+03  0.7818608E-02  0.1144675E+00
          2   -1    0    0  502    0  0.00000000000E+00  0.00000000000E+00  0.10250533294E+03  0.10250533294E+03  0.00000000000E+00 0.  1.
         -2   -1    0    0    0  501 -0.00000000000E+00 -0.00000000000E+00 -0.41889497914E+03  0.41889497914E+03  0.00000000000E+00 0. -1.
          6    2    1    2  502    0 -0.11620755885E+03  0.11056249641E+02 -0.13037249930E+03  0.24266548437E+03  0.16811636250E+03 0.  0.
         24    2    3    3    0    0 -0.49238877964E+02  0.68125403266E+02 -0.71816129999E+02  0.13687025338E+03  0.80686876618E+02 0.  0.
         -6    2    1    2    0  501  0.11620755885E+03 -0.11056249641E+02 -0.18601714690E+03  0.27873482771E+03  0.17165164679E+03 0.  0.
        -24    2    5    5    0    0  0.12209657050E+03 -0.47047168833E+02 -0.18736323463E+03  0.24193905791E+03  0.79426175957E+02 0.  0.
          5    1    3    3  502    0 -0.66968680885E+02 -0.57069153625E+02 -0.58556369299E+02  0.10579523099E+03  0.47000000000E+01 0. -1.
        -11    1    4    4    0    0  0.87087218046E+01  0.24746649063E+02  0.95938109318E+01  0.27933486777E+02  0.00000000000E+00 0.  1.
         12    1    4    4    0    0 -0.57947599769E+02  0.43378754203E+02 -0.81409940931E+02  0.10893676660E+03  0.00000000000E+00 0. -1.
         -5    1    5    5    0  501 -0.58890116555E+01  0.35990919192E+02  0.13460877314E+01  0.36795769794E+02  0.47000000000E+01 0.  1.
         11    1    6    6    0    0  0.42814728992E+02  0.19498371166E+02 -0.79984634312E+02  0.92794553842E+02  0.00000000000E+00 0. -1.
        -12    1    6    6    0    0  0.79281841513E+02 -0.66545539999E+02 -0.10737860032E+03  0.14914450407E+03  0.00000000000E+00 0.  1.
</event>
<event>
12    1  0.2609167E-002  0.2633834E+03  0.7818608E-02  0.1105127E+00
         -2   -1    0    0    0  501 -0.00000000000E+00  0.00000000000E+00  0.61007469634E+02  0.61007469634E+02  0.00000000000E+00 0.  1.
          2   -1    0    0  502    0  0.00000000000E+00 -0.00000000000E+00 -0.11438003014E+04  0.11438003014E+04  0.00000000000E+00 0. -1.
          6    2    1    2  502    0  0.10854076331E+03 -0.16654992628E+03 -0.49433947955E+03  0.55991637063E+03  0.17208964471E+03 0.  0.
         24    2    3    3    0    0  0.61381224124E+02 -0.72288772294E+02 -0.12668543904E+03  0.17742353306E+03  0.80228351257E+02 0.  0.
         -6    2    1    2    0  501 -0.10854076331E+03  0.16654992628E+03 -0.58845335217E+03  0.64489140036E+03  0.17345776237E+03 0.  0.
        -24    2    5    5    0    0 -0.12781437562E+01  0.30105038303E+02 -0.21431346206E+03  0.23242900888E+03  0.84764598545E+02 0.  0.
          5    1    3    3  502    0  0.47159539187E+02 -0.94261153989E+02 -0.36765404051E+03  0.38249283757E+03  0.47000000000E+01 0. -1.
        -13    1    4    4    0    0  0.41390860142E+02 -0.86864307581E+02 -0.82336968258E+02  0.12664117647E+03  0.00000000000E+00 0.  1.
         14    1    4    4    0    0  0.19990363982E+02  0.14575535287E+02 -0.44348470777E+02  0.50782356595E+02  0.00000000000E+00 0. -1.
         -5    1    5    5    0  501 -0.10726261955E+03  0.13644488798E+03 -0.37413989011E+03  0.41246239147E+03  0.47000000000E+01 0.  1.
         13    1    6    6    0    0 -0.28458065002E+02  0.49008809899E+02 -0.14229032649E+03  0.15316090207E+03  0.00000000000E+00 0. -1.
        -14    1    6    6    0    0  0.27179921246E+02 -0.18903771596E+02 -0.72023135572E+02  0.79268106809E+02  0.00000000000E+00 0.  1.
</event>
<event>
12    1  0.2609167E-002  0.2113452E+03  0.7818608E-02  0.1140505E+00
         -2   -1    0    0    0  501 -0.00000000000E+00  0.00000000000E+00  0.36008228139E+03  0.36008228139E+03  0.00000000000E+00 0.  1.
          2   -1    0    0  502    0  0.00000000000E+00 -0.00000000000E+00 -0.12410268839E+03  0.12410268839E+03  0.00000000000E+00 0. -1.
          6    2    1    2  502    0  0.25621775878E+02  0.11204163569E+03  0.12017936345E+03  0.24054078999E+03  0.17380157860E+03 0.  0.
         24    2    3    3    0    0 -0.10168238605E+01  0.13684924986E+03  0.12729094398E+03  0.20315499998E+03  0.79625488861E+02 0.  0.
         -6    2    1    2    0  501 -0.25621775878E+02 -0.11204163569E+03  0.11580022955E+03  0.24364417979E+03  0.18095024082E+03 0.  0.
        -24    2    5    5    0    0 -0.34570973037E+01  0.15742040726E+02  0.24475318396E+02  0.84954954155E+02  0.79740451823E+02 0.  0.
          5    1    3    3  502    0  0.26638599739E+02 -0.24807614179E+02 -0.71115805371E+01  0.37385790015E+02  0.47000000000E+01 0. -1.
        -11    1    4    4    0    0  0.30269593471E+02  0.70571895701E+02  0.97334757757E+02  0.12397861033E+03  0.00000000000E+00 0.  1.
         12    1    4    4    0    0 -0.31286417332E+02  0.66277354163E+02  0.29956186227E+02  0.79176389648E+02  0.00000000000E+00 0. -1.
         -5    1    5    5    0  501 -0.22164678575E+02 -0.12778367641E+03  0.91324911157E+02  0.15868922563E+03  0.47000000000E+01 0.  1.
         13    1    6    6    0    0  0.16246423904E+02 -0.44031362062E+01 -0.23744201729E+02  0.29105343390E+02  0.00000000000E+00 0. -1.
        -14    1    6    6    0    0 -0.19703521207E+02  0.20145176932E+02  0.48219520125E+02  0.55849610765E+02  0.00000000000E+00 0.  1.
</event>
<event>
12    1  0.2609167E-002  0.2591083E+03  0.7818608E-02  0.1107680E+00
          1   -1    0    0  502    0  0.00000000000E+00  0.00000000000E+00  0.52589722830E+03  0.52589722830E+03  0.00000000000E+00 0. -1.
         -1   -1    0    0    0  501 -0.00000000000E+00 -0.00000000000E+00 -0.20059814596E+03  0.20059814596E+03  0.00000000000E+00 0.  1.
          6    2    1    2  502    0  0.97789119367E+02 -0.16730731246E+03 -0.56387164264E+02  0.26516529293E+03  0.17198450980E+03 0.  0.
         24    2    3    3    0    0  0.53559463134E+02 -0.18100786785E+03 -0.20201462788E+02  0.20621223788E+03  0.80516604729E+02 0.  0.
         -6    2    1    2    0  501 -0.97789119367E+02  0.16730731246E+03  0.38168624660E+03  0.46133008133E+03  0.17200757083E+03 0.  0.
        -24    2    5    5    0    0 -0.74945048354E+02  0.70314941146E+02  0.10539523229E+03  0.16758157279E+03  0.80090432202E+02 0.  0.
          5    1    3    3  502    0  0.44229656233E+02  0.13700555394E+02 -0.36185701476E+02  0.58953055051E+02  0.47000000000E+01 0. -1.
        -11    1    4    4    0    0  0.50456279715E+02 -0.40586346281E+02 -0.54065135386E+01  0.64979366385E+02  0.00000000000E+00 0.  1.
         12    1    4    4    0    0  0.31031834195E+01 -0.14042152157E+03 -0.14794949249E+02  0.14123287149E+03  0.00000000000E+00 0. -1.
         -5    1    5    5    0  501 -0.22844071013E+02  0.96992371311E+02  0.27629101432E+03  0.29374850853E+03  0.47000000000E+01 0.  1.
         11    1    6    6    0    0 -0.48025026873E+02 -0.26260452365E+00  0.68120914620E+02  0.83348252387E+02  0.00000000000E+00 0. -1.
        -12    1    6    6    0    0 -0.26920021481E+02  0.70577545670E+02  0.37274317666E+02  0.84233320407E+02  0.00000000000E+00 0.  1.
</event>
<event>
12    1  0.2609167E-002  0.2036595E+03  0.7818608E-02  0.1146688E+00
         -1   -1    0    0    0  501 -0.00000000000E+00  0.00000000000E+00  0.54768801771E+02  0.54768801771E+02  0.00000000000E+00 0. -1.
          1   -1    0    0  502    0  0.00000000000E+00 -0.00000000000E+00 -0.88236445323E+03  0.88236445323E+03  0.00000000000E+00 0.  1.
          6    2    1    2  502    0  0.95497941484E+02  0.48426214514E+02 -0.23629478588E+03  0.31153386921E+03  0.17249107441E+03 0.  0.
         24    2    3    3    0    0  0.72997255601E+02  0.13249307088E+01 -0.23553780256E+03  0.25911750893E+03  0.79583115251E+02 0.  0.
         -6    2    1    2    0  501 -0.95497941484E+02 -0.48426214514E+02 -0.59130086557E+03  0.62559938579E+03  0.17399115722E+03 0.  0.
        -24    2    5    5    0    0 -0.68282256782E+02  0.24938031543E+02 -0.21270252596E+03  0.23897062476E+03  0.81118573343E+02 0.  0.
          5    1    3    3  502    0  0.22500685884E+02  0.47101283805E+02 -0.75698332363E+00  0.52416360281E+02  0.47000000000E+01 0. -1.
        -13    1    4    4    0    0  0.35116184926E+02  0.39710348835E+02 -0.13487816809E+03  0.14492128372E+03  0.00000000000E+00 0.  1.
         14    1    4    4    0    0  0.37881070675E+02 -0.38385418127E+02 -0.10065963447E+03  0.11419622521E+03  0.00000000000E+00 0. -1.
         -5    1    5    5    0  501 -0.27215684703E+02 -0.73364246057E+02 -0.37859833962E+03  0.38662876103E+03  0.47000000000E+01 0.  1.
         13    1    6    6    0    0 -0.36172705476E+02  0.53286441514E+02 -0.10655043697E+03  0.12450263085E+03  0.00000000000E+00 0. -1.
        -14    1    6    6    0    0 -0.32109551306E+02 -0.28348409970E+02 -0.10615208899E+03  0.11446799391E+03  0.00000000000E+00 0.  1.
</event>
<event>
12    1  0.2609167E-002  0.1838125E+03  0.7818608E-02  0.1164163E+00
         -2   -1    0    0    0  501 -0.00000000000E+00  0.00000000000E+00  0.16894632651E+02  0.16894632651E+02  0.00000000000E+00 0.  1.
          2   -1    0    0  502    0  0.00000000000E+00 -0.00000000000E+00 -0.33056349353E+04  0.33056349353E+04  0.00000000000E+00 0. -1.
          6    2    1    2  502    0  0.61470695108E+02 -0.22228182945E+02 -0.26875259495E+04  0.26937925738E+04  0.17160991505E+03 0.  0.
         24    2    3    3    0    0  0.36795597272E+02 -0.24864247887E+02 -0.69676785510E+03  0.70287427068E+03  0.81084213477E+02 0.  0.
         -6    2    1    2    0  501 -0.61470695108E+02  0.22228182945E+02 -0.60121435316E+03  0.62873699417E+03  0.17198479849E+03 0.  0.
        -24    2    5    5    0    0 -0.16331503203E+02 -0.26127305037E+01 -0.54986065346E+03  0.55584042291E+03  0.79613398170E+02 0.  0.
          5    1    3    3  502    0  0.24675097836E+02  0.26360649419E+01 -0.19907580944E+04  0.19909183031E+04  0.47000000000E+01 0. -1.
        -11    1    4    4    0    0  0.20994130485E+02  0.14273116689E+02 -0.66282835229E+02  0.70978092541E+02  0.00000000000E+00 0.  1.
         12    1    4    4    0    0  0.15801466788E+02 -0.39137364576E+02 -0.63048501987E+03  0.63189617814E+03  0.00000000000E+00 0. -1.
         -5    1    5    5    0  501 -0.45139191905E+02  0.24840913449E+02 -0.51353699706E+02  0.72896571252E+02  0.47000000000E+01 0.  1.
         13    1    6    6    0    0 -0.75816524488E+01  0.34880172094E+02 -0.37992239176E+03  0.38159550786E+03  0.00000000000E+00 0. -1.
        -14    1    6    6    0    0 -0.87498507544E+01 -0.37492902597E+02 -0.16993826170E+03  0.17424491505E+03  0.00000000000E+00 0.  1.
</event>
<event>
12    1  0.2609167E-002  0.1842205E+03  0.7818608E-02  0.1163780E+00
         -1   -1    0    0    0  501 -0.00000000000E+00  0.00000000000E+00  0.14222182788E+03  0.14222182788E+03  0.00000000000E+00 0. -1.
          1   -1    0    0  502    0  0.00000000000E+00 -0.00000000000E+00 -0.30831285604E+03  0.30831285604E+03  0.00000000000E+00 0.  1.
          6    2    1    2  502    0  0.46334469280E+02  0.25422343141E+02 -0.18894128798E+03  0.26164656766E+03  0.17310961121E+03 0.  0.
         24    2    3    3    0    0  0.21146341597E+02  0.59587876586E+02 -0.19312664428E+03  0.21873581541E+03  0.80929434774E+02 0.  0.
         -6    2    1    2    0  501 -0.46334469280E+02 -0.25422343141E+02  0.22850259819E+02  0.18888811626E+03  0.17989832549E+03 0.  0.
        -24    2    5    5    0    0  0.12236590133E+02 -0.24561813448E+02 -0.21723983875E+02  0.11512997967E+03  0.10968119221E+03 0.  0.
          5    1    3    3  502    0  0.25188127683E+02 -0.34165533445E+02  0.41853563027E+01  0.42910752255E+02  0.47000000000E+01 0. -1.
        -13    1    4    4    0    0  0.29094897491E+02  0.11725171506E+01 -0.12633768881E+03  0.12964991118E+03  0.00000000000E+00 0.  1.
         14    1    4    4    0    0 -0.79485558942E+01  0.58415359435E+02 -0.66788955473E+02  0.89085904227E+02  0.00000000000E+00 0. -1.
         -5    1    5    5    0  501 -0.58571059413E+02 -0.86052969238E+00  0.44574243694E+02  0.73758136588E+02  0.47000000000E+01 0.  1.
         11    1    6    6    0    0 -0.17963445624E+02 -0.61382569725E+02 -0.32144738734E+01  0.64037786400E+02  0.00000000000E+00 0. -1.
        -12    1    6    6    0    0  0.30200035757E+02  0.36820756276E+02 -0.18509510001E+02  0.51092193269E+02  0.00000000000E+00 0.  1.
</event>
<event>
12    1  0.2609167E-002  0.1957242E+03  0.7818608E-02  0.1153398E+00
          1   -1    0    0  502    0  0.00000000000E+00  0.00000000000E+00  0.11415233199E+04  0.11415233199E+04  0.00000000000E+00 0.  1.
         -1   -1    0    0    0  501 -0.00000000000E+00 -0.00000000000E+00 -0.64430324618E+02  0.64430324618E+02  0.00000000000E+00 0. -1.
          6    2    1    2  502    0 -0.68377689387E+02 -0.58083605517E+02  0.12281320397E+03  0.23203745130E+03  0.17524006990E+03 0.  0.
         24    2    3    3    0    0  0.11518157420E+02 -0.80598689337E+02  0.58640805947E+02  0.12701144497E+03  0.77873913206E+02 0.  0.
         -6    2    1    2    0  501  0.68377689387E+02  0.58083605517E+02  0.95427979136E+03  0.97391619327E+03  0.17266620307E+03 0.  0.
        -24    2    5    5    0    0  0.45305591397E+02  0.70678429693E+02  0.93208139836E+03  0.93919141893E+03  0.79099628150E+02 0.  0.
          5    1    3    3  502    0 -0.79895846807E+02  0.22515083821E+02  0.64172398025E+02  0.10502600633E+03  0.47000000000E+01 0. -1.
        -11    1    4    4    0    0  0.26093532815E+02  0.15084639874E+01  0.27649870195E+02  0.38048169998E+02  0.00000000000E+00 0.  1.
         12    1    4    4    0    0 -0.14575375395E+02 -0.82107153325E+02  0.30990935752E+02  0.88963274972E+02  0.00000000000E+00 0. -1.
         -5    1    5    5    0  501  0.23072097991E+02 -0.12594824177E+02  0.22198392995E+02  0.34724774345E+02  0.47000000000E+01 0.  1.
         13    1    6    6    0    0  0.23633552261E+02  0.37195245240E+02  0.15652998396E+03  0.16261508829E+03  0.00000000000E+00 0. -1.
        -14    1    6    6    0    0  0.21672039136E+02  0.33483184454E+02  0.77555141441E+03  0.77657633064E+03  0.00000000000E+00 0.  1.
</event>
<event>
12    1  0.2609167E-002  0.2832361E+03  0.7818608E-02  0.1093934E+00
          2   -1    0    0  502    0  0.00000000000E+00  0.00000000000E+00  0.11115357773E+04  0.11115357773E+04  0.00000000000E+00 0. -1.
         -2   -1    0    0    0  501 -0.00000000000E+00 -0.00000000000E+00 -0.75874951760E+02  0.75874951760E+02  0.00000000000E+00 0.  1.
          6    2    1    2  502    0 -0.15822532708E+03  0.15924217050E+03  0.64881214307E+03  0.70790332220E+03  0.17255895684E+03 0.  0.
         24    2    3    3    0    0 -0.24039725081E+02  0.77228533312E+02  0.39465531973E+03  0.40898896436E+03  0.70547833705E+02 0.  0.
         -6    2    1    2    0  501  0.15822532708E+03 -0.15924217050E+03  0.38684868248E+03  0.47950740687E+03  0.17286447615E+03 0.  0.
        -24    2    5    5    0    0  0.15638728082E+03 -0.59279568923E+02  0.27063008580E+03  0.32612959772E+03  0.71755294381E+02 0.  0.
          5    1    3    3  502    0 -0.13418560200E+03  0.82013637185E+02  0.25415682334E+03  0.29891435784E+03  0.47000000000E+01 0. -1.
        -13    1    4    4    0    0 -0.44522396366E+02  0.70670350252E+02  0.27458816823E+03  0.28701080871E+03  0.00000000000E+00 0.  1.
         14    1    4    4    0    0  0.20482671285E+02  0.65581830592E+01  0.12006715149E+03  0.12197815565E+03  0.00000000000E+00 0. -1.
         -5    1    5    5    0  501  0.18380462600E+01 -0.99962601573E+02  0.11621859668E+03  0.15337780915E+03  0.47000000000E+01 0.  1.
         13    1    6    6    0    0  0.17852738866E+02 -0.12740717921E+02  0.95724128927E+02  0.98204658938E+02  0.00000000000E+00 0. -1.
        -14    1    6    6    0    0  0.13853454196E+03 -0.46538851002E+02  0.17490595687E+03  0.22792493878E+03  0.00000000000E+00 0.  1.
</event>
<event>
12    1  0.2609167E-002  0.2670619E+03  0.7818608E-02  0.1102973E+00
         -1   -1    0    0    0  501 -0.00000000000E+00  0.00000000000E+00  0.12442178605E+03  0.12442178605E+03  0.00000000000E+00 0.  1.
          1   -1    0    0  502    0  0.00000000000E+00 -0.00000000000E+00 -0.15116534075E+04  0.15116534075E+04  0.00000000000E+00 0. -1.
          6    2    1    2  502    0  0.90746832047E+02 -0.18422556374E+03 -0.13388101395E+04  0.13653182001E+04  0.17177645883E+03 0.  0.
         24    2    3    3    0    0  0.17996944473E+02 -0.10995149809E+03 -0.10366892860E+04  0.10457743328E+04  0.80660135476E+02 0.  0.
         -6    2    1    2    0  501 -0.90746832047E+02  0.18422556374E+03 -0.48421481901E+02  0.27075699348E+03  0.16967811807E+03 0.  0.
        -24    2    5    5    0    0  0.24425871321E+01  0.39085447071E+02 -0.32122644879E+02  0.97443221957E+02  0.83244692244E+02 0.  0.
          5    1    3    3  502    0  0.72749887573E+02 -0.74274065645E+02 -0.30212085357E+03  0.31954386730E+03  0.47000000000E+01 0. -1.
        -11    1    4    4    0    0 -0.12426442115E+02 -0.71908308948E+01 -0.39007163039E+03  0.39033575464E+03  0.00000000000E+00 0.  1.
         12    1    4    4    0    0  0.30423386588E+02 -0.10276066720E+03 -0.64661765558E+03  0.65543857811E+03  0.00000000000E+00 0. -1.
         -5    1    5    5    0  501 -0.93189419179E+02  0.14514011667E+03 -0.16298837022E+02  0.17331377153E+03  0.47000000000E+01 0.  1.
         13    1    6    6    0    0 -0.56460978123E+01 -0.15251190777E+02  0.17159749004E+02  0.23641789833E+02  0.00000000000E+00 0. -1.
        -14    1    6    6    0    0  0.80886849444E+01  0.54336637848E+02 -0.49282393883E+02  0.73801432124E+02  0.00000000000E+00 0.  1.
</event>
<event>
12    1  0.2609167E-002  0.2035667E+03  0.7818608E-02  0.1146764E+00
          2   -1    0    0  502    0  0.00000000000E+00  0.00000000000E+00  0.16877979469E+03  0.16877979469E+03  0.00000000000E+00 0.  1.
         -2   -1    0    0    0  501 -0.00000000000E+00 -0.00000000000E+00 -0.30818910723E+03  0.30818910723E+03  0.00000000000E+00 0. -1.
          6    2    1    2  502    0  0.10648511414E+03 -0.19805629886E+02 -0.17710145283E+03  0.26943436114E+03  0.17175158765E+03 0.  0.
         24    2    3    3    0    0  0.86365030589E+02 -0.34414189496E+02 -0.37005494469E+02  0.12707146104E+03  0.78323014769E+02 0.  0.
         -6    2    1    2    0  501 -0.10648511414E+03  0.19805629886E+02  0.37692140292E+02  0.20753454078E+03  0.17296978253E+03 0.  0.
        -24    2    5    5    0    0 -0.78598122759E+02 -0.60446486771E+01  0.88734631224E+02  0.14371176216E+03  0.81024892013E+02 0.  0.
          5    1    3    3  502    0  0.20120083555E+02  0.14608559610E+02 -0.14009595836E+03  0.14236290010E+03  0.47000000000E+01 0. -1.
        -13    1    4    4    0    0  0.20911904446E+02 -0.38206433747E+02  0.12046104296E+02  0.45190131179E+02  0.00000000000E+00 0.  1.
         14    1    4    4    0    0  0.65453126143E+02  0.37922442514E+01 -0.49051598765E+02  0.81881329860E+02  0.00000000000E+00 0. -1.
         -5    1    5    5    0  501 -0.27886991385E+02  0.25850278563E+02 -0.51042490932E+02  0.63822778620E+02  0.47000000000E+01 0.  1.
         13    1    6    6    0    0 -0.68960397286E+02  0.14354020474E+02  0.22819514046E+02  0.74042585847E+02  0.00000000000E+00 0. -1.
        -14    1    6    6    0    0 -0.96377254724E+01 -0.20398669151E+02  0.65915117178E+02  0.69669176312E+02  0.00000000000E+00 0.  1.
</event>
<event>
12    1  0.2609167E-002  0.1894227E+03  0.7818608E-02  0.1158983E+00
         -2   -1    0    0    0  501 -0.00000000000E+00  0.00000000000E+00  0.19106582680E+02  0.19106582680E+02  0.00000000000E+00 0.  1.
          2   -1    0    0  502    0  0.00000000000E+00 -0.00000000000E+00 -0.19371329976E+04  0.19371329976E+04  0.00000000000E+00 0. -1.
          6    2    1    2  502    0  0.54869824737E+02 -0.63823879352E+02 -0.77631744049E+03  0.79851174968E+03  0.16693729576E+03 0.  0.
         24    2    3    3    0    0 -0.31714219967E+02 -0.45229182888E+02 -0.36286462841E+03  0.37565494489E+03  0.79965169525E+02 0.  0.
         -6    2    1    2    0  501 -0.54869824737E+02  0.63823879352E+02 -0.11417089745E+04  0.11577278306E+04  0.17248235337E+03 0.  0.
        -24    2    5    5    0    0 -0.97419976967E+02  0.76370040168E+02 -0.85290673398E+03  0.86550061474E+03  0.79488252552E+02 0.  0.
          5    1    3    3  502    0  0.86584044703E+02 -0.18594696464E+02 -0.41345281209E+03  0.42285680479E+03  0.47000000000E+01 0. -1.
        -13    1    4    4    0    0  0.51783328449E+01  0.12547665322E+02 -0.11880131648E+02  0.18038751732E+02  0.00000000000E+00 0.  1.
         14    1    4    4    0    0 -0.36892552812E+02 -0.57776848211E+02 -0.35098449676E+03  0.35761619316E+03  0.00000000000E+00 0. -1.
         -5    1    5    5    0  501  0.42550152230E+02 -0.12546160816E+02 -0.28880224047E+03  0.29222721589E+03  0.47000000000E+01 0.  1.
         11    1    6    6    0    0  0.54799487424E+01  0.17883660730E+02 -0.27291029575E+03  0.27355051578E+03  0.00000000000E+00 0. -1.
        -12    1    6    6    0    0 -0.10289992571E+03  0.58486379439E+02 -0.57999643823E+03  0.59195009896E+03  0.00000000000E+00 0.  1.
</event>
<event>
12    1  0.2609167E-002  0.1893927E+03  0.7818608E-02  0.1159010E+00
         -3   -1    0    0    0  501 -0.00000000000E+00  0.00000000000E+00  0.13096925580E+03  0.13096925580E+03  0.00000000000E+00 0. -1.
          3   -1    0    0  502    0  0.00000000000E+00 -0.00000000000E+00 -0.27466673400E+03  0.27466673400E+03  0.00000000000E+00 0.  1.
          6    2    1    2  502    0 -0.75643701666E+02 -0.73296903508E+01 -0.82689157192E+02  0.20658798389E+03  0.17339378423E+03 0.  0.
         24    2    3    3    0    0  0.24127141578E+02 -0.12588900965E+02 -0.13913735075E+02  0.85204174651E+02  0.79533389001E+02 0.  0.
         -6    2    1    2    0  501  0.75643701666E+02  0.73296903508E+01 -0.61008321007E+02  0.19904800591E+03  0.17355805790E+03 0.  0.
        -24    2    5    5    0    0  0.99773425908E+02 -0.94309394555E+01  0.36984164609E+01  0.12782852699E+03  0.79263957083E+02 0.  0.
          5    1    3    3  502    0 -0.99770843245E+02  0.52592106145E+01 -0.68775422117E+02  0.12138380924E+03  0.47000000000E+01 0. -1.
        -13    1    4    4    0    0 -0.15226868876E+02 -0.34839907539E+02 -0.12316177914E+02  0.39967048071E+02  0.00000000000E+00 0.  1.
         14    1    4    4    0    0  0.39354010454E+02  0.22251006574E+02 -0.15975571614E+01  0.45237126580E+02  0.00000000000E+00 0. -1.
         -5    1    5    5    0  501 -0.24129724242E+02  0.16760629806E+02 -0.64706737468E+02  0.71219478917E+02  0.47000000000E+01 0.  1.
         13    1    6    6    0    0  0.33084169037E+02 -0.54284283944E+01  0.39678902757E+02  0.51946562925E+02  0.00000000000E+00 0. -1.
        -14    1    6    6    0    0  0.66689256871E+02 -0.40025110611E+01 -0.35980486296E+02  0.75881964069E+02  0.00000000000E+00 0.  1.
</event>
<event>
12    1  0.2609167E-002  0.2377708E+03  0.7818608E-02  0.1121287E+00
         -1   -1    0    0    0  501 -0.00000000000E+00  0.00000000000E+00  0.31677513700E+02  0.31677513700E+02  0.00000000000E+00 0.  1.
          1   -1    0    0  502    0  0.00000000000E+00 -0.00000000000E+00 -0.20445788542E+04  0.20445788542E+04  0.00000000000E+00 0. -1.
          6    2    1    2  502    0  0.14197589456E+03  0.80079424332E+02 -0.13787131390E+04  0.13991652896E+04  0.17390721371E+03 0.  0.
         24    2    3    3    0    0  0.54820987204E+02  0.36651869560E+01 -0.95055961523E+03  0.95557466356E+03  0.80873860354E+02 0.  0.
         -6    2    1    2    0  501 -0.14197589456E+03 -0.80079424332E+02 -0.63418820146E+03  0.67709107831E+03  0.17230143535E+03 0.  0.
        -24    2    5    5    0    0 -0.16073127981E+03 -0.96460752653E+02 -0.49291988878E+03  0.53356777512E+03  0.81150063325E+02 0.  0.
          5    1    3    3  502    0  0.87154907360E+02  0.76414237376E+02 -0.42815352378E+03  0.44359062600E+03  0.47000000000E+01 0. -1.
        -11    1    4    4    0    0  0.41494335026E+01 -0.81040065044E+01 -0.97950773057E+01  0.13372967481E+02  0.00000000000E+00 0.  1.
         12    1    4    4    0    0  0.50671553701E+02  0.11769193460E+02 -0.94076453793E+03  0.94220169608E+03  0.00000000000E+00 0. -1.
         -5    1    5    5    0  501  0.18755385243E+02  0.16381328321E+02 -0.14126831267E+03  0.14352330319E+03  0.47000000000E+01 0.  1.
         13    1    6    6    0    0 -0.42936339449E+02 -0.72030668167E+02 -0.19399152859E+03  0.21134015134E+03  0.00000000000E+00 0. -1.
        -14    1    6    6    0    0 -0.11779494036E+03 -0.24430084486E+02 -0.29892836019E+03  0.32222762378E+03  0.00000000000E+00 0.  1.
</event>
<event>
12    1  0.2609167E-002  0.3138333E+03  0.7818608E-02  0.1078523E+00
          2   -1    0    0  502    0  0.00000000000E+00  0.00000000000E+00  0.35227154929E+03  0.35227154929E+03  0.00000000000E+00 0.  1.
         -2   -1    0    0    0  501 -0.00000000000E+00 -0.00000000000E+00 -0.30326898797E+03  0.30326898797E+03  0.00000000000E+00 0. -1.
          6    2    1    2  502    0  0.19412585062E+03 -0.17617957005E+03 -0.67086373084E+02  0.32094504313E+03  0.17257187626E+03 0.  0.
         24    2    3    3    0    0  0.13400423009E+03 -0.10851385353E+03  0.25374338406E+02  0.19146789605E+03  0.79269843435E+02 0.  0.
         -6    2    1    2    0  501 -0.19412585062E+03  0.17617957005E+03  0.11608893440E+03  0.33459549412E+03  0.17249178882E+03 0.  0.
        -24    2    5    5    0    0 -0.69285457136E+02  0.15156560336E+03  0.90187510962E+02  0.20465725903E+03  0.77318819506E+02 0.  0.
          5    1    3    3  502    0  0.60121620531E+02 -0.67665716520E+02 -0.92460711490E+02  0.12947714708E+03  0.47000000000E+01 0. -1.
        -11    1    4    4    0    0  0.12100153107E+02 -0.30725552586E+02 -0.21555471203E+02  0.39434903648E+02  0.00000000000E+00 0.  1.
         12    1    4    4    0    0  0.12190407698E+03 -0.77788300949E+02  0.46929809609E+02  0.15203299240E+03  0.00000000000E+00 0. -1.
         -5    1    5    5    0  501 -0.12484039348E+03  0.24613966699E+02  0.25901423443E+02  0.12993823509E+03  0.47000000000E+01 0.  1.
         11    1    6    6    0    0 -0.11031599409E+01 -0.78948623148E+01 -0.20467264346E+01  0.82301216226E+01  0.00000000000E+00 0. -1.
        -12    1    6    6    0    0 -0.68182297195E+02  0.15946046567E+03  0.92234237396E+02  0.19642713741E+03  0.00000000000E+00 0.  1.
</event>
<event>
12    1  0.2609167E-002  0.2545873E+03  0.7818608E-02  0.1110440E+00
          1   -1    0    0  502    0  0.00000000000E+00  0.00000000000E+00  0.11401943330E+04  0.11401943330E+04  0.00000000000E+00 0.  1.
         -1   -1    0    0    0  501 -0.00000000000E+00 -0.00000000000E+00 -0.71690772425E+02  0.71690772425E+02  0.00000000000E+00 0. -1.
          6    2    1    2  502    0 -0.10731533205E+03  0.15511286036E+03  0.80827372373E+03  0.84711349132E+03  0.16946467115E+03 0.  0.
         24    2    3    3    0    0 -0.11231207699E+03  0.15290937526E+03  0.52306194747E+03  0.56181072211E+03  0.77731633833E+02 0.  0.
         -6    2    1    2    0  501  0.10731533205E+03 -0.15511286036E+03  0.26022983687E+03  0.36477161413E+03  0.17251719490E+03 0.  0.
        -24    2    5    5    0    0  0.99460162746E+02 -0.10581066918E+03  0.91675746902E+02  0.18891661424E+03  0.78719901429E+02 0.  0.
          5    1    3    3  502    0  0.49967449490E+01  0.22034850932E+01  0.28521177626E+03  0.28530276922E+03  0.47000000000E+01 0. -1.
        -11    1    4    4    0    0 -0.90384265558E+02  0.66720936925E+02  0.34399598112E+03  0.36187599245E+03  0.00000000000E+00 0.  1.
         12    1    4    4    0    0 -0.21927811436E+02  0.86188438337E+02  0.17906596636E+03  0.19993472966E+03  0.00000000000E+00 0. -1.
         -5    1    5    5    0  501  0.78551692999E+01 -0.49302191172E+02  0.16855408997E+03  0.17585499988E+03  0.47000000000E+01 0.  1.
         13    1    6    6    0    0  0.27107690064E+02 -0.56925467282E+02  0.10360623370E+01  0.63058775052E+02  0.00000000000E+00 0. -1.
        -14    1    6    6    0    0  0.72352472681E+02 -0.48885201901E+02  0.90639684565E+02  0.12585783919E+03  0.00000000000E+00 0.  1.
</event>
<event>
12    1  0.2609167E-002  0.1728723E+03  0.7818608E-02  0.1174885E+00
         -2   -1    0    0    0  501 -0.00000000000E+00  0.00000000000E+00  0.15419680622E+02  0.15419680622E+02  0.00000000000E+00 0. -1.
          2   -1    0    0  502    0  0.00000000000E+00 -0.00000000000E+00 -0.19419045973E+04  0.19419045973E+04  0.00000000000E+00 0.  1.
          6    2    1    2  502    0 -0.66677472853E+00  0.25259757247E+02 -0.10128810442E+04  0.10277367565E+04  0.17226819512E+03 0.  0.
         24    2    3    3    0    0 -0.35689627114E+02 -0.28135050100E+02 -0.34915606474E+03  0.36093052978E+03  0.79344560340E+02 0.  0.
         -6    2    1    2    0  501  0.66677472853E+00 -0.25259757247E+02 -0.91360387249E+03  0.92958752143E+03  0.16977168269E+03 0.  0.
        -24    2    5    5    0    0 -0.57486664310E+02 -0.36209802611E+02 -0.44317937370E+03  0.45543245710E+03  0.79968114454E+02 0.  0.
          5    1    3    3  502    0  0.35022852386E+02  0.53394807347E+02 -0.66372497948E+03  0.66680622675E+03  0.47000000000E+01 0. -1.
        -11    1    4    4    0    0 -0.33881325050E+02  0.22469349649E+02 -0.16569645178E+03  0.17061104887E+03  0.00000000000E+00 0.  1.
         12    1    4    4    0    0 -0.18083020640E+01 -0.50604399749E+02 -0.18345961295E+03  0.19031948091E+03  0.00000000000E+00 0. -1.
         -5    1    5    5    0  501  0.58153439039E+02  0.10950045364E+02 -0.47042449880E+03  0.47415506433E+03  0.47000000000E+01 0.  1.
         13    1    6    6    0    0  0.48982955018E+01 -0.36987066421E+02 -0.10231622152E+03  0.10890659102E+03  0.00000000000E+00 0. -1.
        -14    1    6    6    0    0 -0.62384959812E+02  0.77726380996E+00 -0.34086315218E+03  0.34652586608E+03  0.00000000000E+00 0.  1.
</event>
<event>
12    1  0.2609167E-002  0.1749891E+03  0.7818608E-02  0.1172743E+00
          1   -1    0    0  502    0  0.00000000000E+00  0.00000000000E+00  0.16618676680E+04  0.16618676680E+04  0.00000000000E+00 0. -1.
         -1   -1    0    0    0  501 -0.00000000000E+00 -0.00000000000E+00 -0.18428714536E+02  0.18428714536E+02  0.00000000000E+00 0.  1.
          6    2    1    2  502    0 -0.12367016088E+02  0.26436584577E+02  0.82876017966E+03  0.84689686270E+03  0.17186920771E+03 0.  0.
         24    2    3    3    0    0 -0.65830908035E+02 -0.18424992424E+02  0.54328965118E+03  0.55298112397E+03  0.77144601883E+02 0.  0.
         -6    2    1    2    0  501  0.12367016088E+02 -0.26436584577E+02  0.81467877381E+03  0.83339951985E+03  0.17320917729E+03 0.  0.
        -24    2    5    5    0    0 -0.10401749977E+02 -0.32503862112E+02  0.80105478878E+03  0.80577830458E+03  0.80157370542E+02 0.  0.
          5    1    3    3  502    0  0.53463891947E+02  0.44861577001E+02  0.28547052849E+03  0.29391573872E+03  0.47000000000E+01 0. -1.
        -13    1    4    4    0    0 -0.64984545646E+02  0.16955476961E+02  0.32844549849E+03  0.33524159177E+03  0.00000000000E+00 0.  1.
         14    1    4    4    0    0 -0.84636238886E+00 -0.35380469385E+02  0.21484415269E+03  0.21773953221E+03  0.00000000000E+00 0. -1.
         -5    1    5    5    0  501  0.22768766065E+02  0.60672775345E+01  0.13623985033E+02  0.27621215270E+02  0.47000000000E+01 0.  1.
         13    1    6    6    0    0  0.20197239057E+02 -0.33822306027E+02  0.19442203308E+03  0.19837289079E+03  0.00000000000E+00 0. -1.
        -14    1    6    6    0    0 -0.30598989034E+02  0.13184439148E+01  0.60663275569E+03  0.60740541379E+03  0.00000000000E+00 0.  1.
</event>
<event>
12    1  0.2609167E-002  0.1756941E+03  0.7818608E-02  0.1172037E+00
         -2   -1    0    0    0  501 -0.00000000000E+00  0.00000000000E+00  0.19500112776E+02  0.19500112776E+02  0.00000000000E+00 0. -1.
          2   -1    0    0  502    0  0.00000000000E+00 -0.00000000000E+00 -0.25938471093E+04  0.25938471093E+04  0.00000000000E+00 0.  1.
          6    2    1    2  502    0 -0.31214255196E+01  0.42213986497E+02 -0.20935251760E+04  0.21007137021E+04  0.16840021239E+03 0.  0.
         24    2    3    3    0    0  0.34517627279E+02  0.14183024988E+02 -0.18765648021E+04  0.18786859404E+04  0.81072692344E+02 0.  0.
         -6    2    1    2    0  501  0.31214255196E+01 -0.42213986497E+02 -0.48082182058E+03  0.51263352007E+03  0.17266076219E+03 0.  0.
        -24    2    5    5    0    0 -0.25759770044E+02 -0.30198765004E+02 -0.11061367948E+03  0.14107646289E+03  0.78049030310E+02 0.  0.
          5    1    3    3  502    0 -0.37639052799E+02  0.28030961509E+02 -0.21696037389E+03  0.22202776164E+03  0.47000000000E+01 0. -1.
        -11    1    4    4    0    0 -0.20561315439E+02  0.12191819897E+02 -0.10568769239E+04  0.10571472179E+04  0.00000000000E+00 0.  1.
         12    1    4    4    0    0  0.55078942718E+02  0.19912050909E+01 -0.81968787824E+03  0.82153872250E+03  0.00000000000E+00 0. -1.
         -5    1    5    5    0  501  0.28881195564E+02 -0.12015221493E+02 -0.37020814110E+03  0.37155705718E+03  0.47000000000E+01 0.  1.
         11    1    6    6    0    0 -0.57461306565E+01  0.24918123430E+02 -0.53120956669E+02  0.58955635271E+02  0.00000000000E+00 0. -1.
        -12    1    6    6    0    0 -0.20013639388E+02 -0.55116888434E+02 -0.57492722809E+02  0.82120827615E+02  0.00000000000E+00 0.  1.
</event>
<event>
12    1  0.2609167E-002  0.2822883E+03  0.7818608E-02  0.1094446E+00
          1   -1    0    0  502    0  0.00000000000E+00  0.00000000000E+00  0.89692027837E+03  0.89692027837E+03  0.00000000000E+00 0.  1.
         -1   -1    0    0    0  501 -0.00000000000E+00 -0.00000000000E+00 -0.92993131884E+02  0.92993131884E+02  0.00000000000E+00 0. -1.
          6    2    1    2  502    0  0.10664402937E+03  0.19625693596E+03  0.50650129272E+03  0.57985322140E+03  0.17261652567E+03 0.  0.
         24    2    3    3    0    0  0.10971620402E+03  0.17147770310E+03  0.29660792577E+03  0.36842766920E+03  0.79501180572E+02 0.  0.
         -6    2    1    2    0  501 -0.10664402937E+03 -0.19625693596E+03  0.29742585376E+03  0.41006018885E+03  0.17261948348E+03 0.  0.
        -24    2    5    5    0    0  0.49937722493E+01 -0.11956569554E+03  0.12504794242E+03  0.19078689037E+03  0.80260552700E+02 0.  0.
          5    1    3    3  502    0 -0.30721746489E+01  0.24779232857E+02  0.20989336695E+03  0.21142555221E+03  0.47000000000E+01 0. -1.
        -11    1    4    4    0    0  0.68377139226E+02  0.36799911133E+02  0.10755825388E+03  0.13265912937E+03  0.00000000000E+00 0.  1.
         12    1    4    4    0    0  0.41339064794E+02  0.13467779197E+03  0.18904967189E+03  0.23576853983E+03  0.00000000000E+00 0. -1.
         -5    1    5    5    0  501 -0.11163780162E+03 -0.76691240417E+02  0.17237791134E+03  0.21927329848E+03  0.47000000000E+01 0.  1.
         11    1    6    6    0    0  0.39297406808E+02 -0.45823113138E+02  0.70716723583E+02  0.92977948320E+02  0.00000000000E+00 0. -1.
        -12    1    6    6    0    0 -0.34303634558E+02 -0.73742582406E+02  0.54331218839E+02  0.97808942047E+02  0.00000000000E+00 0.  1.
</event>
<event>
12    1  0.2609167E-002  0.1996643E+03  0.7818608E-02  0.1150023E+00
          3   -1    0    0  502    0  0.00000000000E+00  0.00000000000E+00  0.15357401786E+03  0.15357401786E+03  0.00000000000E+00 0.  1.
         -3   -1    0    0    0  501 -0.00000000000E+00 -0.00000000000E+00 -0.31549841581E+03  0.31549841581E+03  0.00000000000E+00 0. -1.
          6    2    1    2  502    0  0.33639454038E+01 -0.10032960487E+03  0.17733734083E+02  0.20056013586E+03  0.17272098028E+03 0.  0.
         24    2    3    3    0    0 -0.55308809830E+02 -0.10027371426E+03  0.94700397184E+01  0.14112215158E+03  0.81926172850E+02 0.  0.
         -6    2    1    2    0  501 -0.33639454038E+01  0.10032960487E+03 -0.17965813204E+03  0.26851229781E+03  0.17246583408E+03 0.  0.
        -24    2    5    5    0    0  0.51361724320E+02  0.93504635650E+02 -0.86201734880E+02  0.15989523054E+03  0.82186385985E+02 0.  0.
          5    1    3    3  502    0  0.58672755234E+02 -0.55890615231E-01  0.82636943650E+01  0.59437984279E+02  0.47000000000E+01 0. -1.
        -11    1    4    4    0    0 -0.41332234869E+02 -0.11380811897E+03  0.11153403969E+02  0.12159374985E+03  0.00000000000E+00 0.  1.
         12    1    4    4    0    0 -0.13976574962E+02  0.13534404716E+02 -0.16833642510E+01  0.19528401724E+02  0.00000000000E+00 0. -1.
         -5    1    5    5    0  501 -0.54725669724E+02  0.68249692225E+01 -0.93456397162E+02  0.10861706727E+03  0.47000000000E+01 0.  1.
         11    1    6    6    0    0 -0.16483014747E+02  0.36933476680E+02 -0.50297606357E+02  0.64541619751E+02  0.00000000000E+00 0. -1.
        -12    1    6    6    0    0  0.67844739067E+02  0.56571158970E+02 -0.35904128523E+02  0.95353610793E+02  0.00000000000E+00 0.  1.
</event>
<event>
12    1  0.2609167E-002  0.3144349E+03  0.7818608E-02  0.1078239E+00
         -2   -1    0    0    0  501 -0.00000000000E+00  0.00000000000E+00  0.20236248291E+03  0.20236248291E+03  0.00000000000E+00 0. -1.
          2   -1    0    0  502    0  0.00000000000E+00 -0.00000000000E+00 -0.51500728890E+03  0.51500728890E+03  0.00000000000E+00 0.  1.
          6    2    1    2  502    0  0.22274461909E+03 -0.14017665383E+03 -0.23769257181E+03  0.39435510403E+03  0.17249211510E+03 0.  0.
         24    2    3    3    0    0  0.13616153011E+03 -0.49499676075E+02 -0.21652893232E+03  0.26711935737E+03  0.58972810148E+02 0.  0.
         -6    2    1    2    0  501 -0.22274461909E+03  0.14017665383E+03 -0.74952234187E+02  0.32301466778E+03  0.17162744120E+03 0.  0.
        -24    2    5    5    0    0 -0.59403705564E+02  0.10431730539E+03 -0.59408611886E+02  0.15499728446E+03  0.77999196047E+02 0.  0.
          5    1    3    3  502    0  0.86583088980E+02 -0.90676977760E+02 -0.21163639490E+02  0.12723574667E+03  0.47000000000E+01 0. -1.
        -11    1    4    4    0    0  0.23884613700E+02 -0.36011000262E+02 -0.64743211921E+02  0.77839260025E+02  0.00000000000E+00 0.  1.
         12    1    4    4    0    0  0.11227691641E+03 -0.13488675813E+02 -0.15178572040E+03  0.18928009734E+03  0.00000000000E+00 0. -1.
         -5    1    5    5    0  501 -0.16334091353E+03  0.35859348441E+02 -0.15543622301E+02  0.16801738332E+03  0.47000000000E+01 0.  1.
         13    1    6    6    0    0 -0.64561782839E+02  0.87091138714E+02 -0.18057047587E+02  0.10990517373E+03  0.00000000000E+00 0. -1.
        -14    1    6    6    0    0  0.51580772753E+01  0.17226166680E+02 -0.41351564299E+02  0.45092110725E+02  0.00000000000E+00 0.  1.
</event>
<event>
12    1  0.2609167E-002  0.2049161E+03  0.7818608E-02  0.1145656E+00
         -2   -1    0    0    0  501 -0.00000000000E+00  0.00000000000E+00  0.99012800838E+03  0.99012800838E+03  0.00000000000E+00 0.  1.
          2   -1    0    0  502    0  0.00000000000E+00 -0.00000000000E+00 -0.46206810954E+02  0.46206810954E+02  0.00000000000E+00 0. -1.
          6    2    1    2  502    0  0.70216891306E+02 -0.87139192577E+02  0.32222393850E+03  0.38155971886E+03  0.17098509235E+03 0.  0.
         24    2    3    3    0    0 -0.60482724460E+01 -0.96605025736E+02  0.22162609226E+03  0.25487904209E+03  0.80474149436E+02 0.  0.
         -6    2    1    2    0  501 -0.70216891306E+02  0.87139192577E+02  0.62169725893E+03  0.65477510048E+03  0.17233484772E+03 0.  0.
        -24    2    5    5    0    0 -0.10003561835E+03  0.10509386251E+03  0.44940789313E+03  0.47894210521E+03  0.79788726450E+02 0.  0.
          5    1    3    3  502    0  0.76265163752E+02  0.94658331591E+01  0.10059784624E+03  0.12668067678E+03  0.47000000000E+01 0. -1.
        -13    1    4    4    0    0  0.28138051768E+02 -0.37134166831E+02  0.14368948565E+03  0.15105417767E+03  0.00000000000E+00 0.  1.
         14    1    4    4    0    0 -0.34186324214E+02 -0.59470858904E+02  0.77936606605E+02  0.10382486442E+03  0.00000000000E+00 0. -1.
         -5    1    5    5    0  501  0.29818727041E+02 -0.17954669929E+02  0.17228936580E+03  0.17583299526E+03  0.47000000000E+01 0.  1.
         11    1    6    6    0    0 -0.10081814599E+03  0.58279844925E+02  0.28169102919E+03  0.30481252404E+03  0.00000000000E+00 0. -1.
        -12    1    6    6    0    0  0.78252764144E+00  0.46814017581E+02  0.16771686394E+03  0.17412958118E+03  0.00000000000E+00 0.  1.
</event>
<event>
12    1  0.2609167E-002  0.2501523E+03  0.7818608E-02  0.1113209E+00
         -2   -1    0    0    0  501 -0.00000000000E+00  0.00000000000E+00  0.30504308825E+03  0.30504308825E+03  0.00000000000E+00 0.  1.
          2   -1    0    0  502    0  0.00000000000E+00 -0.00000000000E+00 -0.22076674971E+03  0.22076674971E+03  0.00000000000E+00 0. -1.
          6    2    1    2  502    0  0.17357206964E+03  0.50804066052E+02  0.11202193402E+03  0.27371594914E+03  0.17223005145E+03 0.  0.
         24    2    3    3    0    0  0.11322716504E+03  0.95466727904E+02  0.10405890607E+03  0.19807362838E+03  0.80440159674E+02 0.  0.
         -6    2    1    2    0  501 -0.17357206964E+03 -0.50804066052E+02 -0.27745595470E+02  0.25209388882E+03  0.17341624556E+03 0.  0.
        -24    2    5    5    0    0 -0.51407668046E+02 -0.43267148835E+02  0.37650822119E+02  0.11324243016E+03  0.83014872643E+02 0.  0.
          5    1    3    3  502    0  0.60344904604E+02 -0.44662661852E+02  0.79630279475E+01  0.75642320757E+02  0.47000000000E+01 0. -1.
        -13    1    4    4    0    0 -0.19137933223E+01  0.38270459138E+02  0.36134698789E+02  0.52668843770E+02  0.00000000000E+00 0.  1.
         14    1    4    4    0    0  0.11514095836E+03  0.57196268766E+02  0.67924207281E+02  0.14540478461E+03  0.00000000000E+00 0. -1.
         -5    1    5    5    0  501 -0.12216440160E+03 -0.75369172175E+01 -0.65396417590E+02  0.13885145866E+03  0.47000000000E+01 0.  1.
         13    1    6    6    0    0 -0.14521471416E+02 -0.43679866999E+02 -0.15477899751E+02  0.48563044528E+02  0.00000000000E+00 0. -1.
        -14    1    6    6    0    0 -0.36886196631E+02  0.41271816392E+00  0.53128721870E+02  0.64679385632E+02  0.00000000000E+00 0.  1.
</event>
<event>
12    1  0.2609167E-002  0.2752465E+03  0.7818608E-02  0.1098314E+00
         -4   -1    0    0    0  501 -0.00000000000E+00  0.00000000000E+00  0.82912212847E+03  0.82912212847E+03  0.00000000000E+00 0. -1.
          4   -1    0    0  502    0  0.00000000000E+00 -0.00000000000E+00 -0.94819857509E+02  0.94819857509E+02  0.00000000000E+00 0.  1.
          6    2    1    2  502    0  0.21762891771E+03 -0.12682603292E+02  0.45248015883E+03  0.52855180328E+03  0.16463754239E+03 0.  0.
         24    2    3    3    0    0  0.10006598907E+03  0.53413126778E+02  0.22740412147E+03  0.26611895412E+03  0.78996829049E+02 0.  0.
         -6    2    1    2    0  501 -0.21762891771E+03  0.12682603292E+02  0.28182211213E+03  0.39539018270E+03  0.17142490904E+03 0.  0.
        -24    2    5    5    0    0 -0.41311593564E+02  0.38547122559E+02  0.97071840020E+02  0.13865778273E+03  0.81305043910E+02 0.  0.
          5    1    3    3  502    0  0.11756292864E+03 -0.66095730070E+02  0.22507603737E+03  0.26243284916E+03  0.47000000000E+01 0. -1.
        -13    1    4    4    0    0  0.29533302704E+02 -0.18816358374E+02  0.81378499852E+02  0.88593067162E+02  0.00000000000E+00 0.  1.
         14    1    4    4    0    0  0.70532686364E+02  0.72229485152E+02  0.14602562161E+03  0.17752588695E+03  0.00000000000E+00 0. -1.
         -5    1    5    5    0  501 -0.17631732415E+03 -0.25864519268E+02  0.18475027211E+03  0.25673239998E+03  0.47000000000E+01 0.  1.
         13    1    6    6    0    0  0.34143512923E+01 -0.15337546031E+02  0.54465232259E+02  0.56686503138E+02  0.00000000000E+00 0. -1.
        -14    1    6    6    0    0 -0.44725944856E+02  0.53884668590E+02  0.42606607761E+02  0.81971279588E+02  0.00000000000E+00 0.  1.
</event>
<event>
12    1  0.2609167E-002  0.2147868E+03  0.7818608E-02  0.1137830E+00
          2   -1    0    0  502    0  0.00000000000E+00  0.00000000000E+00  0.36097160734E+03  0.36097160734E+03  0.00000000000E+00 0.  1.
         -2   -1    0    0    0  501 -0.00000000000E+00 -0.00000000000E+00 -0.12818792118E+03  0.12818792118E+03  0.00000000000E+00 0. -1.
          6    2    1    2  502    0  0.61395487276E+02  0.10937695481E+03  0.12918055340E+03  0.24975993593E+03  0.17308866547E+03 0.  0.
         24    2    3    3    0    0  0.35063975544E+02  0.23887846798E+02  0.13262180568E+03  0.16011804663E+03  0.79051463673E+02 0.  0.
         -6    2    1    2    0  501 -0.61395487276E+02 -0.10937695481E+03  0.10360313276E+03  0.23939959259E+03  0.17562981442E+03 0.  0.
        -24    2    5    5    0    0 -0.53177274180E+02 -0.13681576757E+03  0.43465749862E+02  0.17262368157E+03  0.79770215501E+02 0.  0.
          5    1    3    3  502    0  0.26331511733E+02  0.85489108016E+02 -0.34412522809E+01  0.89641889297E+02  0.47000000000E+01 0. -1.
        -13    1    4    4    0    0 -0.19736020568E+02 -0.39542395108E+01  0.68065045764E+02  0.70978848771E+02  0.00000000000E+00 0.  1.
         14    1    4    4    0    0  0.54799996112E+02  0.27842086308E+02  0.64556759914E+02  0.89139197857E+02  0.00000000000E+00 0. -1.
         -5    1    5    5    0  501 -0.82182130961E+01  0.27438812757E+02  0.60137382896E+02  0.66775911028E+02  0.47000000000E+01 0.  1.
         11    1    6    6    0    0 -0.19544376592E+02 -0.13188735776E+01 -0.11349707510E+02  0.22639300883E+02  0.00000000000E+00 0. -1.
        -12    1    6    6    0    0 -0.33632897588E+02 -0.13549689399E+03  0.54815457373E+02  0.14998438068E+03  0.00000000000E+00 0.  1.
</event>
<event>
12    1  0.2609167E-002  0.1732295E+03  0.7818608E-02  0.1174521E+00
          2   -1    0    0  502    0  0.00000000000E+00  0.00000000000E+00  0.89194412684E+02  0.89194412684E+02  0.00000000000E+00 0.  1.
         -2   -1    0    0    0  501 -0.00000000000E+00 -0.00000000000E+00 -0.33658770552E+03  0.33658770552E+03  0.00000000000E+00 0. -1.
          6    2    1    2  502    0  0.10777287593E+02 -0.11868030362E+02 -0.12852905200E+03  0.21616573464E+03  0.17306330504E+03 0.  0.
         24    2    3    3    0    0  0.27477250439E+02 -0.59871067958E+02 -0.36176767829E+02  0.11064694594E+03  0.81206182308E+02 0.  0.
         -6    2    1    2    0  501 -0.10777287593E+02  0.11868030362E+02 -0.11886424083E+03  0.20961638356E+03  0.17191079209E+03 0.  0.
        -24    2    5    5    0    0 -0.48820318624E+02  0.46796357489E+02 -0.11773787790E+03  0.15774520718E+03  0.80299563575E+02 0.  0.
          5    1    3    3  502    0 -0.16699962846E+02  0.48003037595E+02 -0.92352284175E+02  0.10551878870E+03  0.47000000000E+01 0. -1.
        -11    1    4    4    0    0  0.38980951795E+02 -0.21816939005E+02  0.13830373598E+02  0.46762941142E+02  0.00000000000E+00 0.  1.
         12    1    4    4    0    0 -0.11503701356E+02 -0.38054128952E+02 -0.50007141427E+02  0.63884004797E+02  0.00000000000E+00 0. -1.
         -5    1    5    5    0  501  0.38043031031E+02 -0.34928327126E+02 -0.11263629330E+01  0.51871176383E+02  0.47000000000E+01 0.  1.
         11    1    6    6    0    0 -0.62877928773E+02  0.31411751467E+02 -0.48391333090E+02  0.85334946975E+02  0.00000000000E+00 0. -1.
        -12    1    6    6    0    0  0.14057610149E+02  0.15384606021E+02 -0.69346544810E+02  0.72410260203E+02  0.00000000000E+00 0.  1.
</event>
<event>
12    1  0.2609167E-002  0.2655396E+03  0.7818608E-02  0.1103860E+00
         -1   -1    0    0    0  501 -0.00000000000E+00  0.00000000000E+00  0.59224457153E+02  0.59224457153E+02  0.00000000000E+00 0. -1.
          1   -1    0    0  502    0  0.00000000000E+00 -0.00000000000E+00 -0.11976988155E+04  0.11976988155E+04  0.00000000000E+00 0.  1.
          6    2    1    2  502    0 -0.13319210859E+02  0.20255841831E+03 -0.61691311653E+03  0.67149058353E+03  0.17061798328E+03 0.  0.
         24    2    3    3    0    0  0.16241575521E+02  0.81054064629E+02 -0.15734006752E+03  0.19518540254E+03  0.80671521321E+02 0.  0.
         -6    2    1    2    0  501  0.13319210859E+02 -0.20255841831E+03 -0.52156124177E+03  0.58543268908E+03  0.17174978986E+03 0.  0.
        -24    2    5    5    0    0  0.17960268487E+02 -0.16423855298E+03 -0.24513732048E+03  0.30628716116E+03  0.80141410451E+02 0.  0.
          5    1    3    3  502    0 -0.29560786380E+02  0.12150435368E+03 -0.45957304901E+03  0.47630518098E+03  0.47000000000E+01 0. -1.
        -11    1    4    4    0    0 -0.31348841946E+02  0.17594121733E+02 -0.43429545290E+02  0.56377552404E+02  0.00000000000E+00 0.  1.
         12    1    4    4    0    0  0.47590417467E+02  0.63459942896E+02 -0.11391052223E+03  0.13880785014E+03  0.00000000000E+00 0. -1.
         -5    1    5    5    0  501 -0.46410576275E+01 -0.38319865324E+02 -0.27642392129E+03  0.27914552791E+03  0.47000000000E+01 0.  1.
         13    1    6    6    0    0  0.12749060984E+02 -0.43793367797E+02 -0.17800032625E+02  0.48961605166E+02  0.00000000000E+00 0. -1.
        -14    1    6    6    0    0  0.52112075027E+01 -0.12044518519E+03 -0.22733728786E+03  0.25732555600E+03  0.00000000000E+00 0.  1.
</event>
<event>
12    1  0.2609167E-002  0.1910433E+03  0.7818608E-02  0.1157524E+00
          1   -1    0    0  502    0  0.00000000000E+00  0.00000000000E+00  0.44644034520E+03  0.44644034520E+03  0.00000000000E+00 0. -1.
         -1   -1    0    0    0  501 -0.00000000000E+00 -0.00000000000E+00 -0.11484710608E+03  0.11484710608E+03  0.00000000000E+00 0.  1.
          6    2    1    2  502    0 -0.41135359369E+02  0.74329488547E+02  0.16464411553E+02  0.19384502174E+03  0.17345842426E+03 0.  0.
         24    2    3    3    0    0 -0.59485611040E+01  0.19773709636E+02  0.70496086653E+02  0.10925213966E+03  0.80869937643E+02 0.  0.
         -6    2    1    2    0  501  0.41135359369E+02 -0.74329488547E+02  0.31512882757E+03  0.36744242954E+03  0.16879209225E+03 0.  0.
        -24    2    5    5    0    0 -0.21257961682E+02 -0.71888781998E+02  0.12304229689E+03  0.16540726224E+03  0.81241969848E+02 0.  0.
          5    1    3    3  502    0 -0.35186798265E+02  0.54555778911E+02 -0.54031675099E+02  0.84592882081E+02  0.47000000000E+01 0. -1.
        -11    1    4    4    0    0 -0.29742157663E+02  0.41497937326E+02  0.46771098056E+02  0.69240236555E+02  0.00000000000E+00 0.  1.
         12    1    4    4    0    0  0.23793596559E+02 -0.21724227690E+02  0.23724988597E+02  0.40011903103E+02  0.00000000000E+00 0. -1.
         -5    1    5    5    0  501  0.62393321051E+02 -0.24407065487E+01  0.19208653067E+03  0.20203516730E+03  0.47000000000E+01 0.  1.
         11    1    6    6    0    0 -0.27867030932E+02 -0.49874615115E+01  0.81746627487E+02  0.86509868170E+02  0.00000000000E+00 0. -1.
        -12    1    6    6    0    0  0.66090692500E+01 -0.66901320487E+02  0.41295669405E+02  0.78897394069E+02  0.00000000000E+00 0.  1.
</event>
<event>
12    1  0.2609167E-002  0.5714322E+03  0.7818608E-02  0.9966514E-01
         -2   -1    0    0    0  501 -0.00000000000E+00  0.00000000000E+00  0.31780829725E+03  0.31780829725E+03  0.00000000000E+00 0.  1.
          2   -1    0    0  502    0  0.00000000000E+00 -0.00000000000E+00 -0.10852369003E+04  0.10852369003E+04  0.00000000000E+00 0. -1.
          6    2    1    2  502    0  0.54450208188E+03 -0.18327246062E+02 -0.22177406455E+03  0.61285390568E+03  0.17201095570E+03 0.  0.
         24    2    3    3    0    0  0.50291976864E+03  0.25337660239E+02 -0.18511203580E+03  0.54212974313E+03  0.77896738498E+02 0.  0.
         -6    2    1    2    0  501 -0.54450208188E+03  0.18327246062E+02 -0.54565453847E+03  0.79019129183E+03  0.17275704679E+03 0.  0.
        -24    2    5    5    0    0 -0.11972718025E+03  0.14275753912E+02 -0.16883745838E+03  0.22233274123E+03  0.79920996184E+02 0.  0.
          5    1    3    3  502    0  0.41582313235E+02 -0.43664906301E+02 -0.36662028747E+02  0.70724162548E+02  0.47000000000E+01 0. -1.
        -11    1    4    4    0    0  0.22041275672E+03  0.48400594335E+02 -0.70932315018E+02  0.23654977102E+03  0.00000000000E+00 0.  1.
         12    1    4    4    0    0  0.28250701193E+03 -0.23062934096E+02 -0.11417972078E+03  0.30557997211E+03  0.00000000000E+00 0. -1.
         -5    1    5    5    0  501 -0.42477490163E+03  0.40514921502E+01 -0.37681708010E+03  0.56785855061E+03  0.47000000000E+01 0.  1.
         11    1    6    6    0    0 -0.12948997281E+03  0.23009185123E+02 -0.15200505918E+03  0.20100401408E+03  0.00000000000E+00 0. -1.
        -12    1    6    6    0    0  0.97627925597E+01 -0.87334312109E+01 -0.16832399193E+02  0.21328727150E+02  0.00000000000E+00 0.  1.
</event>
<event>
12    1  0.2609167E-002  0.2392461E+03  0.7818608E-02  0.1120296E+00
          1   -1    0    0  502    0  0.00000000000E+00  0.00000000000E+00  0.25493517637E+03  0.25493517637E+03  0.00000000000E+00 0.  1.
         -1   -1    0    0    0  501 -0.00000000000E+00 -0.00000000000E+00 -0.23453977916E+03  0.23453977916E+03  0.00000000000E+00 0. -1.
          6    2    1    2  502    0 -0.67054723929E+02 -0.14206170651E+03 -0.39955792111E+02  0.23418342266E+03  0.16901936477E+03 0.  0.
         24    2    3    3    0    0 -0.87991321656E+02 -0.15516805181E+03 -0.56910430007E+02  0.20385740813E+03  0.80619159105E+02 0.  0.
         -6    2    1    2    0  501  0.67054723929E+02  0.14206170651E+03  0.60351189316E+02  0.25529153287E+03  0.19197300916E+03 0.  0.
        -24    2    5    5    0    0 -0.40898057121E+02  0.37749909478E+02  0.85448752235E+01  0.96418193017E+02  0.78267147068E+02 0.  0.
          5    1    3    3  502    0  0.20936597728E+02  0.13106345298E+02  0.16954637896E+02  0.30326014536E+02  0.47000000000E+01 0. -1.
        -13    1    4    4    0    0 -0.45940384718E+02 -0.18388507947E+02 -0.31114979465E+02  0.58453384160E+02  0.00000000000E+00 0.  1.
         14    1    4    4    0    0 -0.42050936938E+02 -0.13677954386E+03 -0.25795450541E+02  0.14540402397E+03  0.00000000000E+00 0. -1.
         -5    1    5    5    0  501  0.10795278105E+03  0.10431179703E+03  0.51806314093E+02  0.15887333986E+03  0.47000000000E+01 0.  1.
         13    1    6    6    0    0 -0.96644786718E+01 -0.24352294385E+02 -0.11831730893E+01  0.26226633188E+02  0.00000000000E+00 0. -1.
        -14    1    6    6    0    0 -0.31233578449E+02  0.62102203862E+02  0.97280483128E+01  0.70191559829E+02  0.00000000000E+00 0.  1.
</event>
<event>
12    1  0.2609167E-002  0.2063945E+03  0.7818608E-02  0.1144453E+00
          2   -1    0    0  502    0  0.00000000000E+00  0.00000000000E+00  0.99253175529E+03  0.99253175529E+03  0.00000000000E+00 0. -1.
         -2   -1    0    0    0  501 -0.00000000000E+00 -0.00000000000E+00 -0.56732352196E+02  0.56732352196E+02  0.00000000000E+00 0.  1.
          6    2    1    2  502    0 -0.10855531439E+03 -0.32906081060E+02  0.72802933355E+03  0.75692184122E+03  0.17331155975E+03 0.  0.
         24    2    3    3    0    0 -0.64617894431E+02  0.52506573293E+01  0.65670616744E+03  0.66475070918E+03  0.80171524307E+02 0.  0.
         -6    2    1    2    0  501  0.10855531439E+03  0.32906081060E+02  0.20777006955E+03  0.29234226627E+03  0.17154746398E+03 0.  0.
        -24    2    5    5    0    0  0.25317925069E+02  0.12223708034E+02  0.18580773180E+03  0.20368191541E+03  0.78558214733E+02 0.  0.
          5    1    3    3  502    0 -0.43937419962E+02 -0.38156738390E+02  0.71323166109E+02  0.92171132038E+02  0.47000000000E+01 0. -1.
        -13    1    4    4    0    0  0.41756460477E+01 -0.70374452763E+01  0.35353391463E+03  0.35362860524E+03  0.00000000000E+00 0.  1.
         14    1    4    4    0    0 -0.68793540479E+02  0.12288102606E+02  0.30317225282E+03  0.31112210393E+03  0.00000000000E+00 0. -1.
         -5    1    5    5    0  501  0.83237389324E+02  0.20682373026E+02  0.21962337744E+02  0.88660350861E+02  0.47000000000E+01 0.  1.
         13    1    6    6    0    0  0.45405523204E+02 -0.16405002289E+02  0.10097273555E+03  0.11192086026E+03  0.00000000000E+00 0. -1.
        -14    1    6    6    0    0 -0.20087598135E+02  0.28628710323E+02  0.84834996252E+02  0.91761055152E+02  0.00000000000E+00 0.  1.
</event>
<event>
12    1  0.2609167E-002  0.2119891E+03  0.7818608E-02  0.1140000E+00
          2   -1    0    0  502    0  0.00000000000E+00  0.00000000000E+00  0.27994329644E+03  0.27994329644E+03  0.00000000000E+00 0.  1.
         -2   -1    0    0    0  501 -0.00000000000E+00 -0.00000000000E+00 -0.16054846382E+03  0.16054846382E+03  0.00000000000E+00 0. -1.
          6    2    1    2  502    0  0.16759168122E+00 -0.12336863562E+03  0.57327559394E+02  0.21952212895E+03  0.17228948805E+03 0.  0.
         24    2    3    3    0    0  0.62866993890E+02 -0.10391545813E+03  0.33170337427E+02  0.14941291041E+03  0.80456604147E+02 0.  0.
         -6    2    1    2    0  501 -0.16759168122E+00  0.12336863562E+03  0.62067273228E+02  0.22096963132E+03  0.17249748757E+03 0.  0.
        -24    2    5    5    0    0  0.66111928639E+02  0.86087192046E+02  0.39153948054E+02  0.14140838875E+03  0.81740498022E+02 0.  0.
          5    1    3    3  502    0 -0.62699402208E+02 -0.19453177483E+02  0.24157221966E+02  0.70109218542E+02  0.47000000000E+01 0. -1.
        -11    1    4    4    0    0  0.24179969258E+02  0.43726255120E+01  0.23524891563E+02  0.34017808428E+02  0.00000000000E+00 0.  1.
         12    1    4    4    0    0  0.38687024632E+02 -0.10828808365E+03  0.96454458646E+01  0.11539510198E+03  0.00000000000E+00 0. -1.
         -5    1    5    5    0  501 -0.66279520321E+02  0.37281443572E+02  0.22913325175E+02  0.79561242570E+02  0.47000000000E+01 0.  1.
         11    1    6    6    0    0  0.11608070905E+02  0.69707216091E+01 -0.23208450853E+02  0.26869508013E+02  0.00000000000E+00 0. -1.
        -12    1    6    6    0    0  0.54503857734E+02  0.79116470437E+02  0.62362398906E+02  0.11453888073E+03  0.00000000000E+00 0.  1.
</event>
<event>
12    1  0.2609167E-002  0.1916319E+03  0.7818608E-02  0.1156998E+00
          1   -1    0    0  502    0  0.00000000000E+00  0.00000000000E+00  0.48684287215E+03  0.48684287215E+03  0.00000000000E+00 0. -1.
         -1   -1    0    0    0  501 -0.00000000000E+00 -0.00000000000E+00 -0.85810771711E+02  0.85810771711E+02  0.00000000000E+00 0.  1.
          6    2    1    2  502    0  0.29162097456E+02 -0.63243200001E+02  0.98003190320E+02  0.21231805973E+03  0.17499772256E+03 0.  0.
         24    2    3    3    0    0 -0.54549773146E+02 -0.32264386764E+02  0.56888768422E+02  0.11393183185E+03  0.75679996911E+02 0.  0.
         -6    2    1    2    0  501 -0.29162097456E+02  0.63243200001E+02  0.30302891011E+03  0.36033558412E+03  0.18211282916E+03 0.  0.
        -24    2    5    5    0    0 -0.73691290277E+01  0.82833716340E+02  0.30936685859E+03  0.32998790886E+03  0.79173468881E+02 0.  0.
          5    1    3    3  502    0  0.83711870602E+02 -0.30978813237E+02  0.41114421898E+02  0.98386227884E+02  0.47000000000E+01 0. -1.
        -13    1    4    4    0    0 -0.28755701614E+02  0.12512118400E+02 -0.66251855453E+01  0.32052091440E+02  0.00000000000E+00 0.  1.
         14    1    4    4    0    0 -0.25794071532E+02 -0.44776505163E+02  0.63513953968E+02  0.81879740409E+02  0.00000000000E+00 0. -1.
         -5    1    5    5    0  501 -0.21792968428E+02 -0.19590516339E+02 -0.63379484713E+01  0.30347675267E+02  0.47000000000E+01 0.  1.
         13    1    6    6    0    0  0.34441284709E+02  0.52782207476E+02  0.18218532385E+03  0.19277877410E+03  0.00000000000E+00 0. -1.
        -14    1    6    6    0    0 -0.41810413737E+02  0.30051508863E+02  0.12718153474E+03  0.13720913475E+03  0.00000000000E+00 0.  1.
</event>
<event>
12    1  0.2609167E-002  0.1700553E+03  0.7818608E-02  0.1177790E+00
         -2   -1    0    0    0  501 -0.00000000000E+00  0.00000000000E+00  0.14444325158E+03  0.14444325158E+03  0.00000000000E+00 0.  1.
          2   -1    0    0  502    0  0.00000000000E+00 -0.00000000000E+00 -0.28815860567E+03  0.28815860567E+03  0.00000000000E+00 0. -1.
          6    2    1    2  502    0  0.10087044426E+02  0.32403485081E+02  0.49653132610E+02  0.16941520133E+03  0.15838037300E+03 0.  0.
         24    2    3    3    0    0  0.57488520700E+02  0.49933729989E+02  0.40115522239E+02  0.11776962600E+03  0.80387326616E+02 0.  0.
         -6    2    1    2    0  501 -0.10087044426E+02 -0.32403485081E+02 -0.19336848670E+03  0.26318665592E+03  0.17528294239E+03 0.  0.
        -24    2    5    5    0    0 -0.73519466909E+02 -0.12819047040E+02 -0.14136754019E+03  0.17872713382E+03  0.79932264830E+02 0.  0.
          5    1    3    3  502    0 -0.47401476274E+02 -0.17530244907E+02  0.95376103712E+01  0.51645575329E+02  0.47000000000E+01 0. -1.
        -11    1    4    4    0    0 -0.15488469233E+02 -0.33074968360E+01  0.19484733278E+02  0.25109501098E+02  0.00000000000E+00 0.  1.
         12    1    4    4    0    0  0.72976989933E+02  0.53241226825E+02  0.20630788960E+02  0.92660124900E+02  0.00000000000E+00 0. -1.
         -5    1    5    5    0  501  0.63432422483E+02 -0.19584438041E+02 -0.52000946508E+02  0.84459522099E+02  0.47000000000E+01 0.  1.
         13    1    6    6    0    0 -0.12178021756E+02  0.30814342284E+02 -0.54495019508E+02  0.63777229914E+02  0.00000000000E+00 0. -1.
        -14    1    6    6    0    0 -0.61341445153E+02 -0.43633389324E+02 -0.86872520686E+02  0.11494990390E+03  0.00000000000E+00 0.  1.
</event>
<event>
12    1  0.2609167E-002  0.3145189E+03  0.7818608E-02  0.1078200E+00
         -2   -1    0    0    0  501 -0.00000000000E+00  0.00000000000E+00  0.51762044056E+02  0.51762044056E+02  0.00000000000E+00 0. -1.
          2   -1    0    0  502    0  0.00000000000E+00 -0.00000000000E+00 -0.21565155544E+04  0.21565155544E+04  0.00000000000E+00 0.  1.
          6    2    1    2  502    0  0.11380106617E+03 -0.23743652571E+03 -0.14253431442E+04  0.14596672395E+04  0.17233277431E+03 0.  0.
         24    2    3    3    0    0  0.52308013522E+02 -0.21639220857E+02 -0.33227218223E+03  0.34379265421E+03  0.67706734145E+02 0.  0.
         -6    2    1    2    0  501 -0.11380106617E+03  0.23743652571E+03 -0.67941036621E+03  0.74861035897E+03  0.17173304120E+03 0.  0.
        -24    2    5    5    0    0 -0.68093852358E+02  0.21404011321E+03 -0.64213539497E+03  0.68498603191E+03  0.80112768324E+02 0.  0.
          5    1    3    3  502    0  0.61493052646E+02 -0.21579730486E+03 -0.10930709620E+04  0.11158745853E+04  0.47000000000E+01 0. -1.
        -11    1    4    4    0    0  0.38480723391E+02 -0.21483323361E+02 -0.32536342477E+03  0.32833467291E+03  0.00000000000E+00 0.  1.
         12    1    4    4    0    0  0.13827290130E+02 -0.15589749676E+00 -0.69087574603E+01  0.15457981305E+02  0.00000000000E+00 0. -1.
         -5    1    5    5    0  501 -0.45707213810E+02  0.23396412505E+02 -0.37274971235E+02  0.63624327053E+02  0.47000000000E+01 0.  1.
         11    1    6    6    0    0  0.64613429616E+01  0.27150292157E+01 -0.28559248193E+01  0.75681333949E+01  0.00000000000E+00 0. -1.
        -12    1    6    6    0    0 -0.74555195319E+02  0.21132508399E+03 -0.63927947015E+03  0.67741789852E+03  0.00000000000E+00 0.  1.
</event>
<event>
12    1  0.2609167E-002  0.1753239E+03  0.7818608E-02  0.1172407E+00
          2   -1    0    0  502    0  0.00000000000E+00  0.00000000000E+00  0.69879119223E+02  0.69879119223E+02  0.00000000000E+00 0.  1.
         -2   -1    0    0    0  501 -0.00000000000E+00 -0.00000000000E+00 -0.46349671995E+03  0.46349671995E+03  0.00000000000E+00 0. -1.
          6    2    1    2  502    0 -0.35387216258E+02 -0.21641416620E+02 -0.25773183373E+03  0.31210044315E+03  0.17105666461E+03 0.  0.
         24    2    3    3    0    0  0.44317269390E+01 -0.73060538768E+02 -0.18563338637E+03  0.21489061612E+03  0.79754248983E+02 0.  0.
         -6    2    1    2    0  501  0.35387216258E+02  0.21641416620E+02 -0.13588576699E+03  0.22127539602E+03  0.16963859592E+03 0.  0.
        -24    2    5    5    0    0  0.37121443474E+02  0.57272327128E+02 -0.28622391986E+02  0.10813790911E+03  0.78844435711E+02 0.  0.
          5    1    3    3  502    0 -0.39818943197E+02  0.51419122148E+02 -0.72098447362E+02  0.97209827033E+02  0.47000000000E+01 0. -1.
        -13    1    4    4    0    0 -0.72320705335E+01 -0.29055622243E+02 -0.72739687053E+01  0.30813027259E+02  0.00000000000E+00 0.  1.
         14    1    4    4    0    0  0.11663797473E+02 -0.44004916525E+02 -0.17835941766E+03  0.18407758886E+03  0.00000000000E+00 0. -1.
         -5    1    5    5    0  501 -0.17342272162E+01 -0.35630910507E+02 -0.10726337501E+03  0.11313748691E+03  0.47000000000E+01 0.  1.
         11    1    6    6    0    0 -0.20926740146E+02 -0.92319657197E+00 -0.12442418416E+02  0.24363795294E+02  0.00000000000E+00 0. -1.
        -12    1    6    6    0    0  0.58048183621E+02  0.58195523700E+02 -0.16179973570E+02  0.83774113812E+02  0.00000000000E+00 0.  1.
</event>
<event>
12    1  0.2609167E-002  0.2591737E+03  0.7818608E-02  0.1107641E+00
         -2   -1    0    0    0  501 -0.00000000000E+00  0.00000000000E+00  0.84950807594E+02  0.84950807594E+02  0.00000000000E+00 0.  1.
          2   -1    0    0  502    0  0.00000000000E+00 -0.00000000000E+00 -0.10854501256E+04  0.10854501256E+04  0.00000000000E+00 0. -1.
          6    2    1    2  502    0  0.18607481520E+03 -0.56255567186E+02 -0.80461988232E+03  0.84520571267E+03  0.17079524586E+03 0.  0.
         24    2    3    3    0    0  0.63114021436E+02 -0.11506629708E+02 -0.18019403274E+03  0.20719979119E+03  0.79662298532E+02 0.  0.
         -6    2    1    2    0  501 -0.18607481520E+03  0.56255567186E+02 -0.19587943566E+03  0.32519522050E+03  0.17203096358E+03 0.  0.
        -24    2    5    5    0    0 -0.10838567606E+03  0.68964580560E+02 -0.51305481610E+02  0.16051116070E+03  0.81412604190E+02 0.  0.
          5    1    3    3  502    0  0.12296079376E+03 -0.44748937479E+02 -0.62442584959E+03  0.63800592148E+03  0.47000000000E+01 0. -1.
        -11    1    4    4    0    0 -0.77247571622E+01  0.14887776621E+02 -0.69031584618E+01  0.18137567717E+02  0.00000000000E+00 0.  1.
         12    1    4    4    0    0  0.70838778598E+02 -0.26394406329E+02 -0.17329087427E+03  0.18906222348E+03  0.00000000000E+00 0. -1.
         -5    1    5    5    0  501 -0.77689139144E+02 -0.12709013374E+02 -0.14457395405E+03  0.16468405980E+03  0.47000000000E+01 0.  1.
         13    1    6    6    0    0 -0.53990123734E+01  0.29902765138E+00 -0.35288391683E+02  0.35700270863E+02  0.00000000000E+00 0. -1.
        -14    1    6    6    0    0 -0.10298666368E+03  0.68665552909E+02 -0.16017089926E+02  0.12481088984E+03  0.00000000000E+00 0.  1.
</event>
<event>
12    1  0.2609167E-002  0.3917004E+03  0.7818608E-02  0.1046692E+00
         -1   -1    0    0    0  501 -0.00000000000E+00  0.00000000000E+00  0.40374183738E+03  0.40374183738E+03  0.00000000000E+00 0.  1.
          1   -1    0    0  502    0  0.00000000000E+00 -0.00000000000E+00 -0.44265755554E+03  0.44265755554E+03  0.00000000000E+00 0. -1.
          6    2    1    2  502    0 -0.35287421769E+03 -0.56326838108E+01  0.13972611414E+03  0.41616244325E+03  0.17063367651E+03 0.  0.
         24    2    3    3    0    0 -0.88577655506E+02 -0.36499320730E+02  0.32549855132E+02  0.12925782050E+03  0.80435624096E+02 0.  0.
         -6    2    1    2    0  501  0.35287421769E+03  0.56326838108E+01 -0.17864183230E+03  0.43023694968E+03  0.16923057639E+03 0.  0.
        -24    2    5    5    0    0  0.17805290844E+03 -0.38846472910E+02 -0.45361692038E+02  0.20590110471E+03  0.84413832719E+02 0.  0.
          5    1    3    3  502    0 -0.26429656218E+03  0.30866636919E+02  0.10717625901E+03  0.28690462274E+03  0.47000000000E+01 0. -1.
        -13    1    4    4    0    0 -0.39937188555E+02 -0.42748121542E+02  0.50251442953E+02  0.77120609722E+02  0.00000000000E+00 0.  1.
         14    1    4    4    0    0 -0.48640466951E+02  0.62488008121E+01 -0.17701587821E+02  0.52137210783E+02  0.00000000000E+00 0. -1.
         -5    1    5    5    0  501  0.17482130925E+03  0.44479156721E+02 -0.13328014026E+03  0.22433584497E+03  0.47000000000E+01 0.  1.
         13    1    6    6    0    0  0.17307194701E+03 -0.48426040836E+02 -0.58402669128E+02  0.18897050573E+03  0.00000000000E+00 0. -1.
        -14    1    6    6    0    0  0.49809614274E+01  0.95795679264E+01  0.13040977090E+02  0.16930598981E+02  0.00000000000E+00 0.  1.
</event>
<event>
12    1  0.2609167E-002  0.2250937E+03  0.7818608E-02  0.1130141E+00
         -1   -1    0    0    0  501 -0.00000000000E+00  0.00000000000E+00  0.13352561825E+04  0.13352561825E+04  0.00000000000E+00 0. -1.
          1   -1    0    0  502    0  0.00000000000E+00 -0.00000000000E+00 -0.37951359772E+02  0.37951359772E+02  0.00000000000E+00 0.  1.
          6    2    1    2  502    0  0.94346013152E+02 -0.10942091317E+03  0.65689466516E+03  0.69437144524E+03  0.17253114623E+03 0.  0.
         24    2    3    3    0    0  0.13353604596E+03 -0.96827721811E+02  0.52135444113E+03  0.55264039900E+03  0.79959202338E+02 0.  0.
         -6    2    1    2    0  501 -0.94346013152E+02  0.10942091317E+03  0.64041015761E+03  0.67883609707E+03  0.17268228131E+03 0.  0.
        -24    2    5    5    0    0 -0.69593627812E+02  0.74283924025E+02  0.61484898432E+03  0.62860909073E+03  0.82150721409E+02 0.  0.
          5    1    3    3  502    0 -0.39190032807E+02 -0.12593191355E+02  0.13554022403E+03  0.14173104625E+03  0.47000000000E+01 0. -1.
        -11    1    4    4    0    0  0.93033786026E+02 -0.10207411888E+03  0.44646525967E+03  0.46733889115E+03  0.00000000000E+00 0.  1.
         12    1    4    4    0    0  0.40502259933E+02  0.52463970690E+01  0.74889181459E+02  0.85301507850E+02  0.00000000000E+00 0. -1.
         -5    1    5    5    0  501 -0.24752385340E+02  0.35136989142E+02  0.25561173292E+02  0.50227006341E+02  0.47000000000E+01 0.  1.
         13    1    6    6    0    0 -0.29360829174E+02  0.51457392406E+02  0.51692968470E+03  0.52031357896E+03  0.00000000000E+00 0. -1.
        -14    1    6    6    0    0 -0.40232798638E+02  0.22826531619E+02  0.97919299618E+02  0.10829551177E+03  0.00000000000E+00 0.  1.
</event>
<event>
12    1  0.2609167E-002  0.2715939E+03  0.7818608E-02  0.1100371E+00
         -1   -1    0    0    0  501 -0.00000000000E+00  0.00000000000E+00  0.79163530282E+03  0.79163530282E+03  0.00000000000E+00 0.  1.
          1   -1    0    0  502    0  0.00000000000E+00 -0.00000000000E+00 -0.10642206137E+03  0.10642206137E+03  0.00000000000E+00 0. -1.
          6    2    1    2  502    0 -0.12432191462E+03 -0.16775923682E+03  0.18297939829E+03  0.32655763786E+03  0.17192827183E+03 0.  0.
         24    2    3    3    0    0 -0.57486198039E+02 -0.30859786588E+02  0.12674531089E+03  0.16409891981E+03  0.81284022165E+02 0.  0.
         -6    2    1    2    0  501  0.12432191462E+03  0.16775923682E+03  0.50223384316E+03  0.57149972633E+03  0.17542520911E+03 0.  0.
        -24    2    5    5    0    0  0.55070592794E+02  0.17187075328E+03  0.31430700903E+03  0.37112199521E+03  0.79814242985E+02 0.  0.
          5    1    3    3  502    0 -0.66835716578E+02 -0.13689945023E+03  0.56234087402E+02  0.16245871805E+03  0.47000000000E+01 0. -1.
        -11    1    4    4    0    0 -0.30849501214E+01 -0.41144875826E+02  0.85906980629E+02  0.95301768319E+02  0.00000000000E+00 0.  1.
         12    1    4    4    0    0 -0.54401247917E+02  0.10285089238E+02  0.40838330259E+02  0.68797151496E+02  0.00000000000E+00 0. -1.
         -5    1    5    5    0  501  0.69251321823E+02 -0.41115164631E+01  0.18792683413E+03  0.20037773112E+03  0.47000000000E+01 0.  1.
         11    1    6    6    0    0  0.48820790489E+02  0.81584632088E+02  0.97495127542E+02  0.13617937315E+03  0.00000000000E+00 0. -1.
        -12    1    6    6    0    0  0.62498023046E+01  0.90286121191E+02  0.21681188148E+03  0.23494262206E+03  0.00000000000E+00 0.  1.
</event>
<event>
12    1  0.2609167E-002  0.2449247E+03  0.7818608E-02  0.1116555E+00
          2   -1    0    0  502    0  0.00000000000E+00  0.00000000000E+00  0.54940867779E+03  0.54940867779E+03  0.00000000000E+00 0.  1.
         -2   -1    0    0    0  501 -0.00000000000E+00 -0.00000000000E+00 -0.18129483755E+03  0.18129483755E+03  0.00000000000E+00 0. -1.
          6    2    1    2  502    0  0.11401993518E+03  0.13213574348E+03 -0.46244055169E+02  0.24949923293E+03  0.17219452451E+03 0.  0.
         24    2    3    3    0    0  0.14911791554E+03  0.10510888952E+03 -0.48649864134E+02  0.20488760914E+03  0.79549303636E+02 0.  0.
         -6    2    1    2    0  501 -0.11401993518E+03 -0.13213574348E+03  0.41435789541E+03  0.48120428242E+03  0.17147797412E+03 0.  0.
        -24    2    5    5    0    0 -0.11486913080E+03 -0.16174540232E+03  0.37538475015E+03  0.43202655289E+03  0.79854488797E+02 0.  0.
          5    1    3    3  502    0 -0.35097980357E+02  0.27026853961E+02  0.24058089658E+01  0.44611623788E+02  0.47000000000E+01 0. -1.
        -11    1    4    4    0    0  0.37820683852E+01 -0.69414711745E+01  0.95198171377E+01  0.12373963863E+02  0.00000000000E+00 0.  1.
         12    1    4    4    0    0  0.14533584715E+03  0.11205036069E+03 -0.58169681272E+02  0.19251364528E+03  0.00000000000E+00 0. -1.
         -5    1    5    5    0  501  0.84919561463E+00  0.29609658839E+02  0.38973145259E+02  0.49177729524E+02  0.47000000000E+01 0.  1.
         13    1    6    6    0    0 -0.37742601388E+01  0.58985096672E+01  0.10408493992E+01  0.70796061586E+01  0.00000000000E+00 0. -1.
        -14    1    6    6    0    0 -0.11109487066E+03 -0.16764391198E+03  0.37434390075E+03  0.42494694673E+03  0.00000000000E+00 0.  1.
</event>
<event>
12    1  0.2609167E-002  0.2577893E+03  0.7818608E-02  0.1108479E+00
         -1   -1    0    0    0  501 -0.00000000000E+00  0.00000000000E+00  0.77640907472E+02  0.77640907472E+02  0.00000000000E+00 0.  1.
          1   -1    0    0  502    0  0.00000000000E+00 -0.00000000000E+00 -0.11724325626E+04  0.11724325626E+04  0.00000000000E+00 0. -1.
          6    2    1    2  502    0 -0.89649199107E+02 -0.16849405767E+03 -0.87069794925E+03  0.90779565568E+03  0.17190348242E+03 0.  0.
         24    2    3    3    0    0 -0.11197438398E+03 -0.14667087594E+03 -0.84060315324E+03  0.86417855023E+03  0.78360046761E+02 0.  0.
         -6    2    1    2    0  501  0.89649199107E+02  0.16849405767E+03 -0.22409370591E+03  0.34227781443E+03  0.17466793309E+03 0.  0.
        -24    2    5    5    0    0  0.45713643878E+02  0.18596023065E+03 -0.20296663639E+03  0.29027932139E+03  0.79973022442E+02 0.  0.
          5    1    3    3  502    0  0.22325184876E+02 -0.21823181735E+02 -0.30094796020E+02  0.43617105455E+02  0.47000000000E+01 0. -1.
        -11    1    4    4    0    0 -0.69602305417E+01  0.41367894412E+01 -0.74620327254E+01  0.11010893173E+02  0.00000000000E+00 0.  1.
         12    1    4    4    0    0 -0.10501415344E+03 -0.15080766538E+03 -0.83314112051E+03  0.85316765705E+03  0.00000000000E+00 0. -1.
         -5    1    5    5    0  501  0.43935555229E+02 -0.17466172980E+02 -0.21127069526E+02  0.51998493042E+02  0.47000000000E+01 0.  1.
         11    1    6    6    0    0  0.28006139381E+02  0.15447558989E+03 -0.19968195010E+03  0.25400774183E+03  0.00000000000E+00 0. -1.
        -12    1    6    6    0    0  0.17707504497E+02  0.31484640765E+02 -0.32846862871E+01  0.36271579558E+02  0.00000000000E+00 0.  1.
</event>
<event>
12    1  0.2609167E-002  0.2458544E+03  0.7818608E-02  0.1115953E+00
         -1   -1    0    0    0  501 -0.00000000000E+00  0.00000000000E+00  0.51997514831E+03  0.51997514831E+03  0.00000000000E+00 0. -1.
          1   -1    0    0  502    0  0.00000000000E+00 -0.00000000000E+00 -0.21403162108E+03  0.21403162108E+03  0.00000000000E+00 0.  1.
          6    2    1    2  502    0  0.27900307763E+02  0.17205506304E+03 -0.95296588557E+02  0.26312299169E+03  0.17254245007E+03 0.  0.
         24    2    3    3    0    0  0.39530619047E+02  0.29733550872E+02 -0.70728814945E+02  0.11815284833E+03  0.80689382293E+02 0.  0.
         -6    2    1    2    0  501 -0.27900307763E+02 -0.17205506304E+03  0.40124011579E+03  0.47088377770E+03  0.17423125349E+03 0.  0.
        -24    2    5    5    0    0  0.25626382093E+02 -0.15983516226E+03  0.35576918217E+03  0.39944059534E+03  0.82323068874E+02 0.  0.
          5    1    3    3  502    0 -0.11630311285E+02  0.14232151217E+03 -0.24567773612E+02  0.14497014336E+03  0.47000000000E+01 0. -1.
        -13    1    4    4    0    0  0.46910604405E+02  0.18323660623E+02 -0.45208558132E+01  0.50564804772E+02  0.00000000000E+00 0.  1.
         14    1    4    4    0    0 -0.73799853583E+01  0.11409890248E+02 -0.66207959132E+02  0.67588043556E+02  0.00000000000E+00 0. -1.
         -5    1    5    5    0  501 -0.53526689855E+02 -0.12219900778E+02  0.45470933616E+02  0.71443182361E+02  0.47000000000E+01 0.  1.
         13    1    6    6    0    0 -0.19362822413E+02 -0.88599141957E+02  0.23752911532E+03  0.25425343158E+03  0.00000000000E+00 0. -1.
        -14    1    6    6    0    0  0.44989204506E+02 -0.71236020301E+02  0.11824006685E+03  0.14518716376E+03  0.00000000000E+00 0.  1.
</event>
<event>
12    1  0.2609167E-002  0.1775818E+03  0.7818608E-02  0.1170164E+00
         -2   -1    0    0    0  501 -0.00000000000E+00  0.00000000000E+00  0.21061674355E+02  0.21061674355E+02  0.00000000000E+00 0.  1.
          2   -1    0    0  502    0  0.00000000000E+00 -0.00000000000E+00 -0.19958695637E+04  0.19958695637E+04  0.00000000000E+00 0. -1.
          6    2    1    2  502    0 -0.20599793398E+02 -0.36403747920E+02 -0.14926195327E+04  0.15031795823E+04  0.17287626422E+03 0.  0.
         24    2    3    3    0    0 -0.57069686175E+02  0.29543238472E+02 -0.84034086427E+03  0.84654527810E+03  0.79601430199E+02 0.  0.
         -6    2    1    2    0  501  0.20599793398E+02  0.36403747920E+02 -0.48218835660E+03  0.51375165576E+03  0.17229500344E+03 0.  0.
        -24    2    5    5    0    0  0.48761067406E+02 -0.25666584182E+02 -0.37392128862E+03  0.38572965965E+03  0.77031324858E+02 0.  0.
          5    1    3    3  502    0  0.36469892777E+02 -0.65946986393E+02 -0.65227866845E+03  0.65663430416E+03  0.47000000000E+01 0. -1.
        -11    1    4    4    0    0  0.16307497326E+02  0.22646929561E+01 -0.57818392844E+02  0.60116801764E+02  0.00000000000E+00 0.  1.
         12    1    4    4    0    0 -0.73377183502E+02  0.27278545516E+02 -0.78252247142E+03  0.78642847633E+03  0.00000000000E+00 0. -1.
         -5    1    5    5    0  501 -0.28161274008E+02  0.62070332102E+02 -0.10826706798E+03  0.12802199611E+03  0.47000000000E+01 0.  1.
         13    1    6    6    0    0  0.37660352833E+02 -0.16717421554E+02 -0.36798472914E+03  0.37028439778E+03  0.00000000000E+00 0. -1.
        -14    1    6    6    0    0  0.11100714573E+02 -0.89491626277E+01 -0.59365594853E+01  0.15445261872E+02  0.00000000000E+00 0.  1.
</event>
<event>
12    1  0.2609167E-002  0.2114593E+03  0.7818608E-02  0.1140416E+00
          1   -1    0    0  502    0  0.00000000000E+00  0.00000000000E+00  0.73961588456E+03  0.73961588456E+03  0.00000000000E+00 0. -1.
         -1   -1    0    0    0  501 -0.00000000000E+00 -0.00000000000E+00 -0.82629612499E+02  0.82629612499E+02  0.00000000000E+00 0.  1.
          6    2    1    2  502    0 -0.54603089642E+02  0.11041251015E+03  0.54155309190E+03  0.58140319450E+03  0.17198111359E+03 0.  0.
         24    2    3    3    0    0 -0.23819947047E+02 -0.50471995205E+01  0.20042640077E+03  0.21992282736E+03  0.87191993719E+02 0.  0.
         -6    2    1    2    0  501  0.54603089642E+02 -0.11041251015E+03  0.11543318017E+03  0.24084230256E+03  0.17177827518E+03 0.  0.
        -24    2    5    5    0    0  0.47624045844E+02 -0.66904592966E+02  0.14722320093E+03  0.18630478033E+03  0.79312836166E+02 0.  0.
          5    1    3    3  502    0 -0.30783142595E+02  0.11545970968E+03  0.34112669113E+03  0.36148036714E+03  0.47000000000E+01 0. -1.
        -11    1    4    4    0    0  0.26530341677E+02 -0.95909816108E+01  0.26166187489E+02  0.38477465164E+02  0.00000000000E+00 0.  1.
         12    1    4    4    0    0 -0.50350288724E+02  0.45437820904E+01  0.17426021328E+03  0.18144536219E+03  0.00000000000E+00 0. -1.
         -5    1    5    5    0  501  0.69790437984E+01 -0.43507917189E+02 -0.31790020765E+02  0.54537522227E+02  0.47000000000E+01 0.  1.
         11    1    6    6    0    0 -0.14763542765E+02 -0.20115018900E+02  0.78468228392E+02  0.82339778038E+02  0.00000000000E+00 0. -1.
        -12    1    6    6    0    0  0.62387588609E+02 -0.46789574066E+02  0.68754972539E+02  0.10396500230E+03  0.00000000000E+00 0.  1.
</event>
<event>
12    1  0.2609167E-002  0.3108262E+03  0.7818608E-02  0.1079951E+00
          2   -1    0    0  502    0  0.00000000000E+00  0.00000000000E+00  0.15505892692E+04  0.15505892692E+04  0.00000000000E+00 0.  1.
         -2   -1    0    0    0  501 -0.00000000000E+00 -0.00000000000E+00 -0.93334967529E+02  0.93334967529E+02  0.00000000000E+00 0. -1.
          6    2    1    2  502    0 -0.13788981522E+03 -0.21842449111E+03  0.12012383440E+04  0.12405925883E+04  0.17138713938E+03 0.  0.
         24    2    3    3    0    0 -0.34651159427E+02 -0.16340738281E+03  0.85958373868E+03  0.87943464279E+03  0.81353620252E+02 0.  0.
         -6    2    1    2    0  501  0.13788981522E+03  0.21842449111E+03  0.25601595766E+03  0.40333164844E+03  0.17438287931E+03 0.  0.
        -24    2    5    5    0    0  0.12162921573E+03  0.69034913099E+02  0.13934548531E+03  0.21302730736E+03  0.80024896509E+02 0.  0.
          5    1    3    3  502    0 -0.10323865579E+03 -0.55017108301E+02  0.34165460529E+03  0.36115794546E+03  0.47000000000E+01 0. -1.
        -13    1    4    4    0    0 -0.22754295080E+02 -0.19458505875E+02  0.30073823724E+03  0.30222488106E+03  0.00000000000E+00 0.  1.
         14    1    4    4    0    0 -0.11896864346E+02 -0.14394887693E+03  0.55884550144E+03  0.57720976173E+03  0.00000000000E+00 0. -1.
         -5    1    5    5    0  501  0.16260599492E+02  0.14938957801E+03  0.11667047236E+03  0.19030434108E+03  0.47000000000E+01 0.  1.
         11    1    6    6    0    0  0.42464862777E+02  0.70034435605E+02  0.73717468148E+02  0.11019234026E+03  0.00000000000E+00 0. -1.
        -12    1    6    6    0    0  0.79164352949E+02 -0.99952250579E+00  0.65628017157E+02  0.10283496710E+03  0.00000000000E+00 0.  1.
</event>
<event>
12    1  0.2609167E-002  0.2422613E+03  0.7818608E-02  0.1118296E+00
         -2   -1    0    0    0  501 -0.00000000000E+00  0.00000000000E+00  0.63335488247E+03  0.63335488247E+03  0.00000000000E+00 0. -1.
          2   -1    0    0  502    0  0.00000000000E+00 -0.00000000000E+00 -0.10255529058E+03  0.10255529058E+03  0.00000000000E+00 0.  1.
          6    2    1    2  502    0 -0.77031509636E+02  0.15144153616E+03  0.38063890841E+03  0.45173274191E+03  0.17409221457E+03 0.  0.
         24    2    3    3    0    0 -0.11082124316E+03  0.86691197244E+02  0.20588106623E+03  0.26226837618E+03  0.81246391279E+02 0.  0.
         -6    2    1    2    0  501  0.77031509636E+02 -0.15144153616E+03  0.15016068349E+03  0.28417743113E+03  0.17128978121E+03 0.  0.
        -24    2    5    5    0    0  0.47062836269E+01 -0.11964435911E+03  0.41159276352E+02  0.14947258511E+03  0.79442091461E+02 0.  0.
          5    1    3    3  502    0  0.33789733528E+02  0.64750338914E+02  0.17475784218E+03  0.18946436574E+03  0.47000000000E+01 0. -1.
        -13    1    4    4    0    0 -0.49970055581E+02 -0.36907061198E+01  0.41525566537E+02  0.65076881015E+02  0.00000000000E+00 0.  1.
         14    1    4    4    0    0 -0.60851187582E+02  0.90381903363E+02  0.16435549969E+03  0.19719149516E+03  0.00000000000E+00 0. -1.
         -5    1    5    5    0  501  0.72325226009E+02 -0.31797177047E+02  0.10900140713E+03  0.13470484602E+03  0.47000000000E+01 0.  1.
         11    1    6    6    0    0  0.13540036529E+02 -0.21714106541E+02  0.44227305721E+02  0.51096864712E+02  0.00000000000E+00 0. -1.
        -12    1    6    6    0    0 -0.88337529017E+01 -0.97930252570E+02 -0.30680293690E+01  0.98375720393E+02  0.00000000000E+00 0.  1.
</event>
<event>
12    1  0.2609167E-002  0.1759392E+03  0.7818608E-02  0.1171792E+00
          3   -1    0    0  502    0  0.00000000000E+00  0.00000000000E+00  0.60044163517E+03  0.60044163517E+03  0.00000000000E+00 0.  1.
         -3   -1    0    0    0  501 -0.00000000000E+00 -0.00000000000E+00 -0.64694743237E+02  0.64694743237E+02  0.00000000000E+00 0. -1.
          6    2    1    2  502    0 -0.22851268320E+00  0.15453185968E+02  0.12228016538E+03  0.21711213822E+03  0.17873552680E+03 0.  0.
         24    2    3    3    0    0  0.28818838108E+02  0.23552595646E+02  0.15094274255E+03  0.17524350611E+03  0.80878456416E+02 0.  0.
         -6    2    1    2    0  501  0.22851268320E+00 -0.15453185968E+02  0.41346672655E+03  0.44802424019E+03  0.17184915670E+03 0.  0.
        -24    2    5    5    0    0 -0.42166189020E+02  0.27819417124E+02  0.14570115766E+03  0.17345126483E+03  0.79401552026E+02 0.  0.
          5    1    3    3  502    0 -0.29047350791E+02 -0.80994096787E+01 -0.28662577167E+02  0.41868632113E+02  0.47000000000E+01 0. -1.
        -13    1    4    4    0    0 -0.97387979110E-03 -0.23263733349E+02  0.12775844215E+02  0.26540977482E+02  0.00000000000E+00 0.  1.
         14    1    4    4    0    0  0.28819811988E+02  0.46816328996E+02  0.13816689834E+03  0.14870252862E+03  0.00000000000E+00 0. -1.
         -5    1    5    5    0  501  0.42394701704E+02 -0.43272603092E+02  0.26776556890E+03  0.27457297536E+03  0.47000000000E+01 0.  1.
         13    1    6    6    0    0  0.12412877264E+02  0.33877507778E+02  0.80433581927E+02  0.88155125528E+02  0.00000000000E+00 0. -1.
        -14    1    6    6    0    0 -0.54579066284E+02 -0.60580906532E+01  0.65267575730E+02  0.85296139305E+02  0.00000000000E+00 0.  1.
</event>
<event>
12    1  0.2609167E-002  0.1896305E+03  0.7818608E-02  0.1158795E+00
          2   -1    0    0  502    0  0.00000000000E+00  0.00000000000E+00  0.79885265896E+03  0.79885265896E+03  0.00000000000E+00 0. -1.
         -2   -1    0    0    0  501 -0.00000000000E+00 -0.00000000000E+00 -0.55398725345E+02  0.55398725345E+02  0.00000000000E+00 0.  1.
          6    2    1    2  502    0 -0.34865860632E+00  0.72656620722E+02  0.55247166120E+03  0.58328640866E+03  0.17239197196E+03 0.  0.
         24    2    3    3    0    0  0.59582664506E+02  0.75836706176E+02  0.35006468054E+03  0.37211692163E+03  0.81390557708E+02 0.  0.
         -6    2    1    2    0  501  0.34865860632E+00 -0.72656620722E+02  0.19098227242E+03  0.27096497565E+03  0.17795697107E+03 0.  0.
        -24    2    5    5    0    0 -0.59759115418E+02 -0.50015801354E+02  0.65875223573E+02  0.13025458204E+03  0.80956647663E+02 0.  0.
          5    1    3    3  502    0 -0.59931323112E+02 -0.31800854539E+01  0.20240698065E+03  0.21116948703E+03  0.47000000000E+01 0. -1.
        -11    1    4    4    0    0  0.47659207131E+02  0.32521138456E+02  0.29716218476E+03  0.30271172512E+03  0.00000000000E+00 0.  1.
         12    1    4    4    0    0  0.11923457376E+02  0.43315567720E+02  0.52902495782E+02  0.69405196510E+02  0.00000000000E+00 0. -1.
         -5    1    5    5    0  501  0.60107774024E+02 -0.22640819368E+02  0.12510704884E+03  0.14071039361E+03  0.47000000000E+01 0.  1.
         13    1    6    6    0    0 -0.47751580908E+00  0.76668530410E+01 -0.13553401195E+02  0.15578939016E+02  0.00000000000E+00 0. -1.
        -14    1    6    6    0    0 -0.59281599609E+02 -0.57682654395E+02  0.79428624769E+02  0.11467564302E+03  0.00000000000E+00 0.  1.
</event>
<event>
12    1  0.2609167E-002  0.1989089E+03  0.7818608E-02  0.1150663E+00
          2   -1    0    0  502    0  0.00000000000E+00  0.00000000000E+00  0.44178721298E+03  0.44178721298E+03  0.00000000000E+00 0. -1.
         -2   -1    0    0    0  501 -0.00000000000E+00 -0.00000000000E+00 -0.13479409045E+03  0.13479409045E+03  0.00000000000E+00 0.  1.
          6    2    1    2  502    0  0.84359314413E+02 -0.54162439045E+02 -0.13232674872E+02  0.19989560633E+03  0.17243284494E+03 0.  0.
         24    2    3    3    0    0  0.59132688947E+02 -0.71165258312E+02  0.48800007503E+02  0.13064517544E+03  0.78265907273E+02 0.  0.
         -6    2    1    2    0  501 -0.84359314413E+02  0.54162439045E+02  0.32022579740E+03  0.37668569711E+03  0.17116509385E+03 0.  0.
        -24    2    5    5    0    0 -0.88946758825E+02  0.87013504505E+02  0.30942418807E+03  0.34148623813E+03  0.73393779024E+02 0.  0.
          5    1    3    3  502    0  0.25226625467E+02  0.17002819267E+02 -0.62032682375E+02  0.69250430887E+02  0.47000000000E+01 0. -1.
        -13    1    4    4    0    0  0.79123731897E+01 -0.51024638916E+02 -0.71912489281E+01  0.52132844610E+02  0.00000000000E+00 0.  1.
         14    1    4    4    0    0  0.51220315757E+02 -0.20140619396E+02  0.55991256431E+02  0.78512330832E+02  0.00000000000E+00 0. -1.
         -5    1    5    5    0  501  0.45874444117E+01 -0.32851065460E+02  0.10801609332E+02  0.35199458977E+02  0.47000000000E+01 0.  1.
         11    1    6    6    0    0 -0.33041677891E+02  0.28062102111E+02  0.20310016781E+03  0.20767501588E+03  0.00000000000E+00 0. -1.
        -12    1    6    6    0    0 -0.55905080934E+02  0.58951402394E+02  0.10632402025E+03  0.13381122225E+03  0.00000000000E+00 0.  1.
</event>
<event>
12    1  0.2609167E-002  0.2448188E+03  0.7818608E-02  0.1116624E+00
         -2   -1    0    0    0  501 -0.00000000000E+00  0.00000000000E+00  0.17990618165E+03  0.17990618165E+03  0.00000000000E+00 0.  1.
          2   -1    0    0  502    0  0.00000000000E+00 -0.00000000000E+00 -0.62773802850E+03  0.62773802850E+03  0.00000000000E+00 0. -1.
          6    2    1    2  502    0  0.19570410898E+02  0.17184431194E+03 -0.50118614974E+03  0.55836840066E+03  0.17514064531E+03 0.  0.
         24    2    3    3    0    0 -0.16826602111E+02  0.11468457171E+02 -0.33197840244E+02  0.62303581134E+02  0.48631055683E+02 0.  0.
         -6    2    1    2    0  501 -0.19570410898E+02 -0.17184431194E+03  0.53354302895E+02  0.24927580948E+03  0.17140093065E+03 0.  0.
        -24    2    5    5    0    0 -0.32224466989E+02 -0.90960006981E+02  0.95331091578E+02  0.15715340877E+03  0.79353876561E+02 0.  0.
          5    1    3    3  502    0  0.36397013009E+02  0.16037585476E+03 -0.46798830950E+03  0.49606481953E+03  0.47000000000E+01 0. -1.
        -11    1    4    4    0    0 -0.26686618410E+01  0.26751767980E+02 -0.31482756966E+02  0.41399792659E+02  0.00000000000E+00 0.  1.
         12    1    4    4    0    0 -0.14157940270E+02 -0.15283310809E+02 -0.17150832782E+01  0.20903788475E+02  0.00000000000E+00 0. -1.
         -5    1    5    5    0  501  0.12654056091E+02 -0.80884304955E+02 -0.41976788683E+02  0.92122400705E+02  0.47000000000E+01 0.  1.
         11    1    6    6    0    0 -0.43870773037E+02 -0.18977367873E+02  0.18572683325E+02  0.51280891024E+02  0.00000000000E+00 0. -1.
        -12    1    6    6    0    0  0.11646306048E+02 -0.71982639108E+02  0.76758408252E+02  0.10587251775E+03  0.00000000000E+00 0.  1.
</event>
<event>
12    1  0.2609167E-002  0.2050890E+03  0.7818608E-02  0.1145515E+00
         -2   -1    0    0    0  501 -0.00000000000E+00  0.00000000000E+00  0.53078673353E+02  0.53078673353E+02  0.00000000000E+00 0. -1.
          2   -1    0    0  502    0  0.00000000000E+00 -0.00000000000E+00 -0.13409214036E+04  0.13409214036E+04  0.00000000000E+00 0.  1.
          6    2    1    2  502    0 -0.80936709435E+02 -0.76287815335E+02 -0.19945980474E+03  0.28659264299E+03  0.17314891742E+03 0.  0.
         24    2    3    3    0    0 -0.16694128780E+02 -0.10519193368E+03 -0.15128855640E+03  0.20112266935E+03  0.78854701706E+02 0.  0.
         -6    2    1    2    0  501  0.80936709435E+02  0.76287815335E+02 -0.10883829255E+04  0.11074074340E+04  0.17147376059E+03 0.  0.
        -24    2    5    5    0    0  0.19606316979E+02  0.65150901423E+02 -0.32320369360E+03  0.33967909996E+03  0.79323488162E+02 0.  0.
          5    1    3    3  502    0 -0.64242580655E+02  0.28904118346E+02 -0.48171248342E+02  0.85469973636E+02  0.47000000000E+01 0. -1.
        -11    1    4    4    0    0  0.21742924415E+02 -0.56361849580E+02 -0.36468742413E+02  0.70564736401E+02  0.00000000000E+00 0.  1.
         12    1    4    4    0    0 -0.38437053195E+02 -0.48830084101E+02 -0.11481981399E+03  0.13055793295E+03  0.00000000000E+00 0. -1.
         -5    1    5    5    0  501  0.61330392456E+02  0.11136913912E+02 -0.76517923192E+03  0.76772833401E+03  0.47000000000E+01 0.  1.
         11    1    6    6    0    0  0.41527386190E+02  0.22403451149E+02 -0.90433854417E+02  0.10200353157E+03  0.00000000000E+00 0. -1.
        -12    1    6    6    0    0 -0.21921069211E+02  0.42747450274E+02 -0.23276983918E+03  0.23767556840E+03  0.00000000000E+00 0.  1.
</event>
<event>
12    1  0.2609167E-002  0.1960382E+03  0.7818608E-02  0.1153125E+00
         -2   -1    0    0    0  501 -0.00000000000E+00  0.00000000000E+00  0.58573976077E+03  0.58573976077E+03  0.00000000000E+00 0.  1.
          2   -1    0    0  502    0  0.00000000000E+00 -0.00000000000E+00 -0.76186329476E+02  0.76186329476E+02  0.00000000000E+00 0. -1.
          6    2    1    2  502    0  0.14197602137E+02  0.93212653707E+02  0.13210461015E+03  0.23686372564E+03  0.17251847955E+03 0.  0.
         24    2    3    3    0    0 -0.25664896990E+02  0.91770643281E+02  0.14849953225E+03  0.19348191262E+03  0.79388925704E+02 0.  0.
         -6    2    1    2    0  501 -0.14197602137E+02 -0.93212653707E+02  0.37744882114E+03  0.42506236460E+03  0.17123151141E+03 0.  0.
        -24    2    5    5    0    0  0.47238661089E+02 -0.68550882711E+02  0.15195086204E+03  0.19000059199E+03  0.77977213702E+02 0.  0.
          5    1    3    3  502    0  0.39862499127E+02  0.14420104255E+01 -0.16394922104E+02  0.43381813027E+02  0.47000000000E+01 0. -1.
        -11    1    4    4    0    0  0.18436466704E+02  0.14722576697E+02  0.73732485171E+02  0.77415353378E+02  0.00000000000E+00 0.  1.
         12    1    4    4    0    0 -0.44101363694E+02  0.77048066584E+02  0.74767047083E+02  0.11606655924E+03  0.00000000000E+00 0. -1.
         -5    1    5    5    0  501 -0.61436263226E+02 -0.24661770996E+02  0.22549795910E+03  0.23506177262E+03  0.47000000000E+01 0.  1.
         13    1    6    6    0    0 -0.20199757123E+02 -0.23707833289E+02  0.27674421065E+02  0.41664914837E+02  0.00000000000E+00 0. -1.
        -14    1    6    6    0    0  0.67438418213E+02 -0.44843049422E+02  0.12427644098E+03  0.14833567715E+03  0.00000000000E+00 0.  1.
</event>
<event>
12    1  0.2609167E-002  0.2697477E+03  0.7818608E-02  0.1101424E+00
         -1   -1    0    0    0  501 -0.00000000000E+00  0.00000000000E+00  0.14153619466E+04  0.14153619466E+04  0.00000000000E+00 0. -1.
          1   -1    0    0  502    0  0.00000000000E+00 -0.00000000000E+00 -0.51917108999E+02  0.51917108999E+02  0.00000000000E+00 0.  1.
          6    2    1    2  502    0 -0.20484887642E+03 -0.35859633840E+02  0.75441374088E+03  0.80121455527E+03  0.17191770017E+03 0.  0.
         24    2    3    3    0    0 -0.30627723096E+02 -0.26029034924E+02  0.17807964979E+03  0.19902461389E+03  0.79264539260E+02 0.  0.
         -6    2    1    2    0  501  0.20484887642E+03  0.35859633840E+02  0.60903109673E+03  0.66606450035E+03  0.17168012793E+03 0.  0.
        -24    2    5    5    0    0  0.94676070746E+02  0.70080655388E+02  0.23317250837E+03  0.27287129864E+03  0.78831911864E+02 0.  0.
          5    1    3    3  502    0 -0.17422115332E+03 -0.98305989158E+01  0.57633409109E+03  0.60218994138E+03  0.47000000000E+01 0. -1.
        -13    1    4    4    0    0 -0.10542169691E+02 -0.51419926082E+02  0.13706683595E+03  0.14677351143E+03  0.00000000000E+00 0.  1.
         14    1    4    4    0    0 -0.20085553405E+02  0.25390891157E+02  0.41012813837E+02  0.52251102459E+02  0.00000000000E+00 0. -1.
         -5    1    5    5    0  501  0.11017280567E+03 -0.34221021548E+02  0.37585858836E+03  0.39319320171E+03  0.47000000000E+01 0.  1.
         11    1    6    6    0    0  0.28809768513E+02  0.49693386603E+02  0.16968904349E+03  0.17914744462E+03  0.00000000000E+00 0. -1.
        -12    1    6    6    0    0  0.65866302233E+02  0.20387268785E+02  0.63483464886E+02  0.93723854020E+02  0.00000000000E+00 0.  1.
</event>
<event>
12    1  0.2609167E-002  0.1818605E+03  0.7818608E-02  0.1166014E+00
         -2   -1    0    0    0  501 -0.00000000000E+00  0.00000000000E+00  0.36343248499E+02  0.36343248499E+02  0.00000000000E+00 0. -1.
          2   -1    0    0  502    0  0.00000000000E+00 -0.00000000000E+00 -0.11788343667E+04  0.11788343667E+04  0.00000000000E+00 0.  1.
          6    2    1    2  502    0 -0.26830277259E+02  0.61425993176E+02 -0.27323570411E+03  0.32640805637E+03  0.16550363392E+03 0.  0.
         24    2    3    3    0    0  0.16227934607E+02 -0.99854698371E+01 -0.19583634271E+03  0.21253814022E+03  0.80358773319E+02 0.  0.
         -6    2    1    2    0  501  0.26830277259E+02 -0.61425993176E+02 -0.86925541406E+03  0.88876955881E+03  0.17266539135E+03 0.  0.
        -24    2    5    5    0    0 -0.31739687280E+02 -0.33977606779E+02 -0.25291350493E+03  0.26902501982E+03  0.79040083490E+02 0.  0.
          5    1    3    3  502    0 -0.43058211866E+02  0.71411463013E+02 -0.77399361398E+02  0.11386991615E+03  0.47000000000E+01 0. -1.
        -11    1    4    4    0    0  0.10913791600E+02 -0.22668706874E+01 -0.20135468664E+03  0.20166298466E+03  0.00000000000E+00 0.  1.
         12    1    4    4    0    0  0.53141430067E+01 -0.77185991497E+01  0.55183439249E+01  0.10875155558E+02  0.00000000000E+00 0. -1.
         -5    1    5    5    0  501  0.58569964540E+02 -0.27448386397E+02 -0.61634190913E+03  0.61974453899E+03  0.47000000000E+01 0.  1.
         11    1    6    6    0    0 -0.19270706331E+02 -0.48026079894E+02 -0.24163757529E+03  0.24711653579E+03  0.00000000000E+00 0. -1.
        -12    1    6    6    0    0 -0.12468980949E+02  0.14048473114E+02 -0.11275929648E+02  0.21908484023E+02  0.00000000000E+00 0.  1.
</event>
<event>
12    1  0.2609167E-002  0.1908301E+03  0.7818608E-02  0.1157715E+00
         -2   -1    0    0    0  501 -0.00000000000E+00  0.00000000000E+00  0.40004560831E+03  0.40004560831E+03  0.00000000000E+00 0.  1.
          2   -1    0    0  502    0  0.00000000000E+00 -0.00000000000E+00 -0.15665595464E+03  0.15665595464E+03  0.00000000000E+00 0. -1.
          6    2    1    2  502    0  0.10410412937E+02  0.81692120346E+02 -0.58407719742E+02  0.19971513322E+03  0.17231567975E+03 0.  0.
         24    2    3    3    0    0  0.20992323424E+02  0.11737782804E+03 -0.70629926302E+02  0.16025732162E+03  0.80471053707E+02 0.  0.
         -6    2    1    2    0  501 -0.10410412937E+02 -0.81692120346E+02  0.30179737341E+03  0.35698642972E+03  0.17197580408E+03 0.  0.
        -24    2    5    5    0    0 -0.28782659994E+02 -0.28129931656E+02  0.61103914870E+02  0.10967715270E+03  0.81704680655E+02 0.  0.
          5    1    3    3  502    0 -0.10581910487E+02 -0.35685707696E+02  0.12222206560E+02  0.39457811604E+02  0.47000000000E+01 0. -1.
        -13    1    4    4    0    0 -0.17110496975E+02  0.89294669186E+02 -0.24498614151E+02  0.94162036656E+02  0.00000000000E+00 0.  1.
         14    1    4    4    0    0  0.38102820400E+02  0.28083158856E+02 -0.46131312152E+02  0.66095284965E+02  0.00000000000E+00 0. -1.
         -5    1    5    5    0  501  0.18372247057E+02 -0.53562188690E+02  0.24069345854E+03  0.24730927702E+03  0.47000000000E+01 0.  1.
         11    1    6    6    0    0  0.24617481778E+02  0.13284080216E+01  0.19746770489E+01  0.24732254778E+02  0.00000000000E+00 0. -1.
        -12    1    6    6    0    0 -0.53400141773E+02 -0.29458339677E+02  0.59129237821E+02  0.84944897923E+02  0.00000000000E+00 0.  1.
</event>
<event>
12    1  0.2609167E-002  0.2013011E+03  0.7818608E-02  0.1148646E+00
          2   -1    0    0  502    0  0.00000000000E+00  0.00000000000E+00  0.11797417812E+04  0.11797417812E+04  0.00000000000E+00 0.  1.
         -2   -1    0    0    0  501 -0.00000000000E+00 -0.00000000000E+00 -0.58035676425E+02  0.58035676425E+02  0.00000000000E+00 0. -1.
          6    2    1    2  502    0 -0.13400741687E+02 -0.10844061380E+03  0.16841045949E+03  0.26382188742E+03  0.17117522840E+03 0.  0.
         24    2    3    3    0    0 -0.69383376287E+02 -0.39204179136E+02  0.76369786911E+02  0.13567620989E+03  0.78896571595E+02 0.  0.
         -6    2    1    2    0  501  0.13400741687E+02  0.10844061380E+03  0.95329564532E+03  0.97395557024E+03  0.16696681951E+03 0.  0.
        -24    2    5    5    0    0 -0.32123019571E+02  0.84381825477E+02  0.38761918106E+03  0.40592107274E+03  0.79819213920E+02 0.  0.
          5    1    3    3  502    0  0.55982634600E+02 -0.69236434662E+02  0.92040672576E+02  0.12814567753E+03  0.47000000000E+01 0. -1.
        -13    1    4    4    0    0 -0.21230683984E+02  0.24176623908E+02  0.27068222401E+02  0.42046875627E+02  0.00000000000E+00 0.  1.
         14    1    4    4    0    0 -0.48152692303E+02 -0.63380803045E+02  0.49301564509E+02  0.93629334258E+02  0.00000000000E+00 0. -1.
         -5    1    5    5    0  501  0.45523761258E+02  0.24058788321E+02  0.56567646426E+03  0.56803449751E+03  0.47000000000E+01 0.  1.
         13    1    6    6    0    0 -0.42574925181E+02  0.74505936292E+02  0.38015435332E+03  0.38971924657E+03  0.00000000000E+00 0. -1.
        -14    1    6    6    0    0  0.10451905610E+02  0.98758891852E+01  0.74648277378E+01  0.16201826169E+02  0.00000000000E+00 0.  1.
</event>
<event>
12    1  0.2609167E-002  0.1716054E+03  0.7818608E-02  0.1176184E+00
          2   -1    0    0  502    0  0.00000000000E+00  0.00000000000E+00  0.54135585678E+03  0.54135585678E+03  0.00000000000E+00 0.  1.
         -2   -1    0    0    0  501 -0.00000000000E+00 -0.00000000000E+00 -0.54928229759E+02  0.54928229759E+02  0.00000000000E+00 0. -1.
          6    2    1    2  502    0  0.12509190982E+02  0.64448729480E+01  0.21409885922E+03  0.27446937580E+03  0.17116395791E+03 0.  0.
         24    2    3    3    0    0 -0.51321768691E+02  0.83625030814E+01  0.88083625157E+02  0.13311875524E+03  0.85194028993E+02 0.  0.
         -6    2    1    2    0  501 -0.12509190982E+02 -0.64448729480E+01  0.27232876780E+03  0.32181471073E+03  0.17089100043E+03 0.  0.
        -24    2    5    5    0    0 -0.51252152687E+02 -0.29995751641E+02  0.90721515506E+02  0.13457437038E+03  0.79707838491E+02 0.  0.
          5    1    3    3  502    0  0.63830959673E+02 -0.19176301334E+01  0.12601523406E+03  0.14135062056E+03  0.47000000000E+01 0. -1.
        -11    1    4    4    0    0 -0.49258359178E+02  0.16359351893E+01  0.10434579278E+03  0.11539976908E+03  0.00000000000E+00 0.  1.
         12    1    4    4    0    0 -0.20634095134E+01  0.67265678921E+01 -0.16262167627E+02  0.17718986155E+02  0.00000000000E+00 0. -1.
         -5    1    5    5    0  501  0.38742961705E+02  0.23550878693E+02  0.18160725229E+03  0.18724034035E+03  0.47000000000E+01 0.  1.
         11    1    6    6    0    0 -0.56287308301E+01 -0.18387724568E+02 -0.11236822626E+02  0.22272341778E+02  0.00000000000E+00 0. -1.
        -12    1    6    6    0    0 -0.45623421857E+02 -0.11608027072E+02  0.10195833813E+03  0.11230202861E+03  0.00000000000E+00 0.  1.
</event>
<event>
12    1  0.2609167E-002  0.1978136E+03  0.7818608E-02  0.1151597E+00
          2   -1    0    0  502    0  0.00000000000E+00  0.00000000000E+00  0.54908329968E+03  0.54908329968E+03  0.00000000000E+00 0. -1.
         -2   -1    0    0    0  501 -0.00000000000E+00 -0.00000000000E+00 -0.71309689227E+02  0.71309689227E+02  0.00000000000E+00 0.  1.
          6    2    1    2  502    0 -0.97195993287E+02 -0.83093883259E+01  0.23050246037E+03  0.30340505434E+03  0.17148508891E+03 0.  0.
         24    2    3    3    0    0 -0.12849540629E+03 -0.64544006222E+01  0.16425060738E+03  0.22995784706E+03  0.96693436550E+02 0.  0.
         -6    2    1    2    0  501  0.97195993287E+02  0.83093883259E+01  0.24727115009E+03  0.31698793456E+03  0.17269111717E+03 0.  0.
        -24    2    5    5    0    0  0.45632357474E+02  0.72123208794E+02  0.14694078052E+03  0.18729874736E+03  0.78772828355E+02 0.  0.
          5    1    3    3  502    0  0.31299413007E+02 -0.18549877037E+01  0.66251852984E+02  0.73447207284E+02  0.47000000000E+01 0. -1.
        -11    1    4    4    0    0 -0.44911288073E+02  0.79079133963E+01  0.56449728520E+00  0.45605674514E+02  0.00000000000E+00 0.  1.
         12    1    4    4    0    0 -0.83584118221E+02 -0.14362314018E+02  0.16368611010E+03  0.18435217254E+03  0.00000000000E+00 0. -1.
         -5    1    5    5    0  501  0.51563635813E+02 -0.63813820468E+02  0.10033036956E+03  0.12968918720E+03  0.47000000000E+01 0.  1.
         13    1    6    6    0    0  0.61094551939E+02  0.58668183661E+02  0.77188793599E+02  0.11459759992E+03  0.00000000000E+00 0. -1.
        -14    1    6    6    0    0 -0.15462194465E+02  0.13455025133E+02  0.69751986926E+02  0.72701147440E+02  0.00000000000E+00 0.  1.
</event>
<event>
12    1  0.2609167E-002  0.2016176E+03  0.7818608E-02  0.1148381E+00
          1   -1    0    0  502    0  0.00000000000E+00  0.00000000000E+00  0.15198308300E+03  0.15198308300E+03  0.00000000000E+00 0.  1.
         -1   -1    0    0    0  501 -0.00000000000E+00 -0.00000000000E+00 -0.27612396216E+03  0.27612396216E+03  0.00000000000E+00 0. -1.
          6    2    1    2  502    0  0.14784547614E+00 -0.10327448254E+03 -0.99214034511E+02  0.22264621476E+03  0.17047660163E+03 0.  0.
         24    2    3    3    0    0 -0.15869610092E+02 -0.42604185710E+02  0.13942723250E+02  0.93170403793E+02  0.80120930142E+02 0.  0.
         -6    2    1    2    0  501 -0.14784547614E+00  0.10327448254E+03 -0.24926844646E+02  0.20546083040E+03  0.17586120846E+03 0.  0.
        -24    2    5    5    0    0 -0.62608137910E+02  0.57998051079E+02 -0.46597258775E+02  0.12519290265E+03  0.78856867090E+02 0.  0.
          5    1    3    3  502    0  0.16017455568E+02 -0.60670296825E+02 -0.11315675776E+03  0.12947581097E+03  0.47000000000E+01 0. -1.
        -13    1    4    4    0    0  0.26375181135E+02 -0.40673669767E+02  0.15377175937E+02  0.50857203345E+02  0.00000000000E+00 0.  1.
         14    1    4    4    0    0 -0.42244791228E+02 -0.19305159437E+01 -0.14344526878E+01  0.42313200448E+02  0.00000000000E+00 0. -1.
         -5    1    5    5    0  501  0.62460292434E+02  0.45276431457E+02  0.21670414129E+02  0.80267927748E+02  0.47000000000E+01 0.  1.
         13    1    6    6    0    0  0.22952885350E+01  0.70742287405E+01 -0.41908333896E+02  0.42563147342E+02  0.00000000000E+00 0. -1.
        -14    1    6    6    0    0 -0.64903426445E+02  0.50923822338E+02 -0.46889248797E+01  0.82629755309E+02  0.00000000000E+00 0.  1.
</event>
<event>
12    1  0.2609167E-002  0.2092282E+03  0.7818608E-02  0.1142179E+00
          2   -1    0    0  502    0  0.00000000000E+00  0.00000000000E+00  0.17094881253E+03  0.17094881253E+03  0.00000000000E+00 0. -1.
         -2   -1    0    0    0  501 -0.00000000000E+00 -0.00000000000E+00 -0.35888014472E+03  0.35888014472E+03  0.00000000000E+00 0.  1.
          6    2    1    2  502    0 -0.90005969483E+02 -0.52163995514E+02  0.44957588948E+02  0.22188976496E+03  0.19076615534E+03 0.  0.
         24    2    3    3    0    0 -0.89040651799E+02  0.35953084626E+02  0.44584081199E+02  0.13364135898E+03  0.81556180433E+02 0.  0.
         -6    2    1    2    0  501  0.90005969483E+02  0.52163995514E+02 -0.23288892113E+03  0.30793919228E+03  0.17253156113E+03 0.  0.
        -24    2    5    5    0    0  0.64027739512E+02  0.10039867463E+03 -0.14221489914E+03  0.20189523458E+03  0.79731818685E+02 0.  0.
          5    1    3    3  502    0 -0.96531768367E+00 -0.88117080141E+02  0.37350774916E+00  0.88248405984E+02  0.47000000000E+01 0. -1.
        -11    1    4    4    0    0 -0.38881765849E+01  0.12292514434E+02  0.43379204837E+02  0.45254604633E+02  0.00000000000E+00 0.  1.
         12    1    4    4    0    0 -0.85152475214E+02  0.23660570192E+02  0.12048763627E+01  0.88386754347E+02  0.00000000000E+00 0. -1.
         -5    1    5    5    0  501  0.25978229971E+02 -0.48234679117E+02 -0.90674021991E+02  0.10604395771E+03  0.47000000000E+01 0.  1.
         11    1    6    6    0    0 -0.50427418273E+01  0.31843758124E+02 -0.34745306890E+01  0.32427249962E+02  0.00000000000E+00 0. -1.
        -12    1    6    6    0    0  0.69070481339E+02  0.68554916508E+02 -0.13874036846E+03  0.16946798461E+03  0.00000000000E+00 0.  1.
</event>
<event>
12    1  0.2609167E-002  0.1783475E+03  0.7818608E-02  0.1169412E+00
         -2   -1    0    0    0  501 -0.00000000000E+00  0.00000000000E+00  0.30675798274E+02  0.30675798274E+02  0.00000000000E+00 0.  1.
          2   -1    0    0  502    0  0.00000000000E+00 -0.00000000000E+00 -0.20300929787E+04  0.20300929787E+04  0.00000000000E+00 0. -1.
          6    2    1    2  502    0  0.44945587808E+02 -0.90808600655E+01 -0.27638035409E+03  0.32843101768E+03  0.17140089079E+03 0.  0.
         24    2    3    3    0    0 -0.37120638955E+02  0.19841788637E+02 -0.14658192395E+03  0.17209449716E+03  0.79740937476E+02 0.  0.
         -6    2    1    2    0  501 -0.44945587808E+02  0.90808600655E+01 -0.17230368263E+04  0.17323377593E+04  0.17330793252E+03 0.  0.
        -24    2    5    5    0    0  0.42573573918E+02  0.14179329742E+02 -0.83816353344E+03  0.84311988242E+03  0.79495061229E+02 0.  0.
          5    1    3    3  502    0  0.82066226763E+02 -0.28922648703E+02 -0.12979843013E+03  0.15633652052E+03  0.47000000000E+01 0. -1.
        -11    1    4    4    0    0 -0.18925220582E+02  0.34844517747E+02 -0.22093355248E+02  0.45391857609E+02  0.00000000000E+00 0.  1.
         12    1    4    4    0    0 -0.18195418374E+02 -0.15002729110E+02 -0.12448856870E+03  0.12670263955E+03  0.00000000000E+00 0. -1.
         -5    1    5    5    0  501 -0.87519161726E+02 -0.50984696761E+01 -0.88487329287E+03  0.88921787684E+03  0.47000000000E+01 0.  1.
         11    1    6    6    0    0 -0.14155696487E+02 -0.13245072271E+02 -0.78917266870E+02  0.81263464685E+02  0.00000000000E+00 0. -1.
        -12    1    6    6    0    0  0.56729270405E+02  0.27424402013E+02 -0.75924626657E+03  0.76185641774E+03  0.00000000000E+00 0.  1.
</event>
<event>
12    1  0.2609167E-002  0.1835135E+03  0.7818608E-02  0.1164445E+00
         -2   -1    0    0    0  501 -0.00000000000E+00  0.00000000000E+00  0.42492453027E+02  0.42492453027E+02  0.00000000000E+00 0. -1.
          2   -1    0    0  502    0  0.00000000000E+00 -0.00000000000E+00 -0.14052501334E+04  0.14052501334E+04  0.00000000000E+00 0.  1.
          6    2    1    2  502    0  0.60956434872E+02 -0.72555755220E+00 -0.11594208074E+04  0.11738588556E+04  0.17312362914E+03 0.  0.
         24    2    3    3    0    0  0.10572776752E+03 -0.21016216285E+02 -0.82642664043E+03  0.83722346194E+03  0.79637246593E+02 0.  0.
         -6    2    1    2    0  501 -0.60956434872E+02  0.72555755220E+00 -0.20333687300E+03  0.27388373080E+03  0.17306126283E+03 0.  0.
        -24    2    5    5    0    0  0.88786108132E+01 -0.49480674838E+02 -0.12774752248E+03  0.15928251227E+03  0.80773277164E+02 0.  0.
          5    1    3    3  502    0 -0.44771332648E+02  0.20290658733E+02 -0.33299416695E+03  0.33663539369E+03  0.47000000000E+01 0. -1.
        -13    1    4    4    0    0  0.85349526934E+02 -0.14295192743E+02 -0.79160566967E+03  0.79632181343E+03  0.00000000000E+00 0.  1.
         14    1    4    4    0    0  0.20378240586E+02 -0.67210235423E+01 -0.34820970759E+02  0.40901648517E+02  0.00000000000E+00 0. -1.
         -5    1    5    5    0  501 -0.69835045686E+02  0.50206232390E+02 -0.75589350520E+02  0.11460121853E+03  0.47000000000E+01 0.  1.
         13    1    6    6    0    0 -0.16469692398E+02 -0.67619696002E+01  0.42018709735E+01  0.18292914482E+02  0.00000000000E+00 0. -1.
        -14    1    6    6    0    0  0.25348303211E+02 -0.42718705238E+02 -0.13194939345E+03  0.14098959779E+03  0.00000000000E+00 0.  1.
</event>
<event>
12    1  0.2609167E-002  0.1883205E+03  0.7818608E-02  0.1159985E+00
         -2   -1    0    0    0  501 -0.00000000000E+00  0.00000000000E+00  0.33363839178E+02  0.33363839178E+02  0.00000000000E+00 0.  1.
          2   -1    0    0  502    0  0.00000000000E+00 -0.00000000000E+00 -0.10662873985E+04  0.10662873985E+04  0.00000000000E+00 0. -1.
          6    2    1    2  502    0 -0.60266509344E+02  0.45595747361E+02 -0.55075048446E+03  0.58252010502E+03  0.17404755757E+03 0.  0.
         24    2    3    3    0    0 -0.33494163727E+01  0.51437686506E+02 -0.15434659027E+03  0.18198069241E+03  0.81468081473E+02 0.  0.
         -6    2    1    2    0  501  0.60266509344E+02 -0.45595747361E+02 -0.48217307486E+03  0.51713113266E+03  0.17094651185E+03 0.  0.
        -24    2    5    5    0    0  0.12562784646E+02 -0.30676615608E+02 -0.44829277005E+03  0.45656554097E+03  0.79917502588E+02 0.  0.
          5    1    3    3  502    0 -0.56917092971E+02 -0.58419391444E+01 -0.39640389419E+03  0.40053941261E+03  0.47000000000E+01 0. -1.
        -11    1    4    4    0    0 -0.38808867747E+02  0.23310834826E+02 -0.10845753924E+03  0.11752685248E+03  0.00000000000E+00 0.  1.
         12    1    4    4    0    0  0.35459451374E+02  0.28126851679E+02 -0.45889051029E+02  0.64453839928E+02  0.00000000000E+00 0. -1.
         -5    1    5    5    0  501  0.47703724698E+02 -0.14919131754E+02 -0.33880304817E+02  0.60565591691E+02  0.47000000000E+01 0.  1.
         13    1    6    6    0    0 -0.27529130186E+02  0.99809923274E+01 -0.16436667218E+03  0.16695471284E+03  0.00000000000E+00 0. -1.
        -14    1    6    6    0    0  0.40091914832E+02 -0.40657607935E+02 -0.28392609787E+03  0.28961082812E+03  0.00000000000E+00 0.  1.
</event>
<event>
12    1  0.2609167E-002  0.2230563E+03  0.7818608E-02  0.1131625E+00
          2   -1    0    0  502    0  0.00000000000E+00  0.00000000000E+00  0.23521290839E+03  0.23521290839E+03  0.00000000000E+00 0.  1.
         -2   -1    0    0    0  501 -0.00000000000E+00 -0.00000000000E+00 -0.37719412300E+03  0.37719412300E+03  0.00000000000E+00 0. -1.
          6    2    1    2  502    0 -0.36668125099E+02  0.13605251472E+03  0.13200161266E+03  0.25888259666E+03  0.17245560283E+03 0.  0.
         24    2    3    3    0    0  0.24021228097E+02  0.13602140560E+03  0.86482868167E+02  0.18287440855E+03  0.82975421881E+02 0.  0.
         -6    2    1    2    0  501  0.36668125099E+02 -0.13605251472E+03 -0.27398282727E+03  0.35352443474E+03  0.17337271456E+03 0.  0.
        -24    2    5    5    0    0  0.31733426580E+02 -0.87829865637E+02 -0.27809820277E+03  0.30464906824E+03  0.82166591367E+02 0.  0.
          5    1    3    3  502    0 -0.60689353196E+02  0.31109121891E-01  0.45518744488E+02  0.76008188105E+02  0.47000000000E+01 0. -1.
        -11    1    4    4    0    0  0.52721560630E+01  0.12455512128E+03  0.39119136834E+02  0.13066017272E+03  0.00000000000E+00 0.  1.
         12    1    4    4    0    0  0.18749072034E+02  0.11466284316E+02  0.47363731333E+02  0.52214235836E+02  0.00000000000E+00 0. -1.
         -5    1    5    5    0  501  0.49346985189E+01 -0.48222649086E+02  0.41153755000E+01  0.48875366493E+02  0.47000000000E+01 0.  1.
         11    1    6    6    0    0 -0.10266050858E+02  0.51828434924E+01 -0.89259719338E+02  0.89997506427E+02  0.00000000000E+00 0. -1.
        -12    1    6    6    0    0  0.41999477439E+02 -0.93012709129E+02 -0.18883848343E+03  0.21465156181E+03  0.00000000000E+00 0.  1.
</event>
<event>
12    1  0.2609167E-002  0.1813748E+03  0.7818608E-02  0.1166479E+00
         -1   -1    0    0    0  501 -0.00000000000E+00  0.00000000000E+00  0.25338831453E+02  0.25338831453E+02  0.00000000000E+00 0.  1.
          1   -1    0    0  502    0  0.00000000000E+00 -0.00000000000E+00 -0.16242764698E+04  0.16242764698E+04  0.00000000000E+00 0. -1.
          6    2    1    2  502    0  0.53916227340E+02  0.14600826240E+02 -0.42996736763E+03  0.46665839825E+03  0.17256297324E+03 0.  0.
         24    2    3    3    0    0  0.25667125351E+02  0.42981158438E+02 -0.40744397256E+03  0.42047562717E+03  0.91010883778E+02 0.  0.
         -6    2    1    2    0  501 -0.53916227340E+02 -0.14600826240E+02 -0.11689702707E+04  0.11829569030E+04  0.17255548917E+03 0.  0.
        -24    2    5    5    0    0 -0.92868504064E+02 -0.44033603650E+02 -0.92187149978E+03  0.93103735067E+03  0.80124708679E+02 0.  0.
          5    1    3    3  502    0  0.28249101989E+02 -0.28380332198E+02 -0.22523395065E+02  0.46182771075E+02  0.47000000000E+01 0. -1.
        -13    1    4    4    0    0 -0.10021951898E+02  0.17765493542E+02 -0.14300302660E+02  0.24910859817E+02  0.00000000000E+00 0.  1.
         14    1    4    4    0    0  0.35689077248E+02  0.25215664896E+02 -0.39314366990E+03  0.39556476736E+03  0.00000000000E+00 0. -1.
         -5    1    5    5    0  501  0.38952276724E+02  0.29432777410E+02 -0.24709877096E+03  0.25191955236E+03  0.47000000000E+01 0.  1.
         13    1    6    6    0    0 -0.34549149252E+02  0.14401679856E+02 -0.48439677671E+03  0.48584080663E+03  0.00000000000E+00 0. -1.
        -14    1    6    6    0    0 -0.58319354812E+02 -0.58435283505E+02 -0.43747472307E+03  0.44519654405E+03  0.00000000000E+00 0.  1.
</event>
<event>
12    1  0.2609167E-002  0.1854492E+03  0.7818608E-02  0.1162631E+00
          1   -1    0    0  502    0  0.00000000000E+00  0.00000000000E+00  0.23154383013E+03  0.23154383013E+03  0.00000000000E+00 0.  1.
         -1   -1    0    0    0  501 -0.00000000000E+00 -0.00000000000E+00 -0.15689515654E+03  0.15689515654E+03  0.00000000000E+00 0. -1.
          6    2    1    2  502    0  0.44678043626E+01  0.69796200165E+02 -0.72930899622E+01  0.18670523298E+03  0.17295717397E+03 0.  0.
         24    2    3    3    0    0 -0.46258579842E+01  0.10748813881E+03 -0.36034106139E+02  0.13821283208E+03  0.78925481314E+02 0.  0.
         -6    2    1    2    0  501 -0.44678043626E+01 -0.69796200165E+02  0.81941763550E+02  0.20173375369E+03  0.17055961987E+03 0.  0.
        -24    2    5    5    0    0 -0.26720721613E+02  0.86899753345E+01  0.86299326339E+02  0.11990252234E+03  0.78355143431E+02 0.  0.
          5    1    3    3  502    0  0.90936623468E+01 -0.37691938644E+02  0.28741016177E+02  0.48492400895E+02  0.47000000000E+01 0. -1.
        -11    1    4    4    0    0  0.80801071991E+01  0.34013060895E+02  0.24065753062E+02  0.42442159632E+02  0.00000000000E+00 0.  1.
         12    1    4    4    0    0 -0.12705965183E+02  0.73475077914E+02 -0.60099859202E+02  0.95770672451E+02  0.00000000000E+00 0. -1.
         -5    1    5    5    0  501  0.22252917250E+02 -0.78486175499E+02 -0.43575627887E+01  0.81831231349E+02  0.47000000000E+01 0.  1.
         11    1    6    6    0    0 -0.61551933814E+01  0.39643014379E+02  0.22308332440E+02  0.45903340738E+02  0.00000000000E+00 0. -1.
        -12    1    6    6    0    0 -0.20565528232E+02 -0.30953039045E+02  0.63990993899E+02  0.73999181602E+02  0.00000000000E+00 0.  1.
</event>
<event>
12    1  0.2609167E-002  0.1916079E+03  0.7818608E-02  0.1157019E+00
          1   -1    0    0  502    0  0.00000000000E+00  0.00000000000E+00  0.41346234152E+04  0.41346234152E+04  0.00000000000E+00 0.  1.
         -1   -1    0    0    0  501 -0.00000000000E+00 -0.00000000000E+00 -0.89682153073E+01  0.89682153073E+01  0.00000000000E+00 0. -1.
          6    2    1    2  502    0 -0.51989891209E+01 -0.89119311687E+02  0.22715808156E+04  0.22796693807E+04  0.16983463196E+03 0.  0.
         24    2    3    3    0    0  0.38777497126E+02 -0.10858644486E+03  0.14665193189E+04  0.14731589938E+04  0.78891052289E+02 0.  0.
         -6    2    1    2    0  501  0.51989891209E+01  0.89119311687E+02  0.18540743843E+04  0.18639222498E+04  0.16924848508E+03 0.  0.
        -24    2    5    5    0    0  0.66255303313E+02  0.35510130032E+02  0.10681943512E+04  0.10738391312E+04  0.80253182457E+02 0.  0.
          5    1    3    3  502    0 -0.43976486247E+02  0.19467133171E+02  0.80506149667E+03  0.80651038682E+03  0.47000000000E+01 0. -1.
        -11    1    4    4    0    0  0.61826991217E+01 -0.85377977461E+02  0.64363570073E+03  0.64930311878E+03  0.00000000000E+00 0.  1.
         12    1    4    4    0    0  0.32594798004E+02 -0.23208467397E+02  0.82288361816E+03  0.82385587505E+03  0.00000000000E+00 0. -1.
         -5    1    5    5    0  501 -0.61056314192E+02  0.53609181655E+02  0.78588003314E+03  0.79008311864E+03  0.47000000000E+01 0.  1.
         13    1    6    6    0    0  0.34496724763E+01 -0.22280594600E+02  0.14975046759E+03  0.15143819756E+03  0.00000000000E+00 0. -1.
        -14    1    6    6    0    0  0.62805630837E+02  0.57790724632E+02  0.91844388357E+03  0.92240093364E+03  0.00000000000E+00 0.  1.
</event>
<event>
12    1  0.2609167E-002  0.1756126E+03  0.7818608E-02  0.1172118E+00
         -2   -1    0    0    0  501 -0.00000000000E+00  0.00000000000E+00  0.19195687291E+02  0.19195687291E+02  0.00000000000E+00 0. -1.
          2   -1    0    0  502    0  0.00000000000E+00 -0.00000000000E+00 -0.16441556402E+04  0.16441556402E+04  0.00000000000E+00 0.  1.
          6    2    1    2  502    0 -0.32667493957E+01  0.35962477867E+02 -0.93785259146E+03  0.95413951459E+03  0.17178695683E+03 0.  0.
         24    2    3    3    0    0  0.44148515738E+02  0.27448304313E+02 -0.31016049377E+03  0.32458399041E+03  0.80328911905E+02 0.  0.
         -6    2    1    2    0  501  0.32667493957E+01 -0.35962477867E+02 -0.68710736141E+03  0.70921181285E+03  0.17193282970E+03 0.  0.
        -24    2    5    5    0    0  0.36025911576E+02 -0.54135809421E+02 -0.64138625965E+03  0.64991643502E+03  0.82380132770E+02 0.  0.
          5    1    3    3  502    0 -0.47415265133E+02  0.85141735533E+01 -0.62769209769E+03  0.62955552418E+03  0.47000000000E+01 0. -1.
        -13    1    4    4    0    0  0.33091870489E+02  0.55990764507E+02 -0.21496216790E+03  0.22458577700E+03  0.00000000000E+00 0.  1.
         14    1    4    4    0    0  0.11056645249E+02 -0.28542460194E+02 -0.95198325868E+02  0.99998213415E+02  0.00000000000E+00 0. -1.
         -5    1    5    5    0  501 -0.32759162181E+02  0.18173331555E+02 -0.45721101754E+02  0.59295377831E+02  0.47000000000E+01 0.  1.
         13    1    6    6    0    0 -0.21579049055E+02 -0.13596331831E+02 -0.76145619590E+02  0.80303617478E+02  0.00000000000E+00 0. -1.
        -14    1    6    6    0    0  0.57604960632E+02 -0.40539477590E+02 -0.56524064006E+03  0.56961281755E+03  0.00000000000E+00 0.  1.
</event>
<event>
12    1  0.2609167E-002  0.1775528E+03  0.7818608E-02  0.1170193E+00
          2   -1    0    0  502    0  0.00000000000E+00  0.00000000000E+00  0.11896683098E+04  0.11896683098E+04  0.00000000000E+00 0.  1.
         -2   -1    0    0    0  501 -0.00000000000E+00 -0.00000000000E+00 -0.31005986912E+02  0.31005986912E+02  0.00000000000E+00 0. -1.
          6    2    1    2  502    0 -0.21899010766E+02 -0.19548550365E+01  0.33600839729E+03  0.37822662186E+03  0.17225082382E+03 0.  0.
         24    2    3    3    0    0  0.26434605601E+02  0.30297981397E+02  0.94504137756E+02  0.12978592210E+03  0.79351102519E+02 0.  0.
         -6    2    1    2    0  501  0.21899010766E+02  0.19548550365E+01  0.82265392556E+03  0.84244767480E+03  0.18020881060E+03 0.  0.
        -24    2    5    5    0    0 -0.38911793172E+02 -0.23091303985E+02  0.25017906226E+03  0.26618833816E+03  0.78862742878E+02 0.  0.
          5    1    3    3  502    0 -0.48333616368E+02 -0.32252836434E+02  0.24150425953E+03  0.24844069977E+03  0.47000000000E+01 0. -1.
        -13    1    4    4    0    0  0.63318989969E+00  0.83794996055E+01  0.95546465020E+02  0.95915295553E+02  0.00000000000E+00 0.  1.
         14    1    4    4    0    0  0.25801415702E+02  0.21918481792E+02 -0.10423272639E+01  0.33870626543E+02  0.00000000000E+00 0. -1.
         -5    1    5    5    0  501  0.60810803939E+02  0.25046159021E+02  0.57247486330E+03  0.57625933664E+03  0.47000000000E+01 0.  1.
         11    1    6    6    0    0 -0.12582980439E+02 -0.43837344467E+02  0.74589600811E+02  0.87427985884E+02  0.00000000000E+00 0. -1.
        -12    1    6    6    0    0 -0.26328812734E+02  0.20746040483E+02  0.17558946144E+03  0.17876035228E+03  0.00000000000E+00 0.  1.
</event>
<event>
12    1  0.2609167E-002  0.2273934E+03  0.7818608E-02  0.1128488E+00
          1   -1    0    0  502    0  0.00000000000E+00  0.00000000000E+00  0.11380992691E+03  0.11380992691E+03  0.00000000000E+00 0. -1.
         -1   -1    0    0    0  501 -0.00000000000E+00 -0.00000000000E+00 -0.51819387688E+03  0.51819387688E+03  0.00000000000E+00 0.  1.
          6    2    1    2  502    0  0.10348301747E+03  0.10543240044E+03 -0.31415108643E+03  0.38860060664E+03  0.17462760495E+03 0.  0.
         24    2    3    3    0    0  0.14198800358E+02  0.52372564554E+02 -0.24437687223E+03  0.26339058876E+03  0.81914926102E+02 0.  0.
         -6    2    1    2    0  501 -0.10348301747E+03 -0.10543240044E+03 -0.90232863548E+02  0.24340319715E+03  0.17110938241E+03 0.  0.
        -24    2    5    5    0    0 -0.12286067266E+03 -0.10900341011E+03 -0.11069539375E+03  0.21460995535E+03  0.82628532806E+02 0.  0.
          5    1    3    3  502    0  0.89284217114E+02  0.53059835890E+02 -0.69774214197E+02  0.12521001788E+03  0.47000000000E+01 0. -1.
        -11    1    4    4    0    0  0.43142033725E+02  0.27048733565E+02 -0.19055228253E+03  0.19723853944E+03  0.00000000000E+00 0.  1.
         12    1    4    4    0    0 -0.28943233367E+02  0.25323830989E+02 -0.53824589698E+02  0.66152049324E+02  0.00000000000E+00 0. -1.
         -5    1    5    5    0  501  0.19377655193E+02  0.35710096701E+01  0.20462530204E+02  0.28793241798E+02  0.47000000000E+01 0.  1.
         11    1    6    6    0    0 -0.59610198424E+02 -0.52106343821E+02 -0.55657561694E+01  0.79368913715E+02  0.00000000000E+00 0. -1.
        -12    1    6    6    0    0 -0.63250474240E+02 -0.56897066293E+02 -0.10512963758E+03  0.13524104164E+03  0.00000000000E+00 0.  1.
</event>
<event>
12    1  0.2609167E-002  0.2712400E+03  0.7818608E-02  0.1100572E+00
          2   -1    0    0  502    0  0.00000000000E+00  0.00000000000E+00  0.63832387011E+03  0.63832387011E+03  0.00000000000E+00 0.  1.
         -2   -1    0    0    0  501 -0.00000000000E+00 -0.00000000000E+00 -0.12059575010E+03  0.12059575010E+03  0.00000000000E+00 0. -1.
          6    2    1    2  502    0 -0.10672103894E+03  0.17902303107E+03  0.33929365803E+03  0.43479284658E+03  0.17460242625E+03 0.  0.
         24    2    3    3    0    0 -0.47426910708E+02  0.81407828919E+02  0.68969829242E+02  0.14129398160E+03  0.79565101786E+02 0.  0.
         -6    2    1    2    0  501  0.10672103894E+03 -0.17902303107E+03  0.17843446199E+03  0.32412677363E+03  0.17257080389E+03 0.  0.
        -24    2    5    5    0    0  0.13601401761E+03 -0.14095957101E+03  0.10077615486E+03  0.23269478658E+03  0.74977441050E+02 0.  0.
          5    1    3    3  502    0 -0.59294128235E+02  0.97615202150E+02  0.27032382878E+03  0.29349886498E+03  0.47000000000E+01 0. -1.
        -11    1    4    4    0    0 -0.11197413384E+02  0.40145864280E+02  0.75254770584E+02  0.86025304306E+02  0.00000000000E+00 0.  1.
         12    1    4    4    0    0 -0.36229497324E+02  0.41261964639E+02 -0.62849413419E+01  0.55268677295E+02  0.00000000000E+00 0. -1.
         -5    1    5    5    0  501 -0.29292978668E+02 -0.38063460054E+02  0.77658307130E+02  0.91431987055E+02  0.47000000000E+01 0.  1.
         13    1    6    6    0    0  0.23819576137E+02 -0.38908259914E+02 -0.76521681215E+01  0.46257762309E+02  0.00000000000E+00 0. -1.
        -14    1    6    6    0    0  0.11219444147E+03 -0.10205131110E+03  0.10842832298E+03  0.18643702427E+03  0.00000000000E+00 0.  1.
</event>
<event>
12    1  0.2609167E-002  0.1810712E+03  0.7818608E-02  0.1166770E+00
         -2   -1    0    0    0  501 -0.00000000000E+00  0.00000000000E+00  0.12837916767E+03  0.12837916767E+03  0.00000000000E+00 0. -1.
          2   -1    0    0  502    0  0.00000000000E+00 -0.00000000000E+00 -0.30838497602E+03  0.30838497602E+03  0.00000000000E+00 0.  1.
          6    2    1    2  502    0 -0.37882556040E+01  0.65679237575E+02  0.52225503325E+00  0.18108103827E+03  0.16870671754E+03 0.  0.
         24    2    3    3    0    0 -0.92979866757E+01  0.84316957792E+01  0.58171170573E+02  0.99514343835E+02  0.79760099631E+02 0.  0.
         -6    2    1    2    0  501  0.37882556040E+01 -0.65679237575E+02 -0.18052806339E+03  0.25568310542E+03  0.16868715303E+03 0.  0.
        -24    2    5    5    0    0 -0.13228082744E+02 -0.99443958584E+02 -0.86239201954E+02  0.15398703103E+03  0.78808138533E+02 0.  0.
          5    1    3    3  502    0  0.55097310718E+01  0.57247541795E+02 -0.57648915540E+02  0.81566694435E+02  0.47000000000E+01 0. -1.
        -13    1    4    4    0    0 -0.81754656133E+01  0.41825961836E+02  0.15569376155E+02  0.45372401252E+02  0.00000000000E+00 0.  1.
         14    1    4    4    0    0 -0.11225210624E+01 -0.33394266057E+02  0.42601794418E+02  0.54141942583E+02  0.00000000000E+00 0. -1.
         -5    1    5    5    0  501  0.17016338348E+02  0.33764721010E+02 -0.94288861434E+02  0.10169607439E+03  0.47000000000E+01 0.  1.
         13    1    6    6    0    0 -0.36716204928E+02 -0.26169578245E+02 -0.54546369572E+02  0.70768870015E+02  0.00000000000E+00 0. -1.
        -14    1    6    6    0    0  0.23488122184E+02 -0.73274380339E+02 -0.31692832382E+02  0.83218161012E+02  0.00000000000E+00 0.  1.
</event>
<event>
12    1  0.2609167E-002  0.3361525E+03  0.7818608E-02  0.1068447E+00
         -1   -1    0    0    0  501 -0.00000000000E+00  0.00000000000E+00  0.14591129815E+03  0.14591129815E+03  0.00000000000E+00 0. -1.
          1   -1    0    0  502    0  0.00000000000E+00 -0.00000000000E+00 -0.77876394441E+03  0.77876394441E+03  0.00000000000E+00 0.  1.
          6    2    1    2  502    0 -0.21693994294E+03 -0.19022777113E+03 -0.34893683082E+03  0.48314285089E+03  0.16858398116E+03 0.  0.
         24    2    3    3    0    0 -0.14070010954E+03 -0.13770301046E+03 -0.32483009755E+03  0.38735878505E+03  0.75984183628E+02 0.  0.
         -6    2    1    2    0  501  0.21693994294E+03  0.19022777113E+03 -0.28391581543E+03  0.44153239167E+03  0.17633241021E+03 0.  0.
        -24    2    5    5    0    0  0.10738864195E+03  0.77247263635E+02 -0.22659301710E+03  0.27397918869E+03  0.78871669663E+02 0.  0.
          5    1    3    3  502    0 -0.76239833394E+02 -0.52524760671E+02 -0.24106733272E+02  0.95784065838E+02  0.47000000000E+01 0. -1.
        -13    1    4    4    0    0 -0.79438494069E+01  0.30909383981E+01 -0.53017759444E+02  0.53698616929E+02  0.00000000000E+00 0.  1.
         14    1    4    4    0    0 -0.13275626014E+03 -0.14079394886E+03 -0.27181233811E+03  0.33366016812E+03  0.00000000000E+00 0. -1.
         -5    1    5    5    0  501  0.10955130098E+03  0.11298050750E+03 -0.57322798330E+02  0.16755320299E+03  0.47000000000E+01 0.  1.
         13    1    6    6    0    0  0.12054279531E+02  0.53635442150E+02 -0.68063079149E+02  0.87490851253E+02  0.00000000000E+00 0. -1.
        -14    1    6    6    0    0  0.95334362421E+02  0.23611821484E+02 -0.15852993795E+03  0.18648833743E+03  0.00000000000E+00 0.  1.
</event>
<event>
12    1  0.2609167E-002  0.1781414E+03  0.7818608E-02  0.1169614E+00
         -1   -1    0    0    0  501 -0.00000000000E+00  0.00000000000E+00  0.14829612950E+03  0.14829612950E+03  0.00000000000E+00 0. -1.
          1   -1    0    0  502    0  0.00000000000E+00 -0.00000000000E+00 -0.38349721655E+03  0.38349721655E+03  0.00000000000E+00 0.  1.
          6    2    1    2  502    0 -0.39798679779E+02  0.20756536711E+02 -0.29432349873E+03  0.34396240688E+03  0.17224705140E+03 0.  0.
         24    2    3    3    0    0 -0.68790972657E+01 -0.30855855531E+02 -0.71064853214E+02  0.11241532583E+03  0.81163947169E+02 0.  0.
         -6    2    1    2    0  501  0.39798679779E+02 -0.20756536711E+02  0.59122411670E+02  0.18783093917E+03  0.17254052689E+03 0.  0.
        -24    2    5    5    0    0 -0.27507257713E+02 -0.22511264650E+02  0.78597505186E+02  0.11758467550E+03  0.79907332755E+02 0.  0.
          5    1    3    3  502    0 -0.32919582513E+02  0.51612392242E+02 -0.22325864551E+03  0.23154708105E+03  0.47000000000E+01 0. -1.
        -11    1    4    4    0    0 -0.14756521260E+02 -0.19306503333E+02 -0.87515646813E+02  0.90826672447E+02  0.00000000000E+00 0.  1.
         12    1    4    4    0    0  0.78774239938E+01 -0.11549352198E+02  0.16450793599E+02  0.21588653386E+02  0.00000000000E+00 0. -1.
         -5    1    5    5    0  501  0.67305937492E+02  0.17547279387E+01 -0.19475093516E+02  0.70246263668E+02  0.47000000000E+01 0.  1.
         13    1    6    6    0    0 -0.40603507159E+02 -0.29133852225E+02  0.14798151383E+02  0.52119203980E+02  0.00000000000E+00 0. -1.
        -14    1    6    6    0    0  0.13096249446E+02  0.66225875758E+01  0.63799353802E+02  0.65465471520E+02  0.00000000000E+00 0.  1.
</event>
<event>
12    1  0.2609167E-002  0.1848650E+03  0.7818608E-02  0.1163176E+00
          3   -1    0    0  502    0  0.00000000000E+00  0.00000000000E+00  0.65338603138E+02  0.65338603138E+02  0.00000000000E+00 0.  1.
         -3   -1    0    0    0  501 -0.00000000000E+00 -0.00000000000E+00 -0.99478697245E+03  0.99478697245E+03  0.00000000000E+00 0. -1.
          6    2    1    2  502    0 -0.56429132072E+02 -0.31825639023E+02 -0.10003928117E+03  0.21041879163E+03  0.17341018381E+03 0.  0.
         24    2    3    3    0    0 -0.96285021460E+02 -0.21889434469E+02 -0.36511688106E+02  0.13462258354E+03  0.83905803926E+02 0.  0.
         -6    2    1    2    0  501  0.56429132072E+02  0.31825639023E+02 -0.82940908814E+03  0.84970678396E+03  0.17287297350E+03 0.  0.
        -24    2    5    5    0    0 -0.26068443943E+02 -0.22091599130E+02 -0.37337862904E+03  0.38312475661E+03  0.78774208848E+02 0.  0.
          5    1    3    3  502    0  0.39855889387E+02 -0.99362045537E+01 -0.63527593065E+02  0.75796208088E+02  0.47000000000E+01 0. -1.
        -11    1    4    4    0    0 -0.73614960226E+02 -0.31339495954E+02 -0.60487206017E+02  0.10029969326E+03  0.00000000000E+00 0.  1.
         12    1    4    4    0    0 -0.22670061233E+02  0.94500614848E+01  0.23975517911E+02  0.34322890285E+02  0.00000000000E+00 0. -1.
         -5    1    5    5    0  501  0.82497576016E+02  0.53917238152E+02 -0.45603045910E+03  0.46658202735E+03  0.47000000000E+01 0.  1.
         13    1    6    6    0    0  0.26940006345E+02 -0.18390316070E+02 -0.15154752852E+03  0.15501813142E+03  0.00000000000E+00 0. -1.
        -14    1    6    6    0    0 -0.53008450289E+02 -0.37012830602E+01 -0.22183110052E+03  0.22810662519E+03  0.00000000000E+00 0.  1.
</event>
<event>
12    1  0.2609167E-002  0.1901969E+03  0.7818608E-02  0.1158284E+00
         -1   -1    0    0    0  501 -0.00000000000E+00  0.00000000000E+00  0.35998602772E+03  0.35998602772E+03  0.00000000000E+00 0.  1.
          1   -1    0    0  502    0  0.00000000000E+00 -0.00000000000E+00 -0.14444060936E+03  0.14444060936E+03  0.00000000000E+00 0. -1.
          6    2    1    2  502    0 -0.49966854659E+02 -0.61877540323E+02 -0.31150483438E+02  0.19323492440E+03  0.17333166713E+03 0.  0.
         24    2    3    3    0    0 -0.80527342783E+02 -0.69891492010E+02  0.18693188056E+02  0.13403485308E+03  0.79034378408E+02 0.  0.
         -6    2    1    2    0  501  0.49966854659E+02  0.61877540323E+02  0.24669590179E+03  0.31119171267E+03  0.17220887757E+03 0.  0.
        -24    2    5    5    0    0  0.81781071800E+02 -0.61291129925E+01  0.16393816614E+03  0.19935262238E+03  0.78358381814E+02 0.  0.
          5    1    3    3  502    0  0.30560488125E+02  0.80139516878E+01 -0.49843671494E+02  0.59200071318E+02  0.47000000000E+01 0. -1.
        -13    1    4    4    0    0 -0.25931574821E+02 -0.38013921154E+02  0.46093592942E+02  0.65131590527E+02  0.00000000000E+00 0.  1.
         14    1    4    4    0    0 -0.54595767962E+02 -0.31877570856E+02 -0.27400404887E+02  0.68903262557E+02  0.00000000000E+00 0. -1.
         -5    1    5    5    0  501 -0.31814217142E+02  0.68006653315E+02  0.82757735651E+02  0.11183909029E+03  0.47000000000E+01 0.  1.
         13    1    6    6    0    0  0.17724432224E+02 -0.37924845889E+02  0.63441762468E+02  0.76008595951E+02  0.00000000000E+00 0. -1.
        -14    1    6    6    0    0  0.64056639576E+02  0.31795732896E+02  0.10049640367E+03  0.12334402643E+03  0.00000000000E+00 0.  1.
</event>
<event>
12    1  0.2609167E-002  0.2030645E+03  0.7818608E-02  0.1147179E+00
         -1   -1    0    0    0  501 -0.00000000000E+00  0.00000000000E+00  0.17390418877E+03  0.17390418877E+03  0.00000000000E+00 0. -1.
          1   -1    0    0  502    0  0.00000000000E+00 -0.00000000000E+00 -0.24318229369E+03  0.24318229369E+03  0.00000000000E+00 0.  1.
          6    2    1    2  502    0 -0.50295118514E+02 -0.90858620491E+02 -0.19436441464E+01  0.20439454658E+03  0.17603540853E+03 0.  0.
         24    2    3    3    0    0 -0.68098792656E+02 -0.11361745644E+02  0.27381052092E+02  0.11768381061E+03  0.91286485528E+02 0.  0.
         -6    2    1    2    0  501  0.50295118514E+02  0.90858620491E+02 -0.67334460768E+02  0.21269193588E+03  0.17297121760E+03 0.  0.
        -24    2    5    5    0    0  0.78414285537E+02  0.17431841145E+02 -0.58214534397E+01  0.11275135578E+03  0.78906968317E+02 0.  0.
          5    1    3    3  502    0  0.17803674141E+02 -0.79496874848E+02 -0.29324696238E+02  0.86710735973E+02  0.47000000000E+01 0. -1.
        -11    1    4    4    0    0 -0.60321983053E+02  0.26515685388E+02 -0.65795897295E+01  0.66220194896E+02  0.00000000000E+00 0.  1.
         12    1    4    4    0    0 -0.77768096027E+01 -0.37877431032E+02  0.33960641821E+02  0.51463615711E+02  0.00000000000E+00 0. -1.
         -5    1    5    5    0  501 -0.28119167023E+02  0.73426779346E+02 -0.61513007328E+02  0.99940580095E+02  0.47000000000E+01 0.  1.
         13    1    6    6    0    0  0.24519972469E+02 -0.21195316981E+02  0.23717521500E+02  0.40162063417E+02  0.00000000000E+00 0. -1.
        -14    1    6    6    0    0  0.53894313068E+02  0.38627158126E+02 -0.29538974939E+02  0.72589292368E+02  0.00000000000E+00 0.  1.
</event>
<event>
12    1  0.2609167E-002  0.4124552E+03  0.7818608E-02  0.1039550E+00
          1   -1    0    0  502    0  0.00000000000E+00  0.00000000000E+00  0.57466322805E+03  0.57466322805E+03  0.00000000000E+00 0.  1.
         -1   -1    0    0    0  501 -0.00000000000E+00 -0.00000000000E+00 -0.36684774622E+03  0.36684774622E+03  0.00000000000E+00 0. -1.
          6    2    1    2  502    0  0.35005838573E+03  0.13493690486E+03  0.31080066123E+03  0.51669309658E+03  0.17212165268E+03 0.  0.
         24    2    3    3    0    0  0.16528038274E+03  0.13390565806E+03  0.17213553016E+03  0.28562150068E+03  0.81857624730E+02 0.  0.
         -6    2    1    2    0  501 -0.35005838573E+03 -0.13493690486E+03 -0.10298517940E+03  0.42481787769E+03  0.17063247146E+03 0.  0.
        -24    2    5    5    0    0 -0.12587029480E+03 -0.22701608704E+02 -0.85856876994E+02  0.17347641561E+03  0.79774490252E+02 0.  0.
          5    1    3    3  502    0  0.18477800299E+03  0.10312468015E+01  0.13866513107E+03  0.23107159590E+03  0.47000000000E+01 0. -1.
        -11    1    4    4    0    0  0.66041538345E+02  0.65087949615E+02  0.12578192621E+03  0.15626585978E+03  0.00000000000E+00 0.  1.
         12    1    4    4    0    0  0.99238844397E+02  0.68817708447E+02  0.46353603950E+02  0.12935564090E+03  0.00000000000E+00 0. -1.
         -5    1    5    5    0  501 -0.22418809093E+03 -0.11223529616E+03 -0.17128302407E+02  0.25134146208E+03  0.47000000000E+01 0.  1.
         11    1    6    6    0    0 -0.10823624873E+03 -0.48411241797E+02 -0.59546398639E+02  0.13268197866E+03  0.00000000000E+00 0. -1.
        -12    1    6    6    0    0 -0.17634046074E+02  0.25709633093E+02 -0.26310478354E+02  0.40794436948E+02  0.00000000000E+00 0.  1.
</event>
<event>
12    1  0.2609167E-002  0.1963781E+03  0.7818608E-02  0.1152831E+00
         -1   -1    0    0    0  501 -0.00000000000E+00  0.00000000000E+00  0.14762618101E+03  0.14762618101E+03  0.00000000000E+00 0. -1.
          1   -1    0    0  502    0  0.00000000000E+00 -0.00000000000E+00 -0.50556220868E+03  0.50556220868E+03  0.00000000000E+00 0.  1.
          6    2    1    2  502    0  0.26994970903E+02  0.69354534114E+02  0.52562822216E+02  0.19331735556E+03  0.17049917837E+03 0.  0.
         24    2    3    3    0    0  0.19566541625E+02  0.34255657615E+02 -0.37064034356E+02  0.96662422358E+02  0.80084840160E+02 0.  0.
         -6    2    1    2    0  501 -0.26994970903E+02 -0.69354534114E+02 -0.41049884988E+03  0.45987103413E+03  0.19347682657E+03 0.  0.
        -24    2    5    5    0    0 -0.95054622411E+02 -0.37005290900E+02 -0.29135183764E+03  0.31881540600E+03  0.79703180681E+02 0.  0.
          5    1    3    3  502    0  0.74284292776E+01  0.35098876498E+02  0.89626856572E+02  0.96654933201E+02  0.47000000000E+01 0. -1.
        -11    1    4    4    0    0 -0.12713478567E+01 -0.23477153877E+02  0.24901471300E+01  0.23643052093E+02  0.00000000000E+00 0.  1.
         12    1    4    4    0    0  0.20837889482E+02  0.57732811492E+02 -0.39554181486E+02  0.73019370265E+02  0.00000000000E+00 0. -1.
         -5    1    5    5    0  501  0.68059651508E+02 -0.32349243213E+02 -0.11914701225E+03  0.14105562813E+03  0.47000000000E+01 0.  1.
         11    1    6    6    0    0 -0.20471057789E+01  0.16395965308E+02 -0.81369255185E+02  0.83029958507E+02  0.00000000000E+00 0. -1.
        -12    1    6    6    0    0 -0.93007516632E+02 -0.53401256209E+02 -0.20998258245E+03  0.23578544749E+03  0.00000000000E+00 0.  1.
</event>
<event>
12    1  0.2609167E-002  0.2156401E+03  0.7818608E-02  0.1137176E+00
         -1   -1    0    0    0  501 -0.00000000000E+00  0.00000000000E+00  0.13515729330E+03  0.13515729330E+03  0.00000000000E+00 0.  1.
          1   -1    0    0  502    0  0.00000000000E+00 -0.00000000000E+00 -0.34444552569E+03  0.34444552569E+03  0.00000000000E+00 0. -1.
          6    2    1    2  502    0 -0.11809845622E+03  0.41117970650E+02 -0.11349031946E+03  0.24681785901E+03  0.18000297231E+03 0.  0.
         24    2    3    3    0    0 -0.62144770076E+02  0.91235793589E+02 -0.41711123594E+02  0.14281327195E+03  0.80435504191E+02 0.  0.
         -6    2    1    2    0  501  0.11809845622E+03 -0.41117970650E+02 -0.95797912925E+02  0.23278495999E+03  0.17138746922E+03 0.  0.
        -24    2    5    5    0    0  0.20204491886E+02  0.99989032299E+00  0.94980324462E+01  0.82896773072E+02  0.79827571004E+02 0.  0.
          5    1    3    3  502    0 -0.55953686141E+02 -0.50117822939E+02 -0.71779195866E+02  0.10400458705E+03  0.47000000000E+01 0. -1.
        -11    1    4    4    0    0 -0.31139228972E+02  0.55339918954E+02  0.18522403115E+02  0.66145579050E+02  0.00000000000E+00 0.  1.
         12    1    4    4    0    0 -0.31005541105E+02  0.35895874635E+02 -0.60233526709E+02  0.76667692902E+02  0.00000000000E+00 0. -1.
         -5    1    5    5    0  501  0.97893964332E+02 -0.42117860973E+02 -0.10529594537E+03  0.14988818692E+03  0.47000000000E+01 0.  1.
         11    1    6    6    0    0 -0.99265904253E+00  0.19942720538E+02 -0.28896077573E+02  0.35123792129E+02  0.00000000000E+00 0. -1.
        -12    1    6    6    0    0  0.21197150929E+02 -0.18942830215E+02  0.38394110019E+02  0.47772980943E+02  0.00000000000E+00 0.  1.
</event>
<event>
12    1  0.2609167E-002  0.2545406E+03  0.7818608E-02  0.1110468E+00
         -2   -1    0    0    0  501 -0.00000000000E+00  0.00000000000E+00  0.21874892033E+02  0.21874892033E+02  0.00000000000E+00 0.  1.
          2   -1    0    0  502    0  0.00000000000E+00 -0.00000000000E+00 -0.29911040648E+04  0.29911040648E+04  0.00000000000E+00 0. -1.
          6    2    1    2  502    0  0.20424602023E+02  0.18739790145E+03 -0.13299092213E+04  0.13538568995E+04  0.16951350860E+03 0.  0.
         24    2    3    3    0    0 -0.33186373359E+02  0.13012021060E+03 -0.61414624417E+03  0.63379190245E+03  0.80523051366E+02 0.  0.
         -6    2    1    2    0  501 -0.20424602023E+02 -0.18739790145E+03 -0.16393199515E+04  0.16591220573E+04  0.17257160834E+03 0.  0.
        -24    2    5    5    0    0 -0.32619125705E+02 -0.72875857252E+02 -0.11861685298E+04  0.11915407211E+04  0.79991318664E+02 0.  0.
          5    1    3    3  502    0  0.53610975383E+02  0.57277690853E+02 -0.71576297710E+03  0.72006499702E+03  0.47000000000E+01 0. -1.
        -11    1    4    4    0    0 -0.34291055657E+02  0.10813368006E+03 -0.33314158055E+03  0.35192624505E+03  0.00000000000E+00 0.  1.
         12    1    4    4    0    0  0.11046822980E+01  0.21986530541E+02 -0.28100466362E+03  0.28186565740E+03  0.00000000000E+00 0. -1.
         -5    1    5    5    0  501  0.12194523682E+02 -0.11452204420E+03 -0.45315142168E+03  0.46758133622E+03  0.47000000000E+01 0.  1.
         11    1    6    6    0    0 -0.50758780113E+01 -0.78522462814E+02 -0.66957465730E+03  0.67418229241E+03  0.00000000000E+00 0. -1.
        -12    1    6    6    0    0 -0.27543247694E+02  0.56466055620E+01 -0.51659387248E+03  0.51735842869E+03  0.00000000000E+00 0.  1.
</event>
<event>
12    1  0.2609167E-002  0.1790179E+03  0.7818608E-02  0.1168757E+00
         -1   -1    0    0    0  501 -0.00000000000E+00  0.00000000000E+00  0.46172161078E+02  0.46172161078E+02  0.00000000000E+00 0. -1.
          1   -1    0    0  502    0  0.00000000000E+00 -0.00000000000E+00 -0.76792875283E+03  0.76792875283E+03  0.00000000000E+00 0.  1.
          6    2    1    2  502    0 -0.48487166126E+02 -0.20037158656E+02 -0.23523925727E+03  0.29580362021E+03  0.17149280033E+03 0.  0.
         24    2    3    3    0    0 -0.75903084767E+02 -0.62273994737E+02 -0.14452465096E+03  0.19194403850E+03  0.79472073585E+02 0.  0.
         -6    2    1    2    0  501  0.48487166126E+02  0.20037158656E+02 -0.48651733448E+03  0.51829729369E+03  0.17082293434E+03 0.  0.
        -24    2    5    5    0    0  0.84952544568E+01 -0.48473884525E+02 -0.31175849587E+03  0.32631849875E+03  0.82876510840E+02 0.  0.
          5    1    3    3  502    0  0.27415918641E+02  0.42236836080E+02 -0.90714606310E+02  0.10385958172E+03  0.47000000000E+01 0. -1.
        -13    1    4    4    0    0 -0.27798448575E+02 -0.69249457191E+02 -0.10741057667E+03  0.13078712875E+03  0.00000000000E+00 0.  1.
         14    1    4    4    0    0 -0.48104636192E+02  0.69754624546E+01 -0.37114074293E+02  0.61156909750E+02  0.00000000000E+00 0. -1.
         -5    1    5    5    0  501  0.39991911669E+02  0.68511043181E+02 -0.17475883860E+03  0.19197879494E+03  0.47000000000E+01 0.  1.
         13    1    6    6    0    0 -0.17903591316E+01  0.13471609407E+02 -0.72500298681E+01  0.15403005515E+02  0.00000000000E+00 0. -1.
        -14    1    6    6    0    0  0.10285613588E+02 -0.61945493931E+02 -0.30450846600E+03  0.31091549324E+03  0.00000000000E+00 0.  1.
</event>
<event>
12    1  0.2609167E-002  0.2717465E+03  0.7818608E-02  0.1100284E+00
          1   -1    0    0  502    0  0.00000000000E+00  0.00000000000E+00  0.12371252502E+04  0.12371252502E+04  0.00000000000E+00 0. -1.
         -1   -1    0    0    0  501 -0.00000000000E+00 -0.00000000000E+00 -0.60463888129E+02  0.60463888129E+02  0.00000000000E+00 0.  1.
          6    2    1    2  502    0  0.20296640486E+03 -0.54626151132E+02  0.66028119216E+03  0.71377476076E+03  0.17124187131E+03 0.  0.
         24    2    3    3    0    0  0.62149327169E+02 -0.53239872600E+02  0.17011522658E+03  0.20375894243E+03  0.76690895175E+02 0.  0.
         -6    2    1    2    0  501 -0.20296640486E+03  0.54626151132E+02  0.51638016993E+03  0.58381437759E+03  0.17323789911E+03 0.  0.
        -24    2    5    5    0    0 -0.98174054901E+02 -0.20663885222E+02  0.35189864852E+03  0.37470606338E+03  0.80664948371E+02 0.  0.
          5    1    3    3  502    0  0.14081707769E+03 -0.13862785317E+01  0.49016596557E+03  0.51001581833E+03  0.47000000000E+01 0. -1.
        -11    1    4    4    0    0 -0.95667745502E+01 -0.35513247201E+02  0.72974473986E+02  0.81718955913E+02  0.00000000000E+00 0.  1.
         12    1    4    4    0    0  0.71716101719E+02 -0.17726625399E+02  0.97140752598E+02  0.12203998652E+03  0.00000000000E+00 0. -1.
         -5    1    5    5    0  501 -0.10479234996E+03  0.75290036354E+02  0.16448152142E+03  0.20910831421E+03  0.47000000000E+01 0.  1.
         13    1    6    6    0    0  0.59634862581E+01 -0.20815596645E+02  0.35213033442E+02  0.41337754610E+02  0.00000000000E+00 0. -1.
        -14    1    6    6    0    0 -0.10413754116E+03  0.15171142245E+00  0.31668561508E+03  0.33336830877E+03  0.00000000000E+00 0.  1.
</event>
<event>
12    1  0.2609167E-002  0.2804238E+03  0.7818608E-02  0.1095458E+00
         -2   -1    0    0    0  501 -0.00000000000E+00  0.00000000000E+00  0.18466993783E+03  0.18466993783E+03  0.00000000000E+00 0. -1.
          2   -1    0    0  502    0  0.00000000000E+00 -0.00000000000E+00 -0.45025241988E+03  0.45025241988E+03  0.00000000000E+00 0.  1.
          6    2    1    2  502    0 -0.36366402698E+02  0.21993133440E+03 -0.61174398265E+02  0.29170193843E+03  0.17791966384E+03 0.  0.
         24    2    3    3    0    0  0.25524474279E+02  0.17035822727E+03 -0.86452082840E+02  0.20834112664E+03  0.79111554390E+02 0.  0.
         -6    2    1    2    0  501  0.36366402698E+02 -0.21993133440E+03 -0.20440808379E+03  0.34322041929E+03  0.16225068382E+03 0.  0.
        -24    2    5    5    0    0  0.75434772299E+02 -0.14410534433E+03 -0.16930836517E+03  0.25086242818E+03  0.88373526699E+02 0.  0.
          5    1    3    3  502    0 -0.61890876977E+02  0.49573107133E+02  0.25277684575E+02  0.83360811784E+02  0.47000000000E+01 0. -1.
        -13    1    4    4    0    0  0.28768858091E+02  0.66791803222E+02 -0.74376904701E+02  0.10402267121E+03  0.00000000000E+00 0.  1.
         14    1    4    4    0    0 -0.32443838117E+01  0.10356642404E+03 -0.12075178139E+02  0.10431845543E+03  0.00000000000E+00 0. -1.
         -5    1    5    5    0  501 -0.39068369601E+02 -0.75825990073E+02 -0.35099718619E+02  0.92357991105E+02  0.47000000000E+01 0.  1.
         11    1    6    6    0    0 -0.12942181837E-01 -0.46792061107E+02 -0.72805677835E+01  0.47355082276E+02  0.00000000000E+00 0. -1.
        -12    1    6    6    0    0  0.75447714481E+02 -0.97313283219E+02 -0.16202779739E+03  0.20350734591E+03  0.00000000000E+00 0.  1.
</event>
<event>
12    1  0.2609167E-002  0.2065137E+03  0.7818608E-02  0.1144357E+00
          1   -1    0    0  502    0  0.00000000000E+00  0.00000000000E+00  0.51863607814E+03  0.51863607814E+03  0.00000000000E+00 0.  1.
         -1   -1    0    0    0  501 -0.00000000000E+00 -0.00000000000E+00 -0.82503035798E+02  0.82503035798E+02  0.00000000000E+00 0. -1.
          6    2    1    2  502    0  0.64727157513E+02  0.94772649522E+02  0.20070379062E+03  0.28790688725E+03  0.17157186290E+03 0.  0.
         24    2    3    3    0    0  0.87558880087E+02  0.10732519882E+03  0.10419997675E+03  0.18783726078E+03  0.72387468514E+02 0.  0.
         -6    2    1    2    0  501 -0.64727157513E+02 -0.94772649522E+02  0.23542925172E+03  0.31323222669E+03  0.17180231447E+03 0.  0.
        -24    2    5    5    0    0 -0.79988196048E+02 -0.11698092633E+02  0.82081610895E+02  0.13809836290E+03  0.76149918651E+02 0.  0.
          5    1    3    3  502    0 -0.22831722574E+02 -0.12552549302E+02  0.96503813870E+02  0.10006962647E+03  0.47000000000E+01 0. -1.
        -11    1    4    4    0    0  0.89138593811E+02  0.73670910909E+02  0.10179075026E+03  0.15405988725E+03  0.00000000000E+00 0.  1.
         12    1    4    4    0    0 -0.15797137241E+01  0.33654287915E+02  0.24092264943E+01  0.33777373533E+02  0.00000000000E+00 0. -1.
         -5    1    5    5    0  501  0.15261038535E+02 -0.83074556889E+02  0.15334764083E+03  0.17513386379E+03  0.47000000000E+01 0.  1.
         11    1    6    6    0    0 -0.15649232419E+02  0.26046286135E+02  0.49299301966E+01  0.30783302430E+02  0.00000000000E+00 0. -1.
        -12    1    6    6    0    0 -0.64338963629E+02 -0.37744378768E+02  0.77151680698E+02  0.10731506047E+03  0.00000000000E+00 0.  1.
</event>
<event>
12    1  0.2609167E-002  0.1811579E+03  0.7818608E-02  0.1166687E+00
          2   -1    0    0  502    0  0.00000000000E+00  0.00000000000E+00  0.13766713330E+04  0.13766713330E+04  0.00000000000E+00 0.  1.
         -2   -1    0    0    0  501 -0.00000000000E+00 -0.00000000000E+00 -0.32341140383E+02  0.32341140383E+02  0.00000000000E+00 0. -1.
          6    2    1    2  502    0 -0.28855024647E+02 -0.47552581573E+02  0.10346721174E+04  0.10504929905E+04  0.17290249265E+03 0.  0.
         24    2    3    3    0    0 -0.28700861246E+02 -0.80368203200E+02  0.97800415704E+03  0.98484059886E+03  0.78333175873E+02 0.  0.
         -6    2    1    2    0  501  0.28855024647E+02  0.47552581573E+02  0.30965807519E+03  0.35851948292E+03  0.17191345393E+03 0.  0.
        -24    2    5    5    0    0 -0.14847936800E+02  0.83033165566E+02  0.14879632535E+03  0.18802780207E+03  0.78096991627E+02 0.  0.
          5    1    3    3  502    0 -0.15416340100E+00  0.32815621627E+02  0.56667960388E+02  0.65652391607E+02  0.47000000000E+01 0. -1.
        -13    1    4    4    0    0  0.10653257809E+02 -0.28598576814E+02  0.63460222276E+03  0.63533562125E+03  0.00000000000E+00 0.  1.
         14    1    4    4    0    0 -0.39354119055E+02 -0.51769626386E+02  0.34340193429E+03  0.34950497761E+03  0.00000000000E+00 0. -1.
         -5    1    5    5    0  501  0.43702961447E+02 -0.35480583993E+02  0.16086174983E+03  0.17049168085E+03  0.47000000000E+01 0.  1.
         13    1    6    6    0    0 -0.39815099985E+02  0.19165491839E+02  0.41065495072E+02  0.60323570433E+02  0.00000000000E+00 0. -1.
        -14    1    6    6    0    0  0.24967163185E+02  0.63867673727E+02  0.10773083028E+03  0.12770423164E+03  0.00000000000E+00 0.  1.
</event>
<event>
12    1  0.2609167E-002  0.3011726E+03  0.7818608E-02  0.1084656E+00
         -2   -1    0    0    0  501 -0.00000000000E+00  0.00000000000E+00  0.44938683559E+02  0.44938683559E+02  0.00000000000E+00 0. -1.
          2   -1    0    0  502    0  0.00000000000E+00 -0.00000000000E+00 -0.24097797069E+04  0.24097797069E+04  0.00000000000E+00 0.  1.
          6    2    1    2  502    0 -0.24653608018E+03 -0.19937203446E+02 -0.68764906503E+03  0.75069220166E+03  0.17175568135E+03 0.  0.
         24    2    3    3    0    0 -0.15603320593E+03  0.11182361622E+02 -0.58310743863E+03  0.60888162649E+03  0.79064173476E+02 0.  0.
         -6    2    1    2    0  501  0.24653608018E+03  0.19937203446E+02 -0.16771919584E+04  0.17040261888E+04  0.17191525876E+03 0.  0.
        -24    2    5    5    0    0  0.26709593599E+03  0.14669389330E+02 -0.15641290921E+04  0.15888925306E+04  0.80772687388E+02 0.  0.
          5    1    3    3  502    0 -0.90502874256E+02 -0.31119565068E+02 -0.10454162640E+03  0.14181057517E+03  0.47000000000E+01 0. -1.
        -13    1    4    4    0    0 -0.16182823282E+03  0.20850338736E+02 -0.52813531152E+03  0.55276579203E+03  0.00000000000E+00 0.  1.
         14    1    4    4    0    0  0.57950268938E+01 -0.96679771135E+01 -0.54972127116E+02  0.56115834466E+02  0.00000000000E+00 0. -1.
         -5    1    5    5    0  501 -0.20559855806E+02  0.52678141162E+01 -0.11306286623E+03  0.11513365822E+03  0.47000000000E+01 0.  1.
         11    1    6    6    0    0  0.61606035902E+02 -0.16586562085E+01 -0.20010655999E+03  0.20938168533E+03  0.00000000000E+00 0. -1.
        -12    1    6    6    0    0  0.20548990009E+03  0.16328045538E+02 -0.13640225321E+04  0.13795108453E+04  0.00000000000E+00 0.  1.
</event>
<event>
12    1  0.2609167E-002  0.1830609E+03  0.7818608E-02  0.1164873E+00
          1   -1    0    0  502    0  0.00000000000E+00  0.00000000000E+00  0.43617930778E+03  0.43617930778E+03  0.00000000000E+00 0. -1.
         -1   -1    0    0    0  501 -0.00000000000E+00 -0.00000000000E+00 -0.80632320241E+02  0.80632320241E+02  0.00000000000E+00 0.  1.
          6    2    1    2  502    0  0.13322318364E+01  0.66150593227E+02  0.23333818357E+03  0.29621151510E+03  0.17004963375E+03 0.  0.
         24    2    3    3    0    0  0.25259821798E+02  0.28057544903E+02  0.38226358012E+02  0.95925908114E+02  0.79468490469E+02 0.  0.
         -6    2    1    2    0  501 -0.13322318364E+01 -0.66150593227E+02  0.12220880397E+03  0.22060011293E+03  0.17132350168E+03 0.  0.
        -24    2    5    5    0    0  0.61403364158E+02 -0.66552670906E+02  0.79060855342E+02  0.14431281292E+03  0.79849470826E+02 0.  0.
          5    1    3    3  502    0 -0.23927589961E+02  0.38093048324E+02  0.19511182556E+03  0.20028560698E+03  0.47000000000E+01 0. -1.
        -13    1    4    4    0    0  0.22460642609E+02 -0.23309808883E+02  0.92752000969E+00  0.32383451792E+02  0.00000000000E+00 0.  1.
         14    1    4    4    0    0  0.27991791886E+01  0.51367353786E+02  0.37298838003E+02  0.63542456322E+02  0.00000000000E+00 0. -1.
         -5    1    5    5    0  501 -0.62735595994E+02  0.40207767872E+00  0.43147948630E+02  0.76287300006E+02  0.47000000000E+01 0.  1.
         13    1    6    6    0    0 -0.14049070695E+02 -0.23196871443E+02  0.41398831793E+02  0.49490751722E+02  0.00000000000E+00 0. -1.
        -14    1    6    6    0    0  0.75452434853E+02 -0.43355799463E+02  0.37662023548E+02  0.94822061199E+02  0.00000000000E+00 0.  1.
</event>
<event>
12    1  0.2609167E-002  0.2452445E+03  0.7818608E-02  0.1116348E+00
          1   -1    0    0  502    0  0.00000000000E+00  0.00000000000E+00  0.10598960376E+04  0.10598960376E+04  0.00000000000E+00 0. -1.
         -1   -1    0    0    0  501 -0.00000000000E+00 -0.00000000000E+00 -0.57399662303E+02  0.57399662303E+02  0.00000000000E+00 0.  1.
          6    2    1    2  502    0 -0.17311801273E+03 -0.38240709215E+02  0.55836428257E+03  0.60936624172E+03  0.16770314943E+03 0.  0.
         24    2    3    3    0    0 -0.14764069456E+03  0.30284918816E+02  0.37570717270E+03  0.41256541545E+03  0.79620295174E+02 0.  0.
         -6    2    1    2    0  501  0.17311801273E+03  0.38240709215E+02  0.44413209278E+03  0.50792945823E+03  0.17119234952E+03 0.  0.
        -24    2    5    5    0    0  0.19337821517E+03  0.14381454987E+02  0.34926674021E+03  0.40792313377E+03  0.82535246390E+02 0.  0.
          5    1    3    3  502    0 -0.25477318162E+02 -0.68525628031E+02  0.18265710987E+03  0.19680082627E+03  0.47000000000E+01 0. -1.
        -13    1    4    4    0    0 -0.13926194407E+03  0.31787399377E+02  0.26091036780E+03  0.29745343812E+03  0.00000000000E+00 0.  1.
         14    1    4    4    0    0 -0.83787504927E+01 -0.15024805615E+01  0.11479680490E+03  0.11511197732E+03  0.00000000000E+00 0. -1.
         -5    1    5    5    0  501 -0.20260202440E+02  0.23859254228E+02  0.94865352565E+02  0.10000632446E+03  0.47000000000E+01 0.  1.
         13    1    6    6    0    0  0.70926688556E+02 -0.19660411346E+02  0.19261481105E+03  0.20619794460E+03  0.00000000000E+00 0. -1.
        -14    1    6    6    0    0  0.12245152661E+03  0.34041866333E+02  0.15665192916E+03  0.20172518916E+03  0.00000000000E+00 0.  1.
</event>
<event>
12    1  0.2609167E-002  0.1758053E+03  0.7818608E-02  0.1171926E+00
         -4   -1    0    0    0  501 -0.00000000000E+00  0.00000000000E+00  0.29328133239E+03  0.29328133239E+03  0.00000000000E+00 0. -1.
          4   -1    0    0  502    0  0.00000000000E+00 -0.00000000000E+00 -0.24415995474E+03  0.24415995474E+03  0.00000000000E+00 0.  1.
          6    2    1    2  502    0  0.30686626308E+02 -0.13266559442E+02 -0.17805540224E+03  0.24991619665E+03  0.17215315404E+03 0.  0.
         24    2    3    3    0    0 -0.47159475267E+01 -0.63029868181E+02 -0.83095581605E+02  0.13691537070E+03  0.88577303000E+02 0.  0.
         -6    2    1    2    0  501 -0.30686626308E+02  0.13266559442E+02  0.22717677989E+03  0.28752509048E+03  0.17304253147E+03 0.  0.
        -24    2    5    5    0    0 -0.28775562685E+02  0.75692566302E+02  0.15912270785E+03  0.19503668462E+03  0.78497608837E+02 0.  0.
          5    1    3    3  502    0  0.35402573835E+02  0.49763308739E+02 -0.94959820637E+02  0.11300082595E+03  0.47000000000E+01 0. -1.
        -13    1    4    4    0    0 -0.24124205657E+02 -0.33448073350E+02 -0.91662656269E+02  0.10051265325E+03  0.00000000000E+00 0.  1.
         14    1    4    4    0    0  0.19408258130E+02 -0.29581794831E+02  0.85670746643E+01  0.36402717445E+02  0.00000000000E+00 0. -1.
         -5    1    5    5    0  501 -0.19110636232E+01 -0.62426006859E+02  0.68054072039E+02  0.92488405856E+02  0.47000000000E+01 0.  1.
         13    1    6    6    0    0 -0.94651791148E+01 -0.14712534536E+02  0.44271862489E+02  0.47603005120E+02  0.00000000000E+00 0. -1.
        -14    1    6    6    0    0 -0.19310383570E+02  0.90405100838E+02  0.11485084536E+03  0.14743367950E+03  0.00000000000E+00 0.  1.
</event>
<event>
12    1  0.2609167E-002  0.2296222E+03  0.7818608E-02  0.1126906E+00
         -1   -1    0    0    0  501 -0.00000000000E+00  0.00000000000E+00  0.10720291704E+03  0.10720291704E+03  0.00000000000E+00 0.  1.
          1   -1    0    0  502    0  0.00000000000E+00 -0.00000000000E+00 -0.57311577095E+03  0.57311577095E+03  0.00000000000E+00 0. -1.
          6    2    1    2  502    0 -0.41803480379E+02 -0.14791186013E+03 -0.36142384838E+03  0.42842556346E+03  0.17116020539E+03 0.  0.
         24    2    3    3    0    0 -0.64629292972E+02 -0.26149275594E+02 -0.16477135746E+03  0.19595742177E+03  0.79931100239E+02 0.  0.
         -6    2    1    2    0  501  0.41803480379E+02  0.14791186013E+03 -0.10448900553E+03  0.25189312453E+03  0.17001983582E+03 0.  0.
        -24    2    5    5    0    0  0.17820251748E+02  0.17370807993E+03 -0.98770886869E+02  0.21590108246E+03  0.79784277310E+02 0.  0.
          5    1    3    3  502    0  0.22825812594E+02 -0.12176258453E+03 -0.19665249092E+03  0.23246814169E+03  0.47000000000E+01 0. -1.
        -13    1    4    4    0    0 -0.39782534197E+02 -0.50628281253E+02 -0.70690998047E+02  0.95619506873E+02  0.00000000000E+00 0.  1.
         14    1    4    4    0    0 -0.24846758775E+02  0.24479005658E+02 -0.94080359412E+02  0.10033791490E+03  0.00000000000E+00 0. -1.
         -5    1    5    5    0  501  0.23983228631E+02 -0.25796219806E+02 -0.57181186634E+01  0.35992042077E+02  0.47000000000E+01 0.  1.
         11    1    6    6    0    0  0.30045608642E+02  0.16022090392E+03 -0.61146544806E+02  0.17410449906E+03  0.00000000000E+00 0. -1.
        -12    1    6    6    0    0 -0.12225356894E+02  0.13487176018E+02 -0.37624342063E+02  0.41796583398E+02  0.00000000000E+00 0.  1.
</event>
<event>
12    1  0.2609167E-002  0.1722126E+03  0.7818608E-02  0.1175560E+00
          2   -1    0    0  502    0  0.00000000000E+00  0.00000000000E+00  0.10640125647E+04  0.10640125647E+04  0.00000000000E+00 0. -1.
         -2   -1    0    0    0  501 -0.00000000000E+00 -0.00000000000E+00 -0.44751251554E+02  0.44751251554E+02  0.00000000000E+00 0.  1.
          6    2    1    2  502    0  0.10351174623E+02  0.76317170472E+01  0.16843855205E+03  0.24060863980E+03  0.17133470695E+03 0.  0.
         24    2    3    3    0    0 -0.36408061748E+02 -0.30383861861E+02  0.15203486946E+03  0.17797652960E+03  0.79450094608E+02 0.  0.
         -6    2    1    2    0  501 -0.10351174623E+02 -0.76317170472E+01  0.85082276108E+03  0.86815517644E+03  0.17212974667E+03 0.  0.
        -24    2    5    5    0    0  0.65289755779E+01  0.12529914758E+02  0.83073357467E+03  0.83473218617E+03  0.80373654049E+02 0.  0.
          5    1    3    3  502    0  0.46759236370E+02  0.38015578908E+02  0.16403682590E+02  0.62632110201E+02  0.47000000000E+01 0. -1.
        -11    1    4    4    0    0 -0.39294992174E+02 -0.47145618908E+02  0.65401236107E+02  0.89689059960E+02  0.00000000000E+00 0.  1.
         12    1    4    4    0    0  0.28869304269E+01  0.16761757047E+02  0.86633633356E+02  0.88287469638E+02  0.00000000000E+00 0. -1.
         -5    1    5    5    0  501 -0.16880150201E+02 -0.20161631805E+02  0.20089186411E+02  0.33422990269E+02  0.47000000000E+01 0.  1.
         11    1    6    6    0    0  0.14911230019E+02 -0.23351100664E+02  0.63228877359E+03  0.63289549840E+03  0.00000000000E+00 0. -1.
        -12    1    6    6    0    0 -0.83822544414E+01  0.35881015422E+02  0.19844480108E+03  0.20183668777E+03  0.00000000000E+00 0.  1.
</event>
<event>
12    1  0.2609167E-002  0.3440400E+03  0.7818608E-02  0.1065088E+00
          2   -1    0    0  502    0  0.00000000000E+00  0.00000000000E+00  0.21890501690E+04  0.21890501690E+04  0.00000000000E+00 0.  1.
         -2   -1    0    0    0  501 -0.00000000000E+00 -0.00000000000E+00 -0.72902707774E+02  0.72902707774E+02  0.00000000000E+00 0. -1.
          6    2    1    2  502    0  0.23379652548E+03  0.18456278893E+03  0.48396816100E+03  0.59397249726E+03  0.17278283552E+03 0.  0.
         24    2    3    3    0    0  0.96957263782E+02  0.16299754008E+03  0.27436148392E+03  0.34268164470E+03  0.78661151061E+02 0.  0.
         -6    2    1    2    0  501 -0.23379652548E+03 -0.18456278893E+03  0.16321793002E+04  0.16679803795E+04  0.17153728451E+03 0.  0.
        -24    2    5    5    0    0 -0.15198351319E+03 -0.17706750754E+03  0.14028024910E+04  0.14242892660E+04  0.79329652796E+02 0.  0.
          5    1    3    3  502    0  0.13683926170E+03  0.21565248855E+02  0.20960667708E+03  0.25129085255E+03  0.47000000000E+01 0. -1.
        -13    1    4    4    0    0  0.14927029675E+02  0.50531195037E+02  0.27888611407E+02  0.59615371617E+02  0.00000000000E+00 0.  1.
         14    1    4    4    0    0  0.82030234107E+02  0.11246634504E+03  0.24647287251E+03  0.28306627308E+03  0.00000000000E+00 0. -1.
         -5    1    5    5    0  501 -0.81813012289E+02 -0.74952813938E+01  0.22937680918E+03  0.24369111352E+03  0.47000000000E+01 0.  1.
         13    1    6    6    0    0 -0.35866254883E+01 -0.44940688520E+02  0.18699263971E+03  0.19235066070E+03  0.00000000000E+00 0. -1.
        -14    1    6    6    0    0 -0.14839688771E+03 -0.13212681902E+03  0.12158098513E+04  0.12319386053E+04  0.00000000000E+00 0.  1.
</event>
<event>
12    1  0.2609167E-002  0.1803923E+03  0.7818608E-02  0.1167424E+00
          1   -1    0    0  502    0  0.00000000000E+00  0.00000000000E+00  0.50772150768E+02  0.50772150768E+02  0.00000000000E+00 0.  1.
         -1   -1    0    0    0  501 -0.00000000000E+00 -0.00000000000E+00 -0.73466027783E+03  0.73466027783E+03  0.00000000000E+00 0. -1.
          6    2    1    2  502    0 -0.38303103296E+02 -0.40177795320E+02 -0.20184316319E+03  0.27077607200E+03  0.17174875744E+03 0.  0.
         24    2    3    3    0    0 -0.15983943109E+02 -0.57201745478E+02 -0.32547099215E+02  0.99104271554E+02  0.72352034179E+02 0.  0.
         -6    2    1    2    0  501  0.38303103296E+02  0.40177795320E+02 -0.48204496387E+03  0.51465635659E+03  0.17152969199E+03 0.  0.
        -24    2    5    5    0    0  0.39595774610E+02  0.68692729230E+02 -0.46961861814E+03  0.48317181240E+03  0.81405389128E+02 0.  0.
          5    1    3    3  502    0 -0.22319160187E+02  0.17023950158E+02 -0.16929606398E+03  0.17167180045E+03  0.47000000000E+01 0. -1.
        -11    1    4    4    0    0  0.18395453550E+02 -0.43225267796E+02 -0.39464155964E+02  0.61353370676E+02  0.00000000000E+00 0.  1.
         12    1    4    4    0    0 -0.34379396659E+02 -0.13976477682E+02  0.69170567487E+01  0.37750900878E+02  0.00000000000E+00 0. -1.
         -5    1    5    5    0  501 -0.12926713145E+01 -0.28514933910E+02 -0.12426345729E+02  0.31484544195E+02  0.47000000000E+01 0.  1.
         13    1    6    6    0    0  0.70243741969E+01  0.58446470718E+02 -0.41208889378E+03  0.41627225244E+03  0.00000000000E+00 0. -1.
        -14    1    6    6    0    0  0.32571400413E+02  0.10246258512E+02 -0.57529724357E+02  0.66899559961E+02  0.00000000000E+00 0.  1.
</event>
<event>
12    1  0.2609167E-002  0.1815980E+03  0.7818608E-02  0.1166265E+00
          2   -1    0    0  502    0  0.00000000000E+00  0.00000000000E+00  0.46811889109E+03  0.46811889109E+03  0.00000000000E+00 0. -1.
         -2   -1    0    0    0  501 -0.00000000000E+00 -0.00000000000E+00 -0.72291867109E+02  0.72291867109E+02  0.00000000000E+00 0.  1.
          6    2    1    2  502    0 -0.47682580865E+02 -0.35527926495E+02  0.24172150214E+03  0.30270991804E+03  0.17224444202E+03 0.  0.
         24    2    3    3    0    0  0.36012763673E+02  0.71586574447E+01  0.94317901877E+02  0.12784721042E+03  0.78108111451E+02 0.  0.
         -6    2    1    2    0  501  0.47682580865E+02  0.35527926495E+02  0.15410552184E+03  0.23770084015E+03  0.17093073296E+03 0.  0.
        -24    2    5    5    0    0 -0.45764299004E+02  0.15311901472E+02  0.49615706124E+02  0.95992623692E+02  0.66513458181E+02 0.  0.
          5    1    3    3  502    0 -0.83695344538E+02 -0.42686583940E+02  0.14740360027E+03  0.17486270762E+03  0.47000000000E+01 0. -1.
        -13    1    4    4    0    0 -0.49480300027E+00 -0.23751839899E+02  0.19615915017E+01  0.23837839034E+02  0.00000000000E+00 0.  1.
         14    1    4    4    0    0  0.36507566674E+02  0.30910497343E+02  0.92356310376E+02  0.10400937139E+03  0.00000000000E+00 0. -1.
         -5    1    5    5    0  501  0.93446879868E+02  0.20216025023E+02  0.10448981572E+03  0.14170821646E+03  0.47000000000E+01 0.  1.
         13    1    6    6    0    0 -0.29666077195E+02  0.95562665571E+01  0.65575054849E+02  0.72605001102E+02  0.00000000000E+00 0. -1.
        -14    1    6    6    0    0 -0.16098221809E+02  0.57556349148E+01 -0.15959348725E+02  0.23387622590E+02  0.00000000000E+00 0.  1.
</event>
<event>
12    1  0.2609167E-002  0.2096322E+03  0.7818608E-02  0.1141858E+00
         -2   -1    0    0    0  501 -0.00000000000E+00  0.00000000000E+00  0.90000534452E+02  0.90000534452E+02  0.00000000000E+00 0. -1.
          2   -1    0    0  502    0  0.00000000000E+00 -0.00000000000E+00 -0.50376246008E+03  0.50376246008E+03  0.00000000000E+00 0.  1.
          6    2    1    2  502    0  0.23350656571E+02 -0.11816135776E+03 -0.25880453470E+03  0.33297652840E+03  0.17142409880E+03 0.  0.
         24    2    3    3    0    0  0.15190003823E+02 -0.88605889636E+01 -0.18173635904E+03  0.19890621843E+03  0.78907118067E+02 0.  0.
         -6    2    1    2    0  501 -0.23350656571E+02  0.11816135776E+03 -0.15495739092E+03  0.26078646613E+03  0.17172777378E+03 0.  0.
        -24    2    5    5    0    0 -0.35371189465E+02  0.74707944772E+02 -0.18763095495E+02  0.11724668622E+03  0.81008231806E+02 0.  0.
          5    1    3    3  502    0  0.81606527477E+01 -0.10930076880E+03 -0.77068175664E+02  0.13407030996E+03  0.47000000000E+01 0. -1.
        -11    1    4    4    0    0  0.13688606115E+02 -0.42573321684E+02 -0.79122742342E+02  0.90886049602E+02  0.00000000000E+00 0.  1.
         12    1    4    4    0    0  0.15013977084E+01  0.33712732720E+02 -0.10261361670E+03  0.10802016883E+03  0.00000000000E+00 0. -1.
         -5    1    5    5    0  501  0.12020532894E+02  0.43453412990E+02 -0.13619429543E+03  0.14353977992E+03  0.47000000000E+01 0.  1.
         11    1    6    6    0    0 -0.40635101008E+02  0.15580623849E+01 -0.16464563917E+02  0.43871640696E+02  0.00000000000E+00 0. -1.
        -12    1    6    6    0    0  0.52639115435E+01  0.73149882387E+02 -0.22985315773E+01  0.73375045522E+02  0.00000000000E+00 0.  1.
</event>
<event>
12    1  0.2609167E-002  0.3922926E+03  0.7818608E-02  0.1046482E+00
          2   -1    0    0  502    0  0.00000000000E+00  0.00000000000E+00  0.17479364231E+04  0.17479364231E+04  0.00000000000E+00 0. -1.
         -2   -1    0    0    0  501 -0.00000000000E+00 -0.00000000000E+00 -0.96545552994E+02  0.96545552994E+02  0.00000000000E+00 0.  1.
          6    2    1    2  502    0  0.30985593589E+03 -0.16862560736E+03  0.55190821551E+03  0.67709319651E+03  0.17148534031E+03 0.  0.
         24    2    3    3    0    0  0.11835332521E+03 -0.41396934574E+02  0.13649048325E+03  0.20227284379E+03  0.81015032783E+02 0.  0.
         -6    2    1    2    0  501 -0.30985593589E+03  0.16862560736E+03  0.10994826546E+04  0.11673887796E+04  0.17172407658E+03 0.  0.
        -24    2    5    5    0    0 -0.28465689618E+03  0.17666841020E+03  0.10810830998E+04  0.11348263488E+04  0.82758066810E+02 0.  0.
          5    1    3    3  502    0  0.19150261068E+03 -0.12722867279E+03  0.41541773226E+03  0.47482035271E+03  0.47000000000E+01 0. -1.
        -13    1    4    4    0    0  0.12082181062E+03 -0.30736077909E+02  0.88091799175E+02  0.15265248602E+03  0.00000000000E+00 0.  1.
         14    1    4    4    0    0 -0.24684854072E+01 -0.10660856665E+02  0.48398684077E+02  0.49620357772E+02  0.00000000000E+00 0. -1.
         -5    1    5    5    0  501 -0.25199039710E+02 -0.80428028335E+01  0.18399554788E+02  0.32562430746E+02  0.47000000000E+01 0.  1.
         13    1    6    6    0    0 -0.14556540708E+03  0.90474504530E+02  0.68837670075E+03  0.70939227924E+03  0.00000000000E+00 0. -1.
        -14    1    6    6    0    0 -0.13909148910E+03  0.86193905667E+02  0.39270639904E+03  0.42543406958E+03  0.00000000000E+00 0.  1.
</event>
<event>
12    1  0.2609167E-002  0.2642307E+03  0.7818608E-02  0.1104628E+00
          2   -1    0    0  502    0  0.00000000000E+00  0.00000000000E+00  0.13121292024E+04  0.13121292024E+04  0.00000000000E+00 0.  1.
         -2   -1    0    0    0  501 -0.00000000000E+00 -0.00000000000E+00 -0.71864335181E+02  0.71864335181E+02  0.00000000000E+00 0. -1.
          6    2    1    2  502    0  0.20860749268E+03  0.35823117593E+02  0.27139252296E+03  0.38030530661E+03  0.16179568276E+03 0.  0.
         24    2    3    3    0    0  0.15283066941E+03  0.79988849046E+02  0.22916260400E+03  0.29743720717E+03  0.78727146877E+02 0.  0.
         -6    2    1    2    0  501 -0.20860749268E+03 -0.35823117593E+02  0.96887234424E+03  0.10036882310E+04  0.15451881364E+03 0.  0.
        -24    2    5    5    0    0 -0.10448218617E+03 -0.31786511154E+02  0.73572620961E+03  0.74827174022E+03  0.81796284662E+02 0.  0.
          5    1    3    3  502    0  0.55776823265E+02 -0.44165731452E+02  0.42229918961E+02  0.82868099434E+02  0.47000000000E+01 0. -1.
        -13    1    4    4    0    0  0.14304879626E+03  0.74077575045E+02  0.15897835974E+03  0.22632844298E+03  0.00000000000E+00 0.  1.
         14    1    4    4    0    0  0.97818731486E+01  0.59112740009E+01  0.70184244262E+02  0.71108764194E+02  0.00000000000E+00 0. -1.
         -5    1    5    5    0  501 -0.10412530651E+03 -0.40366064392E+01  0.23314613463E+03  0.25541649073E+03  0.47000000000E+01 0.  1.
         13    1    6    6    0    0  0.35440245937E+01 -0.17921779801E+02  0.38788807531E+02  0.42875656161E+02  0.00000000000E+00 0. -1.
        -14    1    6    6    0    0 -0.10802621077E+03 -0.13864731353E+02  0.69693740208E+03  0.70539608406E+03  0.00000000000E+00 0.  1.
</event>
<event>
12    1  0.2609167E-002  0.1953860E+03  0.7818608E-02  0.1153691E+00
         -2   -1    0    0    0  501 -0.00000000000E+00  0.00000000000E+00  0.28565032962E+02  0.28565032962E+02  0.00000000000E+00 0. -1.
          2   -1    0    0  502    0  0.00000000000E+00 -0.00000000000E+00 -0.14323156966E+04  0.14323156966E+04  0.00000000000E+00 0.  1.
          6    2    1    2  502    0  0.16039797759E+02 -0.91884105257E+02 -0.89134712390E+03  0.91254240699E+03  0.17185454712E+03 0.  0.
         24    2    3    3    0    0  0.71492792915E+02 -0.87933232825E+02 -0.66883513650E+03  0.68314249722E+03  0.80621081767E+02 0.  0.
         -6    2    1    2    0  501 -0.16039797759E+02  0.91884105257E+02 -0.51240353973E+03  0.54833832256E+03  0.17151549361E+03 0.  0.
        -24    2    5    5    0    0  0.47586821767E+02  0.23210595222E+02 -0.32211904223E+03  0.33621883340E+03  0.80493411090E+02 0.  0.
          5    1    3    3  502    0 -0.55452995156E+02 -0.39508724318E+01 -0.22251198740E+03  0.22939990977E+03  0.47000000000E+01 0. -1.
        -11    1    4    4    0    0  0.13425152911E+02 -0.79195912471E+02 -0.39369047575E+03  0.40180146587E+03  0.00000000000E+00 0.  1.
         12    1    4    4    0    0  0.58067640004E+02 -0.87373203547E+01 -0.27514466075E+03  0.28134103135E+03  0.00000000000E+00 0. -1.
         -5    1    5    5    0  501 -0.63626619526E+02  0.68673510035E+02 -0.19028449750E+03  0.21211948916E+03  0.47000000000E+01 0.  1.
         13    1    6    6    0    0 -0.12412974534E+02 -0.41463920945E+01 -0.81895499284E+01  0.15438368832E+02  0.00000000000E+00 0. -1.
        -14    1    6    6    0    0  0.59999796301E+02  0.27356987316E+02 -0.31392949230E+03  0.32078046457E+03  0.00000000000E+00 0.  1.
</event>
<event>
12    1  0.2609167E-002  0.1738799E+03  0.7818608E-02  0.1173861E+00
          2   -1    0    0  502    0  0.00000000000E+00  0.00000000000E+00  0.83091589834E+03  0.83091589834E+03  0.00000000000E+00 0. -1.
         -2   -1    0    0    0  501 -0.00000000000E+00 -0.00000000000E+00 -0.37990398120E+02  0.37990398120E+02  0.00000000000E+00 0.  1.
          6    2    1    2  502    0  0.23983666856E+02 -0.17850504173E+02  0.49453755097E+03  0.52568708349E+03  0.17574317527E+03 0.  0.
         24    2    3    3    0    0  0.71874309185E+02 -0.14977981195E+02  0.21797353366E+03  0.24495320473E+03  0.84257669633E+02 0.  0.
         -6    2    1    2    0  501 -0.23983666856E+02  0.17850504173E+02  0.29838794925E+03  0.34321921297E+03  0.16694371243E+03 0.  0.
        -24    2    5    5    0    0 -0.22721220785E+02  0.71406232024E+02  0.14960171774E+03  0.18501288426E+03  0.78955617576E+02 0.  0.
          5    1    3    3  502    0 -0.47890642329E+02 -0.28725229777E+01  0.27656401731E+03  0.28073387876E+03  0.47000000000E+01 0. -1.
        -13    1    4    4    0    0  0.49315366435E+02  0.32589004649E+02  0.11472861726E+03  0.12906085467E+03  0.00000000000E+00 0.  1.
         14    1    4    4    0    0  0.22558942750E+02 -0.47566985844E+02  0.10324491640E+03  0.11589235006E+03  0.00000000000E+00 0. -1.
         -5    1    5    5    0  501 -0.12624460713E+01 -0.53555727852E+02  0.14878623151E+03  0.15820632871E+03  0.47000000000E+01 0.  1.
         13    1    6    6    0    0 -0.41048740908E+02  0.35449502897E+02  0.12848615860E+03  0.13946454509E+03  0.00000000000E+00 0. -1.
        -14    1    6    6    0    0  0.18327520123E+02  0.35956729128E+02  0.21115559137E+02  0.45548339170E+02  0.00000000000E+00 0.  1.
</event>
<event>
12    1  0.2609167E-002  0.2247700E+03  0.7818608E-02  0.1130376E+00
          2   -1    0    0  502    0  0.00000000000E+00  0.00000000000E+00  0.28172631510E+03  0.28172631510E+03  0.00000000000E+00 0.  1.
         -2   -1    0    0    0  501 -0.00000000000E+00 -0.00000000000E+00 -0.20864350323E+03  0.20864350323E+03  0.00000000000E+00 0. -1.
          6    2    1    2  502    0  0.11943744379E+03  0.79449043830E+02  0.12816015258E+03  0.25711273869E+03  0.17060035797E+03 0.  0.
         24    2    3    3    0    0  0.13782774163E+03  0.10082521325E+03  0.12951002945E+03  0.22849358704E+03  0.79210236711E+02 0.  0.
         -6    2    1    2    0  501 -0.11943744379E+03 -0.79449043830E+02 -0.55077340718E+02  0.23325707964E+03  0.17549329958E+03 0.  0.
        -24    2    5    5    0    0 -0.52403544930E+02 -0.11241752621E+03 -0.14810001262E+02  0.14826288541E+03  0.79866860035E+02 0.  0.
          5    1    3    3  502    0 -0.18390297833E+02 -0.21376169422E+02 -0.13498768731E+01  0.28619151649E+02  0.47000000000E+01 0. -1.
        -13    1    4    4    0    0  0.99753698604E+02  0.55687286453E+02  0.12489069630E+03  0.16926180987E+03  0.00000000000E+00 0.  1.
         14    1    4    4    0    0  0.38074043023E+02  0.45137926799E+02  0.46193331506E+01  0.59231777168E+02  0.00000000000E+00 0. -1.
         -5    1    5    5    0  501 -0.67033898864E+02  0.32968482377E+02 -0.40267339457E+02  0.84994194237E+02  0.47000000000E+01 0.  1.
         11    1    6    6    0    0 -0.67229121322E+02 -0.51778710757E+02 -0.12698334883E+02  0.85802315529E+02  0.00000000000E+00 0. -1.
        -12    1    6    6    0    0  0.14825576391E+02 -0.60638815450E+02 -0.21116663789E+01  0.62460569877E+02  0.00000000000E+00 0.  1.
</event>
<event>
12    1  0.2609167E-002  0.2061423E+03  0.7818608E-02  0.1144658E+00
          1   -1    0    0  502    0  0.00000000000E+00  0.00000000000E+00  0.50264360577E+03  0.50264360577E+03  0.00000000000E+00 0. -1.
         -1   -1    0    0    0  501 -0.00000000000E+00 -0.00000000000E+00 -0.15369476151E+03  0.15369476151E+03  0.00000000000E+00 0.  1.
          6    2    1    2  502    0 -0.10245089713E+03 -0.47630067005E+02 -0.45707521308E+02  0.21103215766E+03  0.17228053998E+03 0.  0.
         24    2    3    3    0    0 -0.67218890710E+02 -0.79873498968E+02 -0.79448782244E+02  0.15236789366E+03  0.77496521936E+02 0.  0.
         -6    2    1    2    0  501  0.10245089713E+03  0.47630067005E+02  0.39465636557E+03  0.44530620962E+03  0.17256640413E+03 0.  0.
        -24    2    5    5    0    0 -0.15469533814E+02  0.18021340208E+02  0.13162363977E+03  0.15549556527E+03  0.79309602779E+02 0.  0.
          5    1    3    3  502    0 -0.35232006416E+02  0.32243431963E+02  0.33741260936E+02  0.58664263998E+02  0.47000000000E+01 0. -1.
        -11    1    4    4    0    0 -0.36083315772E+02 -0.84380702739E+02 -0.35676326211E+02  0.98462728602E+02  0.00000000000E+00 0.  1.
         12    1    4    4    0    0 -0.31135574937E+02  0.45072037712E+01 -0.43772456033E+02  0.53905165056E+02  0.00000000000E+00 0. -1.
         -5    1    5    5    0  501  0.11792043094E+03  0.29608726796E+02  0.26303272579E+03  0.28981064434E+03  0.47000000000E+01 0.  1.
         13    1    6    6    0    0  0.28596923515E+02  0.17172010253E+02  0.85127342381E+02  0.91429351914E+02  0.00000000000E+00 0. -1.
        -14    1    6    6    0    0 -0.44066457329E+02  0.84932995512E+00  0.46496297393E+02  0.64066213359E+02  0.00000000000E+00 0.  1.
</event>
<event>
12    1  0.2609167E-002  0.1860766E+03  0.7818608E-02  0.1162048E+00
          2   -1    0    0  502    0  0.00000000000E+00  0.00000000000E+00  0.67976588233E+03  0.67976588233E+03  0.00000000000E+00 0.  1.
         -2   -1    0    0    0  501 -0.00000000000E+00 -0.00000000000E+00 -0.65124575994E+02  0.65124575994E+02  0.00000000000E+00 0. -1.
          6    2    1    2  502    0  0.64043926656E+02 -0.33794758808E+02  0.48178950289E+03  0.51664954383E+03  0.17193578971E+03 0.  0.
         24    2    3    3    0    0  0.52095875056E+02 -0.49534307769E+02  0.16189284919E+03  0.19610867531E+03  0.84152778161E+02 0.  0.
         -6    2    1    2    0  501 -0.64043926656E+02  0.33794758808E+02  0.13285180345E+03  0.22824091449E+03  0.17088183960E+03 0.  0.
        -24    2    5    5    0    0 -0.12748303411E+02 -0.37957886138E+02  0.76217601664E+02  0.12331615177E+03  0.88286069821E+02 0.  0.
          5    1    3    3  502    0  0.11948051599E+02  0.15739548961E+02  0.31989665370E+03  0.32054086852E+03  0.47000000000E+01 0. -1.
        -13    1    4    4    0    0  0.50249287887E+02 -0.88338002538E+01  0.14176357451E+03  0.15066498604E+03  0.00000000000E+00 0.  1.
         14    1    4    4    0    0  0.18465871698E+01 -0.40700507515E+02  0.20129274678E+02  0.45443689278E+02  0.00000000000E+00 0. -1.
         -5    1    5    5    0  501 -0.51295623245E+02  0.71752644945E+02  0.56634201784E+02  0.10492476272E+03  0.47000000000E+01 0.  1.
         11    1    6    6    0    0  0.99446718012E+01 -0.20333486718E+02 -0.15348182513E+02  0.27348014294E+02  0.00000000000E+00 0. -1.
        -12    1    6    6    0    0 -0.22692975212E+02 -0.17624399419E+02  0.91565784178E+02  0.95968137478E+02  0.00000000000E+00 0.  1.
</event>
<event>
12    1  0.2609167E-002  0.1735338E+03  0.7818608E-02  0.1174212E+00
         -2   -1    0    0    0  501 -0.00000000000E+00  0.00000000000E+00  0.56969131056E+02  0.56969131056E+02  0.00000000000E+00 0. -1.
          2   -1    0    0  502    0  0.00000000000E+00 -0.00000000000E+00 -0.15292492016E+04  0.15292492016E+04  0.00000000000E+00 0.  1.
          6    2    1    2  502    0  0.18489858731E+02  0.14496281755E+02 -0.94925798363E+02  0.19800432013E+03  0.17217080628E+03 0.  0.
         24    2    3    3    0    0  0.60693362835E+02  0.45498173785E+02 -0.94300926199E+02  0.14542358665E+03  0.80632417572E+02 0.  0.
         -6    2    1    2    0  501 -0.18489858731E+02 -0.14496281755E+02 -0.13773542722E+04  0.13882140125E+04  0.17170129996E+03 0.  0.
        -24    2    5    5    0    0 -0.12484085315E+01 -0.16563564846E+02 -0.30968555546E+03  0.32039374678E+03  0.80443144589E+02 0.  0.
          5    1    3    3  502    0 -0.42203504103E+02 -0.31001892029E+02 -0.62487216331E+00  0.52580733479E+02  0.47000000000E+01 0. -1.
        -13    1    4    4    0    0  0.78019604702E+01  0.12445506815E+02 -0.80128783044E+02  0.81463998792E+02  0.00000000000E+00 0.  1.
         14    1    4    4    0    0  0.52891402365E+02  0.33052666970E+02 -0.14172143155E+02  0.63959587862E+02  0.00000000000E+00 0. -1.
         -5    1    5    5    0  501 -0.17241450200E+02  0.20672830909E+01 -0.10676687167E+04  0.10678202657E+04  0.47000000000E+01 0.  1.
         11    1    6    6    0    0  0.39423669236E+02 -0.11759204609E+02 -0.14987375995E+03  0.15541765829E+03  0.00000000000E+00 0. -1.
        -12    1    6    6    0    0 -0.40672077767E+02 -0.48043602375E+01 -0.15981179552E+03  0.16497608849E+03  0.00000000000E+00 0.  1.
</event>
<event>
12    1  0.2609167E-002  0.1754085E+03  0.7818608E-02  0.1172322E+00
          1   -1    0    0  502    0  0.00000000000E+00  0.00000000000E+00  0.15647407492E+03  0.15647407492E+03  0.00000000000E+00 0.  1.
         -1   -1    0    0    0  501 -0.00000000000E+00 -0.00000000000E+00 -0.24792277460E+03  0.24792277460E+03  0.00000000000E+00 0. -1.
          6    2    1    2  502    0  0.31062895011E+02  0.79508615800E+01 -0.13753279530E+03  0.22231223503E+03  0.17169548747E+03 0.  0.
         24    2    3    3    0    0 -0.56711077463E+01 -0.91727068341E+00  0.27269650192E+01  0.76974968329E+02  0.76711841084E+02 0.  0.
         -6    2    1    2    0  501 -0.31062895011E+02 -0.79508615800E+01  0.46084095624E+02  0.18208461448E+03  0.17321357717E+03 0.  0.
        -24    2    5    5    0    0  0.13361002212E+02  0.48951197423E+02  0.55357462085E+02  0.10915031330E+03  0.79212411752E+02 0.  0.
          5    1    3    3  502    0  0.36734002758E+02  0.88681322635E+01 -0.14025976032E+03  0.14533726670E+03  0.47000000000E+01 0. -1.
        -13    1    4    4    0    0  0.16491508390E+02 -0.19402876388E+02 -0.25902621415E+02  0.36323370677E+02  0.00000000000E+00 0.  1.
         14    1    4    4    0    0 -0.22162616137E+02  0.18485605705E+02  0.28629586435E+02  0.40651597652E+02  0.00000000000E+00 0. -1.
         -5    1    5    5    0  501 -0.44423897223E+02 -0.56902059003E+02 -0.92733664611E+01  0.72934301181E+02  0.47000000000E+01 0.  1.
         11    1    6    6    0    0 -0.14076558490E+02 -0.47520700400E+01 -0.11738997568E+02  0.18935039807E+02  0.00000000000E+00 0. -1.
        -12    1    6    6    0    0  0.27437560701E+02  0.53703267463E+02  0.67096459653E+02  0.90215273493E+02  0.00000000000E+00 0.  1.
</event>
<event>
12    1  0.2609167E-002  0.1832582E+03  0.7818608E-02  0.1164687E+00
         -1   -1    0    0    0  501 -0.00000000000E+00  0.00000000000E+00  0.34747904663E+02  0.34747904663E+02  0.00000000000E+00 0.  1.
          1   -1    0    0  502    0  0.00000000000E+00 -0.00000000000E+00 -0.14062844876E+04  0.14062844876E+04  0.00000000000E+00 0. -1.
          6    2    1    2  502    0  0.18778945546E+02  0.63700097190E+02 -0.28140464888E+03  0.33551139065E+03  0.17020271933E+03 0.  0.
         24    2    3    3    0    0 -0.21288560551E+02  0.46207357670E+02 -0.62978333014E+02  0.11270307293E+03  0.78405290041E+02 0.  0.
         -6    2    1    2    0  501 -0.18778945546E+02 -0.63700097190E+02 -0.10901319341E+04  0.11055210016E+04  0.17140215920E+03 0.  0.
        -24    2    5    5    0    0 -0.81871940909E+01  0.31084810848E+02 -0.39171376615E+03  0.40060512631E+03  0.77533844368E+02 0.  0.
          5    1    3    3  502    0  0.40067506097E+02  0.17492739521E+02 -0.21842631587E+03  0.22280831772E+03  0.47000000000E+01 0. -1.
        -11    1    4    4    0    0  0.93391497856E+01  0.28500463693E+02  0.99892440829E+01  0.31611408491E+02  0.00000000000E+00 0.  1.
         12    1    4    4    0    0 -0.30627710337E+02  0.17706893977E+02 -0.72967577097E+02  0.81091664443E+02  0.00000000000E+00 0. -1.
         -5    1    5    5    0  501 -0.10591751455E+02 -0.94784908038E+02 -0.69841816794E+03  0.70491587534E+03  0.47000000000E+01 0.  1.
         11    1    6    6    0    0 -0.35338547870E+02  0.21673884366E+02 -0.32923642465E+03  0.33183609440E+03  0.00000000000E+00 0. -1.
        -12    1    6    6    0    0  0.27151353779E+02  0.94109264826E+01 -0.62477341499E+02  0.68769031911E+02  0.00000000000E+00 0.  1.
</event>
<event>
12    1  0.2609167E-002  0.1903281E+03  0.7818608E-02  0.1158166E+00
          1   -1    0    0  502    0  0.00000000000E+00  0.00000000000E+00  0.11167941148E+03  0.11167941148E+03  0.00000000000E+00 0.  1.
         -1   -1    0    0    0  501 -0.00000000000E+00 -0.00000000000E+00 -0.40939698832E+03  0.40939698832E+03  0.00000000000E+00 0. -1.
          6    2    1    2  502    0 -0.75470753059E+02 -0.27452852071E+02 -0.26738322245E+03  0.32800552411E+03  0.17217532502E+03 0.  0.
         24    2    3    3    0    0 -0.74107912024E+02  0.13784445362E+02 -0.78989147832E+02  0.13508898934E+03  0.79547193590E+02 0.  0.
         -6    2    1    2    0  501  0.75470753059E+02  0.27452852071E+02 -0.30334354398E+02  0.19307087569E+03  0.17293552651E+03 0.  0.
        -24    2    5    5    0    0  0.10993501862E+03  0.31936263375E+02 -0.56564431899E+02  0.14927597253E+03  0.77318482785E+02 0.  0.
          5    1    3    3  502    0 -0.13628410352E+01 -0.41237297433E+02 -0.18839407461E+03  0.19291653476E+03  0.47000000000E+01 0. -1.
        -13    1    4    4    0    0 -0.38157316397E+02 -0.27689826870E+02 -0.61482661161E+02  0.77477899624E+02  0.00000000000E+00 0.  1.
         14    1    4    4    0    0 -0.35950595627E+02  0.41474272232E+02 -0.17506486671E+02  0.57611089719E+02  0.00000000000E+00 0. -1.
         -5    1    5    5    0  501 -0.34464265561E+02 -0.44834113048E+01  0.26230077501E+02  0.43794903165E+02  0.47000000000E+01 0.  1.
         11    1    6    6    0    0  0.18603876335E+02  0.31673705301E+02 -0.43628185730E+02  0.57032853797E+02  0.00000000000E+00 0. -1.
        -12    1    6    6    0    0  0.91331142285E+02  0.26255807406E+00 -0.12936246169E+02  0.92243118728E+02  0.00000000000E+00 0.  1.
</event>
<event>
12    1  0.2609167E-002  0.1810532E+03  0.7818608E-02  0.1166788E+00
         -1   -1    0    0    0  501 -0.00000000000E+00  0.00000000000E+00  0.26405794233E+03  0.26405794233E+03  0.00000000000E+00 0.  1.
          1   -1    0    0  502    0  0.00000000000E+00 -0.00000000000E+00 -0.37795489612E+03  0.37795489612E+03  0.00000000000E+00 0. -1.
          6    2    1    2  502    0 -0.29021360349E+02  0.50953414010E+02 -0.32004591374E+03  0.36789820089E+03  0.17170093056E+03 0.  0.
         24    2    3    3    0    0 -0.23120210377E+02  0.98246440387E+02 -0.27882180065E+03  0.30470823796E+03  0.70132778234E+02 0.  0.
         -6    2    1    2    0  501  0.29021360349E+02 -0.50953414010E+02  0.20614895996E+03  0.27411463757E+03  0.17088870964E+03 0.  0.
        -24    2    5    5    0    0 -0.40803662028E+02  0.38003199948E+01  0.89404447811E+02  0.12740105178E+03  0.80984513580E+02 0.  0.
          5    1    3    3  502    0 -0.59011499717E+01 -0.47293026377E+02 -0.41224113091E+02  0.63189962930E+02  0.47000000000E+01 0. -1.
        -11    1    4    4    0    0 -0.35177516061E+02  0.69367729957E+02 -0.12119898876E+03  0.14400879998E+03  0.00000000000E+00 0.  1.
         12    1    4    4    0    0  0.12057305684E+02  0.28878710430E+02 -0.15762281190E+03  0.16069943798E+03  0.00000000000E+00 0. -1.
         -5    1    5    5    0  501  0.69825022378E+02 -0.54753734005E+02  0.11674451215E+03  0.14671358578E+03  0.47000000000E+01 0.  1.
         11    1    6    6    0    0 -0.36203992672E+02 -0.18097646192E+02  0.58421763816E+01  0.40894802946E+02  0.00000000000E+00 0. -1.
        -12    1    6    6    0    0 -0.45996693566E+01  0.21897966187E+02  0.83562271429E+02  0.86506248836E+02  0.00000000000E+00 0.  1.
</event>
<event>
12    1  0.2609167E-002  0.1869791E+03  0.7818608E-02  0.1161215E+00
         -4   -1    0    0    0  501 -0.00000000000E+00  0.00000000000E+00  0.15065439344E+03  0.15065439344E+03  0.00000000000E+00 0. -1.
          4   -1    0    0  502    0  0.00000000000E+00 -0.00000000000E+00 -0.23207732603E+03  0.23207732603E+03  0.00000000000E+00 0.  1.
          6    2    1    2  502    0 -0.57404093785E+02 -0.47122330031E+02 -0.40004059942E+02  0.18978241225E+03  0.17000380942E+03 0.  0.
         24    2    3    3    0    0  0.16965228432E+02 -0.61948956025E+02 -0.46627611651E+02  0.11351586413E+03  0.81155561189E+02 0.  0.
         -6    2    1    2    0  501  0.57404093785E+02  0.47122330031E+02 -0.41418872649E+02  0.19294930722E+03  0.17319979265E+03 0.  0.
        -24    2    5    5    0    0  0.12788664478E+02  0.60945551014E+02  0.31401258125E+02  0.10630936599E+03  0.80235479420E+02 0.  0.
          5    1    3    3  502    0 -0.74369322216E+02  0.14826625994E+02  0.66235517088E+01  0.76266548123E+02  0.47000000000E+01 0. -1.
        -13    1    4    4    0    0 -0.21765686812E+02 -0.60915071933E+02 -0.27194168675E+02  0.70170605819E+02  0.00000000000E+00 0.  1.
         14    1    4    4    0    0  0.38730915244E+02 -0.10338840924E+01 -0.19433442976E+02  0.43345258309E+02  0.00000000000E+00 0. -1.
         -5    1    5    5    0  501  0.44615429306E+02 -0.13823220983E+02 -0.72820130775E+02  0.86639941231E+02  0.47000000000E+01 0.  1.
         11    1    6    6    0    0 -0.30382946047E+01 -0.11267039565E+02  0.30196467196E+02  0.32372890600E+02  0.00000000000E+00 0. -1.
        -12    1    6    6    0    0  0.15826959083E+02  0.72212590579E+02  0.12047909295E+01  0.73936475390E+02  0.00000000000E+00 0.  1.
</event>
<event>
12    1  0.2609167E-002  0.2188892E+03  0.7818608E-02  0.1134714E+00
          1   -1    0    0  502    0  0.00000000000E+00  0.00000000000E+00  0.11217916957E+04  0.11217916957E+04  0.00000000000E+00 0. -1.
         -1   -1    0    0    0  501 -0.00000000000E+00 -0.00000000000E+00 -0.84942623405E+02  0.84942623405E+02  0.00000000000E+00 0.  1.
          6    2    1    2  502    0 -0.12244655201E+03 -0.53412518994E+02  0.94076782314E+02  0.23909083149E+03  0.17455065009E+03 0.  0.
         24    2    3    3    0    0 -0.84507374614E+01 -0.66404079357E+02  0.37976136527E+02  0.11128942761E+03  0.80388015487E+02 0.  0.
         -6    2    1    2    0  501  0.12244655201E+03  0.53412518994E+02  0.94277228998E+03  0.96764348761E+03  0.17224480568E+03 0.  0.
        -24    2    5    5    0    0  0.97194496338E+02  0.78672266449E+02  0.89812633822E+03  0.91027562060E+03  0.79590768487E+02 0.  0.
          5    1    3    3  502    0 -0.11399581455E+03  0.12991560363E+02  0.56100645787E+02  0.12780140388E+03  0.47000000000E+01 0. -1.
        -11    1    4    4    0    0 -0.32376881195E+02 -0.25787159821E+02 -0.11492192080E+02  0.42957077721E+02  0.00000000000E+00 0.  1.
         12    1    4    4    0    0  0.23926143733E+02 -0.40616919536E+02  0.49468328607E+02  0.68332349892E+02  0.00000000000E+00 0. -1.
         -5    1    5    5    0  501  0.25252055672E+02 -0.25259747455E+02  0.44645951759E+02  0.57367867013E+02  0.47000000000E+01 0.  1.
         13    1    6    6    0    0  0.49193061305E+02  0.74018281572E+02  0.39660523596E+03  0.40644111071E+03  0.00000000000E+00 0. -1.
        -14    1    6    6    0    0  0.48001435033E+02  0.46539848775E+01  0.50152110226E+03  0.50383450989E+03  0.00000000000E+00 0.  1.
</event>
<event>
12    1  0.2609167E-002  0.2826166E+03  0.7818608E-02  0.1094268E+00
         -1   -1    0    0    0  501 -0.00000000000E+00  0.00000000000E+00  0.68576930397E+02  0.68576930397E+02  0.00000000000E+00 0.  1.
          1   -1    0    0  502    0  0.00000000000E+00 -0.00000000000E+00 -0.16733360313E+04  0.16733360313E+04  0.00000000000E+00 0. -1.
          6    2    1    2  502    0  0.46013821461E+02  0.21969003615E+03 -0.32096443096E+03  0.42724349231E+03  0.17069813129E+03 0.  0.
         24    2    3    3    0    0  0.69910804638E+00  0.21864770749E+03 -0.29039357239E+03  0.37236929897E+03  0.80766076961E+02 0.  0.
         -6    2    1    2    0  501 -0.46013821461E+02 -0.21969003615E+03 -0.12837946699E+04  0.13146694693E+04  0.17276016735E+03 0.  0.
        -24    2    5    5    0    0 -0.24820223248E+02 -0.14110314657E+03 -0.11096170759E+04  0.11223546440E+04  0.88903038152E+02 0.  0.
          5    1    3    3  502    0  0.45314713415E+02  0.10423286670E+01 -0.30570858575E+02  0.54874193342E+02  0.47000000000E+01 0. -1.
        -13    1    4    4    0    0  0.24387571579E+01  0.17530547452E+03 -0.16922315863E+03  0.24366869793E+03  0.00000000000E+00 0.  1.
         14    1    4    4    0    0 -0.17396491115E+01  0.43342232967E+02 -0.12117041376E+03  0.12870060104E+03  0.00000000000E+00 0. -1.
         -5    1    5    5    0  501 -0.21193598213E+02 -0.78586889581E+02 -0.17417759398E+03  0.19231482538E+03  0.47000000000E+01 0.  1.
         13    1    6    6    0    0 -0.21437225464E+02 -0.99012559075E+02 -0.44449264619E+03  0.45589116465E+03  0.00000000000E+00 0. -1.
        -14    1    6    6    0    0 -0.33829977841E+01 -0.42090587497E+02 -0.66512442972E+03  0.66646347930E+03  0.00000000000E+00 0.  1.
</event>
<event>
12    1  0.2609167E-002  0.1767000E+03  0.7818608E-02  0.1171036E+00
         -1   -1    0    0    0  501 -0.00000000000E+00  0.00000000000E+00  0.96548275950E+02  0.96548275950E+02  0.00000000000E+00 0.  1.
          1   -1    0    0  502    0  0.00000000000E+00 -0.00000000000E+00 -0.33063612287E+03  0.33063612287E+03  0.00000000000E+00 0. -1.
          6    2    1    2  502    0  0.22634818119E+02 -0.33699107937E+02 -0.85267597878E+02  0.19597395644E+03  0.17171855895E+03 0.  0.
         24    2    3    3    0    0  0.79852232838E+02 -0.10513503700E+02 -0.64615927274E+02  0.13070538598E+03  0.80135928377E+02 0.  0.
         -6    2    1    2    0  501 -0.22634818119E+02  0.33699107937E+02 -0.14882024904E+03  0.23121044238E+03  0.17222902564E+03 0.  0.
        -24    2    5    5    0    0 -0.12535777963E+02  0.34529219919E+02 -0.17893033198E+03  0.19909523115E+03  0.79205016300E+02 0.  0.
          5    1    3    3  502    0 -0.57217414719E+02 -0.23185604237E+02 -0.20651670604E+02  0.65268570458E+02  0.47000000000E+01 0. -1.
        -11    1    4    4    0    0  0.16385415925E+02  0.18278510566E+02  0.11838756554E+02  0.27253292650E+02  0.00000000000E+00 0.  1.
         12    1    4    4    0    0  0.63466816914E+02 -0.28792014266E+02 -0.76454683828E+02  0.10345209333E+03  0.00000000000E+00 0. -1.
         -5    1    5    5    0  501 -0.10099040157E+02 -0.83011198137E+00  0.30110082938E+02  0.32115211232E+02  0.47000000000E+01 0.  1.
         11    1    6    6    0    0 -0.17197432818E+02 -0.21645529167E+02 -0.86728291433E+02  0.91027892228E+02  0.00000000000E+00 0. -1.
        -12    1    6    6    0    0  0.46616548550E+01  0.56174749086E+02 -0.92202040543E+02  0.10806733892E+03  0.00000000000E+00 0.  1.
</event>
<event>
12    1  0.2609167E-002  0.2211453E+03  0.7818608E-02  0.1133032E+00
         -1   -1    0    0    0  501 -0.00000000000E+00  0.00000000000E+00  0.57693356037E+02  0.57693356037E+02  0.00000000000E+00 0. -1.
          1   -1    0    0  502    0  0.00000000000E+00 -0.00000000000E+00 -0.95264826852E+03  0.95264826852E+03  0.00000000000E+00 0.  1.
          6    2    1    2  502    0 -0.12265901520E+03 -0.62682823599E+02 -0.28190270477E+03  0.35901514782E+03  0.17449461604E+03 0.  0.
         24    2    3    3    0    0 -0.10310563194E+03 -0.40213346312E+02 -0.29737819677E+03  0.32512129795E+03  0.70867354323E+02 0.  0.
         -6    2    1    2    0  501  0.12265901520E+03  0.62682823599E+02 -0.61305220772E+03  0.65132647674E+03  0.17151909378E+03 0.  0.
        -24    2    5    5    0    0  0.77234008122E+02 -0.13243276946E+01 -0.50447434409E+03  0.51726832088E+03  0.84292977634E+02 0.  0.
          5    1    3    3  502    0 -0.19553383255E+02 -0.22469477287E+02  0.15475492000E+02  0.33893849868E+02  0.47000000000E+01 0. -1.
        -13    1    4    4    0    0 -0.10265812723E+03 -0.24934321918E+02 -0.19655815681E+03  0.22314909927E+03  0.00000000000E+00 0.  1.
         14    1    4    4    0    0 -0.44750471030E+00 -0.15279024394E+02 -0.10082003996E+03  0.10197219868E+03  0.00000000000E+00 0. -1.
         -5    1    5    5    0  501  0.45425007074E+02  0.64007151293E+02 -0.10857786362E+03  0.13405815586E+03  0.47000000000E+01 0.  1.
         13    1    6    6    0    0  0.86588245837E+02 -0.13292266964E+02 -0.30823364746E+03  0.32044061869E+03  0.00000000000E+00 0. -1.
        -14    1    6    6    0    0 -0.93542377143E+01  0.11967939270E+02 -0.19624069664E+03  0.19682770219E+03  0.00000000000E+00 0.  1.
</event>
<event>
12    1  0.2609167E-002  0.1847525E+03  0.7818608E-02  0.1163281E+00
         -2   -1    0    0    0  501 -0.00000000000E+00  0.00000000000E+00  0.53566107624E+03  0.53566107624E+03  0.00000000000E+00 0. -1.
          2   -1    0    0  502    0  0.00000000000E+00 -0.00000000000E+00 -0.73534863318E+02  0.73534863318E+02  0.00000000000E+00 0.  1.
          6    2    1    2  502    0 -0.91668558585E+00  0.44278712433E+02  0.33303246495E+03  0.37716384550E+03  0.17140740635E+03 0.  0.
         24    2    3    3    0    0 -0.95330472504E+01 -0.41307846342E+02  0.17343333614E+03  0.19579881952E+03  0.80379341131E+02 0.  0.
         -6    2    1    2    0  501  0.91668558585E+00 -0.44278712433E+02  0.12909374797E+03  0.23203209406E+03  0.18764927983E+03 0.  0.
        -24    2    5    5    0    0  0.41081096331E+02  0.22406193455E+02  0.12006940773E+03  0.15352358955E+03  0.83445406670E+02 0.  0.
          5    1    3    3  502    0  0.86163616646E+01  0.85586558775E+02  0.15959912881E+03  0.18136502598E+03  0.47000000000E+01 0. -1.
        -11    1    4    4    0    0 -0.41725099196E+02 -0.14860121070E+02  0.57331879689E+02  0.72448267956E+02  0.00000000000E+00 0.  1.
         12    1    4    4    0    0  0.32192051946E+02 -0.26447725272E+02  0.11610145645E+03  0.12335055156E+03  0.00000000000E+00 0. -1.
         -5    1    5    5    0  501 -0.40164410745E+02 -0.66684905889E+02  0.90243402413E+01  0.78508504512E+02  0.47000000000E+01 0.  1.
         11    1    6    6    0    0  0.51002637917E+01  0.47339098994E+02  0.39645058597E+02  0.61957514923E+02  0.00000000000E+00 0. -1.
        -12    1    6    6    0    0  0.35980832539E+02 -0.24932905539E+02  0.80424349132E+02  0.91566074625E+02  0.00000000000E+00 0.  1.
</event>
<event>
12    1  0.2609167E-002  0.1802587E+03  0.7818608E-02  0.1167553E+00
          2   -1    0    0  502    0  0.00000000000E+00  0.00000000000E+00  0.13084542678E+04  0.13084542678E+04  0.00000000000E+00 0. -1.
         -2   -1    0    0    0  501 -0.00000000000E+00 -0.00000000000E+00 -0.27283531265E+02  0.27283531265E+02  0.00000000000E+00 0.  1.
          6    2    1    2  502    0 -0.82274727191E+01  0.51644578305E+02  0.84275531700E+03  0.86194989029E+03  0.17316534082E+03 0.  0.
         24    2    3    3    0    0 -0.24738792080E+02  0.65970680096E+02  0.82881789651E+03  0.83560216649E+03  0.79547071583E+02 0.  0.
         -6    2    1    2    0  501  0.82274727191E+01 -0.51644578305E+02  0.43841541954E+03  0.47378790878E+03  0.17184891225E+03 0.  0.
        -24    2    5    5    0    0  0.47136955582E+02 -0.86527822087E+02  0.34975149508E+03  0.37076281449E+03  0.73688531807E+02 0.  0.
          5    1    3    3  502    0  0.16511319361E+02 -0.14326101791E+02  0.13937420489E+02  0.26347723800E+02  0.47000000000E+01 0. -1.
        -13    1    4    4    0    0 -0.28926987534E+02  0.25429137328E+02  0.12971477693E+03  0.13531199129E+03  0.00000000000E+00 0.  1.
         14    1    4    4    0    0  0.41881954536E+01  0.40541542769E+02  0.69910311958E+03  0.70029017519E+03  0.00000000000E+00 0. -1.
         -5    1    5    5    0  501 -0.38909482863E+02  0.34883243782E+02  0.88663924465E+02  0.10302509430E+03  0.47000000000E+01 0.  1.
         13    1    6    6    0    0  0.47517974794E+02 -0.76646002206E+02  0.18595847107E+03  0.20667152814E+03  0.00000000000E+00 0. -1.
        -14    1    6    6    0    0 -0.38101921169E+00 -0.98818198819E+01  0.16379302401E+03  0.16409128634E+03  0.00000000000E+00 0.  1.
</event>
<event>
12    1  0.2609167E-002  0.2072536E+03  0.7818608E-02  0.1143759E+00
          1   -1    0    0  502    0  0.00000000000E+00  0.00000000000E+00  0.95884172338E+03  0.95884172338E+03  0.00000000000E+00 0.  1.
         -1   -1    0    0    0  501 -0.00000000000E+00 -0.00000000000E+00 -0.44919710081E+02  0.44919710081E+02  0.00000000000E+00 0. -1.
          6    2    1    2  502    0  0.45945918040E+02  0.10663697416E+03  0.43055163931E+03  0.47778385105E+03  0.17152324207E+03 0.  0.
         24    2    3    3    0    0  0.67011787253E+02  0.13333793450E+03  0.38664980039E+03  0.42205079453E+03  0.79744721556E+02 0.  0.
         -6    2    1    2    0  501 -0.45945918040E+02 -0.10663697416E+03  0.48337037398E+03  0.52597758241E+03  0.17182266179E+03 0.  0.
        -24    2    5    5    0    0 -0.78571420263E+02 -0.10503199182E+03  0.27470165779E+03  0.31471536978E+03  0.79872246733E+02 0.  0.
          5    1    3    3  502    0 -0.21065869213E+02 -0.26700960333E+02  0.43901838919E+02  0.55733056518E+02  0.47000000000E+01 0. -1.
        -11    1    4    4    0    0  0.17505828201E+02  0.11206457119E+03  0.23112335017E+03  0.25745470501E+03  0.00000000000E+00 0.  1.
         12    1    4    4    0    0  0.49505959053E+02  0.21273363304E+02  0.15552645022E+03  0.16459608952E+03  0.00000000000E+00 0. -1.
         -5    1    5    5    0  501  0.32625502223E+02 -0.16049823415E+01  0.20866871620E+03  0.21126221263E+03  0.47000000000E+01 0.  1.
         13    1    6    6    0    0 -0.21349298962E+02 -0.91501377449E+00  0.81222814203E+01  0.22860474007E+02  0.00000000000E+00 0. -1.
        -14    1    6    6    0    0 -0.57222121301E+02 -0.10411697805E+03  0.26657937637E+03  0.29185489577E+03  0.00000000000E+00 0.  1.
</event>
<event>
12    1  0.2609167E-002  0.2521686E+03  0.7818608E-02  0.1111942E+00
          2   -1    0    0  502    0  0.00000000000E+00  0.00000000000E+00  0.11254214302E+04  0.11254214302E+04  0.00000000000E+00 0. -1.
         -2   -1    0    0    0  501 -0.00000000000E+00 -0.00000000000E+00 -0.56578400277E+02  0.56578400277E+02  0.00000000000E+00 0.  1.
          6    2    1    2  502    0 -0.80670510262E+02 -0.16758281528E+03  0.55737738028E+03  0.61202876268E+03  0.17122479696E+03 0.  0.
         24    2    3    3    0    0 -0.11081878231E+02 -0.32454148114E+02  0.10809244940E+03  0.13770674810E+03  0.78122282990E+02 0.  0.
         -6    2    1    2    0  501  0.80670510262E+02  0.16758281528E+03  0.51146564962E+03  0.56997106778E+03  0.16934632018E+03 0.  0.
        -24    2    5    5    0    0 -0.13545775608E+02  0.12363412511E+03  0.29110981908E+03  0.32627663217E+03  0.79010309517E+02 0.  0.
          5    1    3    3  502    0 -0.69588632031E+02 -0.13512866717E+03  0.44928493088E+03  0.47432201458E+03  0.47000000000E+01 0. -1.
        -11    1    4    4    0    0  0.28984950917E+02  0.61998107700E+01  0.38229241488E+02  0.48373959296E+02  0.00000000000E+00 0.  1.
         12    1    4    4    0    0 -0.40066829148E+02 -0.38653958884E+02  0.69863207910E+02  0.89332788801E+02  0.00000000000E+00 0. -1.
         -5    1    5    5    0  501  0.94216285870E+02  0.43948690174E+02  0.22035583054E+03  0.24369443561E+03  0.47000000000E+01 0.  1.
         13    1    6    6    0    0 -0.13391634804E+02  0.39204624883E+02  0.28130573450E+02  0.50076617873E+02  0.00000000000E+00 0. -1.
        -14    1    6    6    0    0 -0.15414080340E+00  0.84429500223E+02  0.26297924563E+03  0.27620001430E+03  0.00000000000E+00 0.  1.
</event>
<event>
12    1  0.2609167E-002  0.2820281E+03  0.7818608E-02  0.1094586E+00
         -2   -1    0    0    0  501 -0.00000000000E+00  0.00000000000E+00  0.95114363649E+02  0.95114363649E+02  0.00000000000E+00 0. -1.
          2   -1    0    0  502    0  0.00000000000E+00 -0.00000000000E+00 -0.83902216073E+03  0.83902216073E+03  0.00000000000E+00 0.  1.
          6    2    1    2  502    0 -0.22131482929E+03  0.36900516581E+02 -0.39980369114E+03  0.48973342078E+03  0.17220316545E+03 0.  0.
         24    2    3    3    0    0 -0.20415001591E+03 -0.17292239484E+02 -0.35030908968E+03  0.41421328305E+03  0.82945373619E+02 0.  0.
         -6    2    1    2    0  501  0.22131482929E+03 -0.36900516581E+02 -0.34410410593E+03  0.44440310360E+03  0.16954226900E+03 0.  0.
        -24    2    5    5    0    0  0.11007608896E+03  0.25001982264E+02 -0.25329347637E+03  0.28795938478E+03  0.77596247569E+02 0.  0.
          5    1    3    3  502    0 -0.17164813385E+02  0.54192756064E+02 -0.49494601466E+02  0.75520137730E+02  0.47000000000E+01 0. -1.
        -11    1    4    4    0    0 -0.44122052408E+02 -0.28600095510E+02 -0.44521343055E+02  0.68897539573E+02  0.00000000000E+00 0.  1.
         12    1    4    4    0    0 -0.16002796350E+03  0.11307856026E+02 -0.30578774662E+03  0.34531574348E+03  0.00000000000E+00 0. -1.
         -5    1    5    5    0  501  0.11123874033E+03 -0.61902498844E+02 -0.90810629568E+02  0.15644371881E+03  0.47000000000E+01 0.  1.
         11    1    6    6    0    0  0.92532331770E+02  0.20621687562E+02 -0.11754073382E+03  0.15100765056E+03  0.00000000000E+00 0. -1.
        -12    1    6    6    0    0  0.17543757190E+02  0.43802947018E+01 -0.13575274254E+03  0.13695173422E+03  0.00000000000E+00 0.  1.
</event>
<event>
12    1  0.2609167E-002  0.1810715E+03  0.7818608E-02  0.1166770E+00
          2   -1    0    0  502    0  0.00000000000E+00  0.00000000000E+00  0.20715618065E+02  0.20715618065E+02  0.00000000000E+00 0. -1.
         -2   -1    0    0    0  501 -0.00000000000E+00 -0.00000000000E+00 -0.15965981765E+04  0.15965981765E+04  0.00000000000E+00 0.  1.
          6    2    1    2  502    0  0.78430677933E+02  0.84364793918E+01 -0.68596201834E+03  0.70737360462E+03  0.15365864924E+03 0.  0.
         24    2    3    3    0    0  0.66579129456E+02  0.54231150105E+02 -0.38987952687E+03  0.40749939296E+03  0.81706252318E+02 0.  0.
         -6    2    1    2    0  501 -0.78430677933E+02 -0.84364793918E+01 -0.88992054006E+03  0.90994018991E+03  0.17265583153E+03 0.  0.
        -24    2    5    5    0    0  0.12843161692E+02 -0.37111667470E+02 -0.51263924505E+03  0.52068905532E+03  0.82315697781E+02 0.  0.
          5    1    3    3  502    0  0.11851548477E+02 -0.45794670713E+02 -0.29608249147E+03  0.29987421167E+03  0.47000000000E+01 0. -1.
        -11    1    4    4    0    0  0.14405655986E+02  0.37660866925E+02 -0.29671764721E+03  0.29944486302E+03  0.00000000000E+00 0.  1.
         12    1    4    4    0    0  0.52173473470E+02  0.16570283180E+02 -0.93161879654E+02  0.10805452993E+03  0.00000000000E+00 0. -1.
         -5    1    5    5    0  501 -0.91273839626E+02  0.28675188078E+02 -0.37728129501E+03  0.38925113459E+03  0.47000000000E+01 0.  1.
         11    1    6    6    0    0  0.76991765281E+01 -0.23355195106E+02 -0.34733594864E+02  0.42557785067E+02  0.00000000000E+00 0. -1.
        -12    1    6    6    0    0  0.51439851642E+01 -0.13756472364E+02 -0.47790565018E+03  0.47813127025E+03  0.00000000000E+00 0.  1.
</event>
<event>
12    1  0.2609167E-002  0.1854021E+03  0.7818608E-02  0.1162675E+00
          1   -1    0    0  502    0  0.00000000000E+00  0.00000000000E+00  0.66768542889E+03  0.66768542889E+03  0.00000000000E+00 0.  1.
         -1   -1    0    0    0  501 -0.00000000000E+00 -0.00000000000E+00 -0.13561519640E+03  0.13561519640E+03  0.00000000000E+00 0. -1.
          6    2    1    2  502    0  0.55227163673E+02  0.46383012012E+02  0.58278342720E+03  0.61178407238E+03  0.17158614395E+03 0.  0.
         24    2    3    3    0    0  0.26275821247E+02  0.80451169163E+02  0.53037191654E+03  0.54273426421E+03  0.78123634618E+02 0.  0.
         -6    2    1    2    0  501 -0.55227163673E+02 -0.46383012012E+02 -0.50713194710E+02  0.19151655291E+03  0.17001570078E+03 0.  0.
        -24    2    5    5    0    0 -0.10358493806E+03 -0.28676625509E+02 -0.39323444098E+02  0.13856556722E+03  0.78114626802E+02 0.  0.
          5    1    3    3  502    0  0.28951342425E+02 -0.34068157151E+02  0.52411510654E+02  0.69049808174E+02  0.47000000000E+01 0. -1.
        -11    1    4    4    0    0  0.42098337867E+02  0.72693228850E+02  0.50440712744E+03  0.51135420775E+03  0.00000000000E+00 0.  1.
         12    1    4    4    0    0 -0.15822516620E+02  0.77579403126E+01  0.25964789101E+02  0.31380056455E+02  0.00000000000E+00 0. -1.
         -5    1    5    5    0  501  0.48357774388E+02 -0.17706386503E+02 -0.11389750611E+02  0.52950985692E+02  0.47000000000E+01 0.  1.
         13    1    6    6    0    0  0.54508111464E+01 -0.19244164531E+02  0.47896292494E+01  0.20566714833E+02  0.00000000000E+00 0. -1.
        -14    1    6    6    0    0 -0.10903574921E+03 -0.94324609779E+01 -0.44113073348E+02  0.11799885239E+03  0.00000000000E+00 0.  1.
</event>
<event>
12    1  0.2609167E-002  0.1766454E+03  0.7818608E-02  0.1171090E+00
         -2   -1    0    0    0  501 -0.00000000000E+00  0.00000000000E+00  0.37985006474E+02  0.37985006474E+02  0.00000000000E+00 0.  1.
          2   -1    0    0  502    0  0.00000000000E+00 -0.00000000000E+00 -0.10130914592E+04  0.10130914592E+04  0.00000000000E+00 0. -1.
          6    2    1    2  502    0 -0.45805691876E+02  0.41756710158E+01 -0.24831119677E+03  0.30191436590E+03  0.16546370073E+03 0.  0.
         24    2    3    3    0    0 -0.72113118232E+02 -0.43941783002E+02 -0.17211406345E+03  0.20791722132E+03  0.80468242000E+02 0.  0.
         -6    2    1    2    0  501  0.45805691876E+02 -0.41756710158E+01 -0.72679525593E+03  0.74916209975E+03  0.17577516896E+03 0.  0.
        -24    2    5    5    0    0  0.96168346777E+02 -0.19126306279E+02 -0.55112096929E+03  0.56574055388E+03  0.81938299939E+02 0.  0.
          5    1    3    3  502    0  0.26307426356E+02  0.48117454018E+02 -0.76197133323E+02  0.93997144581E+02  0.47000000000E+01 0. -1.
        -11    1    4    4    0    0 -0.40376212591E+02 -0.66436170421E+02 -0.11538067945E+03  0.13912837408E+03  0.00000000000E+00 0.  1.
         12    1    4    4    0    0 -0.31736905641E+02  0.22494387419E+02 -0.56733384002E+02  0.68788847245E+02  0.00000000000E+00 0. -1.
         -5    1    5    5    0  501 -0.50362654901E+02  0.14950635263E+02 -0.17567428664E+03  0.18342154587E+03  0.47000000000E+01 0.  1.
         11    1    6    6    0    0  0.78640589871E+02 -0.41756304921E+02 -0.49273822363E+03  0.50071837234E+03  0.00000000000E+00 0. -1.
        -12    1    6    6    0    0  0.17527756906E+02  0.22629998643E+02 -0.58382745664E+02  0.65022181538E+02  0.00000000000E+00 0.  1.
</event>
<event>
12    1  0.2609167E-002  0.3111856E+03  0.7818608E-02  0.1079779E+00
         -4   -1    0    0    0  501 -0.00000000000E+00  0.00000000000E+00  0.32049009502E+03  0.32049009502E+03  0.00000000000E+00 0.  1.
          4   -1    0    0  502    0  0.00000000000E+00 -0.00000000000E+00 -0.52913370701E+03  0.52913370701E+03  0.00000000000E+00 0. -1.
          6    2    1    2  502    0  0.25108099878E+02 -0.25865585104E+03  0.17386957263E+03  0.35665831754E+03  0.17158455999E+03 0.  0.
         24    2    3    3    0    0  0.78549210554E+02 -0.13499095260E+03  0.11674314373E+03  0.21025313219E+03  0.78644022193E+02 0.  0.
         -6    2    1    2    0  501 -0.25108099878E+02  0.25865585104E+03 -0.38251318462E+03  0.49296548449E+03  0.17077870631E+03 0.  0.
        -24    2    5    5    0    0 -0.71936241140E+02  0.19965710747E+03 -0.32712443193E+03  0.39935068608E+03  0.86213648285E+02 0.  0.
          5    1    3    3  502    0 -0.53441110676E+02 -0.12366489845E+03  0.57126428895E+02  0.14640518535E+03  0.47000000000E+01 0. -1.
        -13    1    4    4    0    0  0.68792773624E+02 -0.45028854006E+02  0.39210141242E+02  0.91090496608E+02  0.00000000000E+00 0.  1.
         14    1    4    4    0    0  0.97564369294E+01 -0.89962098589E+02  0.77533002491E+02  0.11916263558E+03  0.00000000000E+00 0. -1.
         -5    1    5    5    0  501  0.46828141262E+02  0.58998743570E+02 -0.55388752687E+02  0.93614798409E+02  0.47000000000E+01 0.  1.
         13    1    6    6    0    0 -0.20594374116E+02  0.68979361241E+02 -0.18964350140E+03  0.20284708069E+03  0.00000000000E+00 0. -1.
        -14    1    6    6    0    0 -0.51341867024E+02  0.13067774623E+03 -0.13748093054E+03  0.19650360539E+03  0.00000000000E+00 0.  1.
</event>
<event>
12    1  0.2609167E-002  0.1754718E+03  0.7818608E-02  0.1172259E+00
          2   -1    0    0  502    0  0.00000000000E+00  0.00000000000E+00  0.91216482848E+03  0.91216482848E+03  0.00000000000E+00 0. -1.
         -2   -1    0    0    0  501 -0.00000000000E+00 -0.00000000000E+00 -0.33778919724E+02  0.33778919724E+02  0.00000000000E+00 0.  1.
          6    2    1    2  502    0 -0.26499586127E+02 -0.29316677199E+02  0.44921314158E+03  0.48398810139E+03  0.17575647953E+03 0.  0.
         24    2    3    3    0    0 -0.31469026323E+02 -0.81902548973E+02  0.22661392264E+03  0.25515962520E+03  0.77808979249E+02 0.  0.
         -6    2    1    2    0  501  0.26499586127E+02  0.29316677199E+02  0.42917276718E+03  0.46195564682E+03  0.16628908535E+03 0.  0.
        -24    2    5    5    0    0  0.47527583362E+02  0.59497290444E+02  0.39812793359E+03  0.41359328773E+03  0.82187331136E+02 0.  0.
          5    1    3    3  502    0  0.49694401957E+01  0.52585871773E+02  0.22259921893E+03  0.22882847619E+03  0.47000000000E+01 0. -1.
        -11    1    4    4    0    0  0.50335622508E+01 -0.35020420240E+02  0.21023083532E+02  0.41155031575E+02  0.00000000000E+00 0.  1.
         12    1    4    4    0    0 -0.36502588574E+02 -0.46882128732E+02  0.20559083911E+03  0.21400459363E+03  0.00000000000E+00 0. -1.
         -5    1    5    5    0  501 -0.21027997235E+02 -0.30180613245E+02  0.31044833595E+02  0.48362359088E+02  0.47000000000E+01 0.  1.
         11    1    6    6    0    0  0.47602193790E+01 -0.18493163507E+02  0.36575051621E+02  0.41260043458E+02  0.00000000000E+00 0. -1.
        -12    1    6    6    0    0  0.42767363983E+02  0.77990453951E+02  0.36155288197E+03  0.37233324427E+03  0.00000000000E+00 0.  1.
</event>
<event>
12    1  0.2609167E-002  0.1924321E+03  0.7818608E-02  0.1156286E+00
         -2   -1    0    0    0  501 -0.00000000000E+00  0.00000000000E+00  0.19514465875E+02  0.19514465875E+02  0.00000000000E+00 0. -1.
          2   -1    0    0  502    0  0.00000000000E+00 -0.00000000000E+00 -0.19100622088E+04  0.19100622088E+04  0.00000000000E+00 0.  1.
          6    2    1    2  502    0 -0.33916893937E+02 -0.79218162550E+02 -0.87089811197E+03  0.89206214468E+03  0.17287416110E+03 0.  0.
         24    2    3    3    0    0 -0.35821031298E+02 -0.11899663334E+03 -0.58959287611E+03  0.60791310245E+03  0.80593024196E+02 0.  0.
         -6    2    1    2    0  501  0.33916893937E+02  0.79218162550E+02 -0.10196496309E+04  0.10375145300E+04  0.17124589647E+03 0.  0.
        -24    2    5    5    0    0  0.31543175269E+02  0.94094574388E+02 -0.44901396446E+03  0.46666069927E+03  0.79434923854E+02 0.  0.
          5    1    3    3  502    0  0.19041373608E+01  0.39778470792E+02 -0.28130523586E+03  0.28414904223E+03  0.47000000000E+01 0. -1.
        -13    1    4    4    0    0  0.19265775221E+01 -0.45839957419E+02 -0.37957238529E+03  0.38233520512E+03  0.00000000000E+00 0.  1.
         14    1    4    4    0    0 -0.37747608820E+02 -0.73156675923E+02 -0.21002049081E+03  0.22557789733E+03  0.00000000000E+00 0. -1.
         -5    1    5    5    0  501  0.23737186680E+01 -0.14876411838E+02 -0.57063566649E+03  0.57085383071E+03  0.47000000000E+01 0.  1.
         11    1    6    6    0    0 -0.25722053279E+02  0.17869764180E+02 -0.94758920746E+02  0.99800829444E+02  0.00000000000E+00 0. -1.
        -12    1    6    6    0    0  0.57265228549E+02  0.76224810207E+02 -0.35425504371E+03  0.36685986982E+03  0.00000000000E+00 0.  1.
</event>
<event>
12    1  0.2609167E-002  0.1946760E+03  0.7818608E-02  0.1154310E+00
         -2   -1    0    0    0  501 -0.00000000000E+00  0.00000000000E+00  0.17245331595E+03  0.17245331595E+03  0.00000000000E+00 0. -1.
          2   -1    0    0  502    0  0.00000000000E+00 -0.00000000000E+00 -0.27491146410E+03  0.27491146410E+03  0.00000000000E+00 0.  1.
          6    2    1    2  502    0  0.68750667338E+02  0.59365332981E+02  0.49014803219E+02  0.20048026257E+03  0.17186910056E+03 0.  0.
         24    2    3    3    0    0  0.27411288838E+02  0.21075964392E+02  0.94543605051E+02  0.12788562256E+03  0.78871187207E+02 0.  0.
         -6    2    1    2    0  501 -0.68750667338E+02 -0.59365332981E+02 -0.15147295137E+03  0.24688451748E+03  0.17250221146E+03 0.  0.
        -24    2    5    5    0    0 -0.61105838053E+02 -0.53269566889E+02 -0.20171890989E+02  0.11513604411E+03  0.79232778994E+02 0.  0.
          5    1    3    3  502    0  0.41339378500E+02  0.38289368589E+02 -0.45528801832E+02  0.72594640009E+02  0.47000000000E+01 0. -1.
        -13    1    4    4    0    0  0.52596892410E+02  0.12494519157E+01  0.47009392597E+02  0.70554072977E+02  0.00000000000E+00 0.  1.
         14    1    4    4    0    0 -0.25185603572E+02  0.19826512476E+02  0.47534212454E+02  0.57331549586E+02  0.00000000000E+00 0. -1.
         -5    1    5    5    0  501 -0.76448292851E+01 -0.60957660918E+01 -0.13130106038E+03  0.13174847337E+03  0.47000000000E+01 0.  1.
         13    1    6    6    0    0 -0.51368753497E+02 -0.73968819533E+02 -0.20047074183E+02  0.92260610676E+02  0.00000000000E+00 0. -1.
        -14    1    6    6    0    0 -0.97370845555E+01  0.20699252645E+02 -0.12481680661E+00  0.22875433437E+02  0.00000000000E+00 0.  1.
</event>
<event>
12    1  0.2609167E-002  0.2105606E+03  0.7818608E-02  0.1141123E+00
         -2   -1    0    0    0  501 -0.00000000000E+00  0.00000000000E+00  0.17680794280E+03  0.17680794280E+03  0.00000000000E+00 0.  1.
          2   -1    0    0  502    0  0.00000000000E+00 -0.00000000000E+00 -0.27842811543E+03  0.27842811543E+03  0.00000000000E+00 0. -1.
          6    2    1    2  502    0 -0.88807981924E+02 -0.80932415518E+02  0.20988232255E+02  0.21141530252E+03  0.17268181928E+03 0.  0.
         24    2    3    3    0    0 -0.83544680214E+02 -0.31199326999E+02  0.72232336706E+02  0.13965785914E+03  0.79584518327E+02 0.  0.
         -6    2    1    2    0  501  0.88807981924E+02  0.80932415518E+02 -0.12260840489E+03  0.24382075570E+03  0.17314394713E+03 0.  0.
        -24    2    5    5    0    0  0.77496076409E+02  0.11488170088E+02 -0.13180688740E+03  0.17270701223E+03  0.79479787354E+02 0.  0.
          5    1    3    3  502    0 -0.52633017099E+01 -0.49733088519E+02 -0.51244104452E+02  0.71757443374E+02  0.47000000000E+01 0. -1.
        -11    1    4    4    0    0 -0.55446668255E+02 -0.30366499620E+02  0.11598082273E+01  0.63228177855E+02  0.00000000000E+00 0.  1.
         12    1    4    4    0    0 -0.28098011959E+02 -0.83282737941E+00  0.71072528479E+02  0.76429681289E+02  0.00000000000E+00 0. -1.
         -5    1    5    5    0  501  0.11311905515E+02  0.69444245430E+02  0.91984825142E+01  0.71113743470E+02  0.47000000000E+01 0.  1.
         13    1    6    6    0    0  0.88468784452E+02 -0.36147938018E+01 -0.86844718203E+02  0.12402337536E+03  0.00000000000E+00 0. -1.
        -14    1    6    6    0    0 -0.10972708043E+02  0.15102963890E+02 -0.44962169197E+02  0.48683636870E+02  0.00000000000E+00 0.  1.
</event>
<event>
12    1  0.2609167E-002  0.1747811E+03  0.7818608E-02  0.1172952E+00
          2   -1    0    0  502    0  0.00000000000E+00  0.00000000000E+00  0.55979546606E+03  0.55979546606E+03  0.00000000000E+00 0. -1.
         -2   -1    0    0    0  501 -0.00000000000E+00 -0.00000000000E+00 -0.54798290205E+02  0.54798290205E+02  0.00000000000E+00 0.  1.
          6    2    1    2  502    0 -0.27985866676E+02 -0.62912332693E+01  0.27179616264E+03  0.32295679954E+03  0.17206147738E+03 0.  0.
         24    2    3    3    0    0 -0.31367576801E+02  0.62912617770E+02  0.14126403457E+03  0.17510100690E+03  0.75913851203E+02 0.  0.
         -6    2    1    2    0  501  0.27985866676E+02  0.62912332693E+01  0.23320101322E+03  0.29163695672E+03  0.17276172495E+03 0.  0.
        -24    2    5    5    0    0 -0.24454285315E+02 -0.35098840451E+02  0.59046582754E+02  0.10504927386E+03  0.75623477392E+02 0.  0.
          5    1    3    3  502    0  0.33817101251E+01 -0.69203851039E+02  0.13053212807E+03  0.14785579265E+03  0.47000000000E+01 0. -1.
        -13    1    4    4    0    0  0.13424924498E+01  0.26322082930E+02  0.86476791418E+00  0.26370478936E+02  0.00000000000E+00 0.  1.
         14    1    4    4    0    0 -0.32710069251E+02  0.36590534839E+02  0.14039926666E+03  0.14873052796E+03  0.00000000000E+00 0. -1.
         -5    1    5    5    0  501  0.52440151991E+02  0.41390073720E+02  0.17415443046E+03  0.18658768286E+03  0.47000000000E+01 0.  1.
         11    1    6    6    0    0  0.31402495869E+01 -0.80745961017E+01  0.65343996243E+02  0.65915841152E+02  0.00000000000E+00 0. -1.
        -12    1    6    6    0    0 -0.27594534902E+02 -0.27024244349E+02 -0.62974134891E+01  0.39133432711E+02  0.00000000000E+00 0.  1.
</event>
<event>
12    1  0.2609167E-002  0.1951270E+03  0.7818608E-02  0.1153917E+00
         -2   -1    0    0    0  501 -0.00000000000E+00  0.00000000000E+00  0.10852057873E+04  0.10852057873E+04  0.00000000000E+00 0.  1.
          2   -1    0    0  502    0  0.00000000000E+00 -0.00000000000E+00 -0.57384459738E+02  0.57384459738E+02  0.00000000000E+00 0. -1.
          6    2    1    2  502    0 -0.35539928918E+02  0.80512246151E+02  0.86640465039E+03  0.88762176291E+03  0.17166848126E+03 0.  0.
         24    2    3    3    0    0  0.20218595253E+02  0.56933802422E+02  0.74684453440E+03  0.75352602338E+03  0.79840214759E+02 0.  0.
         -6    2    1    2    0  501  0.35539928918E+02 -0.80512246151E+02  0.16141667716E+03  0.25496848411E+03  0.17665864229E+03 0.  0.
        -24    2    5    5    0    0 -0.27716467798E+02 -0.52070050574E+02  0.21479784468E+02  0.98716270842E+02  0.76184173121E+02 0.  0.
          5    1    3    3  502    0 -0.55758524171E+02  0.23578443729E+02  0.11956011598E+03  0.13409573953E+03  0.47000000000E+01 0. -1.
        -11    1    4    4    0    0  0.45444898966E+01  0.61530613681E+02  0.71573171464E+03  0.71838607737E+03  0.00000000000E+00 0.  1.
         12    1    4    4    0    0  0.15674105357E+02 -0.45968112593E+01  0.31112819759E+02  0.35139946014E+02  0.00000000000E+00 0. -1.
         -5    1    5    5    0  501  0.63256396716E+02 -0.28442195577E+02  0.13993689269E+03  0.15625221327E+03  0.47000000000E+01 0.  1.
         13    1    6    6    0    0 -0.25887439833E+02 -0.11095299253E+01  0.37218076130E+02  0.45349484987E+02  0.00000000000E+00 0. -1.
        -14    1    6    6    0    0 -0.18290279652E+01 -0.50960520649E+02 -0.15738291662E+02  0.53366785855E+02  0.00000000000E+00 0.  1.
</event>
<event>
12    1  0.2609167E-002  0.3067143E+03  0.7818608E-02  0.1081932E+00
          2   -1    0    0  502    0  0.00000000000E+00  0.00000000000E+00  0.16926678227E+03  0.16926678227E+03  0.00000000000E+00 0. -1.
         -2   -1    0    0    0  501 -0.00000000000E+00 -0.00000000000E+00 -0.68561298533E+03  0.68561298533E+03  0.00000000000E+00 0.  1.
          6    2    1    2  502    0  0.52479195165E+02  0.24851978149E+03 -0.72099507795E+02  0.31498753624E+03  0.17176338737E+03 0.  0.
         24    2    3    3    0    0  0.15518644840E+01  0.23060807655E+03 -0.28339580625E+02  0.24533523254E+03  0.78763895563E+02 0.  0.
         -6    2    1    2    0  501 -0.52479195165E+02 -0.24851978149E+03 -0.44424669526E+03  0.53989223135E+03  0.17208238581E+03 0.  0.
        -24    2    5    5    0    0 -0.11873476389E+02 -0.34561082078E+02 -0.95880442508E+02  0.12902937648E+03  0.78230894819E+02 0.  0.
          5    1    3    3  502    0  0.50927330681E+02  0.17911704947E+02 -0.43759927169E+02  0.69652303697E+02  0.47000000000E+01 0. -1.
        -13    1    4    4    0    0  0.34181185082E+01  0.77173586603E+02 -0.47520322409E+02  0.90695242682E+02  0.00000000000E+00 0.  1.
         14    1    4    4    0    0 -0.18662540242E+01  0.15343448994E+03  0.19180741784E+02  0.15463998986E+03  0.00000000000E+00 0. -1.
         -5    1    5    5    0  501 -0.40605718776E+02 -0.21395869942E+03 -0.34836625276E+03  0.41086285487E+03  0.47000000000E+01 0.  1.
         11    1    6    6    0    0 -0.27983712882E+02  0.61032010663E+01 -0.75548401949E+02  0.80795410062E+02  0.00000000000E+00 0. -1.
        -12    1    6    6    0    0  0.16110236493E+02 -0.40664283144E+02 -0.20332040558E+02  0.48233966422E+02  0.00000000000E+00 0.  1.
</event>
<event>
12    1  0.2609167E-002  0.2057424E+03  0.7818608E-02  0.1144983E+00
         -1   -1    0    0    0  501 -0.00000000000E+00  0.00000000000E+00  0.31382189777E+02  0.31382189777E+02  0.00000000000E+00 0. -1.
          1   -1    0    0  502    0  0.00000000000E+00 -0.00000000000E+00 -0.14393578705E+04  0.14393578705E+04  0.00000000000E+00 0.  1.
          6    2    1    2  502    0  0.38042459393E+02 -0.10548020478E+03 -0.51758510930E+03  0.55674611004E+03  0.17175151629E+03 0.  0.
         24    2    3    3    0    0  0.71315515224E+02 -0.10281134197E+03 -0.28302161265E+03  0.31977281399E+03  0.80606107674E+02 0.  0.
         -6    2    1    2    0  501 -0.38042459393E+02  0.10548020478E+03 -0.89039057139E+03  0.91399395021E+03  0.17325203919E+03 0.  0.
        -24    2    5    5    0    0 -0.12588848828E+02  0.12502286995E+03 -0.84528312176E+03  0.85843700587E+03  0.81371616590E+02 0.  0.
          5    1    3    3  502    0 -0.33273055831E+02 -0.26688628110E+01 -0.23456349666E+03  0.23697329604E+03  0.47000000000E+01 0. -1.
        -11    1    4    4    0    0  0.15879470841E+02 -0.11151884661E+02 -0.13865071965E+03  0.14000194350E+03  0.00000000000E+00 0.  1.
         12    1    4    4    0    0  0.55436044384E+02 -0.91659457313E+02 -0.14437089300E+03  0.17977087049E+03  0.00000000000E+00 0. -1.
         -5    1    5    5    0  501 -0.25453610565E+02 -0.19542665164E+02 -0.45107449624E+02  0.55556944337E+02  0.47000000000E+01 0.  1.
         11    1    6    6    0    0  0.46304194759E+01  0.74446419239E+02 -0.25347284883E+03  0.26421997505E+03  0.00000000000E+00 0. -1.
        -12    1    6    6    0    0 -0.17219268304E+02  0.50576450709E+02 -0.59181027293E+03  0.59421703082E+03  0.00000000000E+00 0.  1.
</event>
<event>
12    1  0.2609167E-002  0.1752441E+03  0.7818608E-02  0.1172487E+00
          2   -1    0    0  502    0  0.00000000000E+00  0.00000000000E+00  0.98565674797E+03  0.98565674797E+03  0.00000000000E+00 0.  1.
         -2   -1    0    0    0  501 -0.00000000000E+00 -0.00000000000E+00 -0.42468773280E+02  0.42468773280E+02  0.00000000000E+00 0. -1.
          6    2    1    2  502    0  0.28629748715E+02 -0.99262786843E+01  0.73758470735E+03  0.75819829463E+03  0.17296028429E+03 0.  0.
         24    2    3    3    0    0 -0.43918099846E+02 -0.36421982159E+02  0.36765354407E+03  0.38026130491E+03  0.78575894938E+02 0.  0.
         -6    2    1    2    0  501 -0.28629748715E+02  0.99262786843E+01  0.20560326734E+03  0.26992722662E+03  0.17224926882E+03 0.  0.
        -24    2    5    5    0    0  0.22093946177E+02 -0.27498198500E+02  0.12782517453E+03  0.16970244706E+03  0.10590255859E+03 0.  0.
          5    1    3    3  502    0  0.72547848561E+02  0.26495703475E+02  0.36993116328E+03  0.37793698972E+03  0.47000000000E+01 0. -1.
        -13    1    4    4    0    0 -0.38197137422E+02  0.16224543412E+02  0.20653135165E+03  0.21065957451E+03  0.00000000000E+00 0.  1.
         14    1    4    4    0    0 -0.57209624238E+01 -0.52646525571E+02  0.16112219242E+03  0.16960173040E+03  0.00000000000E+00 0. -1.
         -5    1    5    5    0  501 -0.50723694893E+02  0.37424477184E+02  0.77778092807E+02  0.10022477955E+03  0.47000000000E+01 0.  1.
         13    1    6    6    0    0 -0.14693725227E+01  0.32610954525E+01 -0.18238910175E+02  0.18586329480E+02  0.00000000000E+00 0. -1.
        -14    1    6    6    0    0  0.23563318700E+02 -0.30759293952E+02  0.14606408470E+03  0.15111611758E+03  0.00000000000E+00 0.  1.
</event>
<event>
12    1  0.2609167E-002  0.1935781E+03  0.7818608E-02  0.1155273E+00
         -2   -1    0    0    0  501 -0.00000000000E+00  0.00000000000E+00  0.20700480234E+02  0.20700480234E+02  0.00000000000E+00 0. -1.
          2   -1    0    0  502    0  0.00000000000E+00 -0.00000000000E+00 -0.18116657178E+04  0.18116657178E+04  0.00000000000E+00 0.  1.
          6    2    1    2  502    0 -0.67446190511E+02  0.52896463600E+02 -0.86712783885E+03  0.88834846831E+03  0.17293145396E+03 0.  0.
         24    2    3    3    0    0 -0.10799275833E+03  0.46912213553E+02 -0.77119187058E+03  0.78391841795E+03  0.76993461544E+02 0.  0.
         -6    2    1    2    0  501  0.67446190511E+02 -0.52896463600E+02 -0.92383739867E+03  0.94401772968E+03  0.17420364601E+03 0.  0.
        -24    2    5    5    0    0  0.69029347966E+02 -0.90722968463E+01 -0.86028570586E+03  0.86666159457E+03  0.78507747066E+02 0.  0.
          5    1    3    3  502    0  0.40546567823E+02  0.59842500470E+01 -0.95935968275E+02  0.10443005037E+03  0.47000000000E+01 0. -1.
        -11    1    4    4    0    0 -0.50793029140E+02  0.18691610864E+02 -0.57671888976E+03  0.57925295505E+03  0.00000000000E+00 0.  1.
         12    1    4    4    0    0 -0.57199729194E+02  0.28220602689E+02 -0.19447298081E+03  0.20466546289E+03  0.00000000000E+00 0. -1.
         -5    1    5    5    0  501 -0.15831574549E+01 -0.43824166754E+02 -0.63551692815E+02  0.77356135108E+02  0.47000000000E+01 0.  1.
         11    1    6    6    0    0  0.38978682609E+02 -0.33550195382E+02 -0.25490071915E+03  0.26003717029E+03  0.00000000000E+00 0. -1.
        -12    1    6    6    0    0  0.30050665357E+02  0.24477898535E+02 -0.60538498670E+03  0.60662442428E+03  0.00000000000E+00 0.  1.
</event>
<event>
12    1  0.2609167E-002  0.2093361E+03  0.7818608E-02  0.1142093E+00
         -2   -1    0    0    0  501 -0.00000000000E+00  0.00000000000E+00  0.19787932952E+03  0.19787932952E+03  0.00000000000E+00 0. -1.
          2   -1    0    0  502    0  0.00000000000E+00 -0.00000000000E+00 -0.22146715358E+03  0.22146715358E+03  0.00000000000E+00 0.  1.
          6    2    1    2  502    0  0.10352142261E+03 -0.62458641120E+02 -0.10314081231E+02  0.20946519872E+03  0.17073816917E+03 0.  0.
         24    2    3    3    0    0  0.12080206572E+03 -0.38123593721E+02  0.36520552860E+02  0.15373021770E+03  0.79073899441E+02 0.  0.
         -6    2    1    2    0  501 -0.10352142261E+03  0.62458641120E+02 -0.13273742830E+02  0.20988128439E+03  0.17104442259E+03 0.  0.
        -24    2    5    5    0    0 -0.83892964752E+02  0.12295254578E+02 -0.66264751391E+02  0.13417277301E+03  0.80138086571E+02 0.  0.
          5    1    3    3  502    0 -0.17280643114E+02 -0.24335047399E+02 -0.46834634091E+02  0.55734981015E+02  0.47000000000E+01 0. -1.
        -11    1    4    4    0    0  0.17953219291E+02  0.20238635154E+02  0.21437825055E+02  0.34518122471E+02  0.00000000000E+00 0.  1.
         12    1    4    4    0    0  0.10284884643E+03 -0.58362228875E+02  0.15082727805E+02  0.11921209523E+03  0.00000000000E+00 0. -1.
         -5    1    5    5    0  501 -0.19628457858E+02  0.50163386542E+02  0.52991008561E+02  0.75708511381E+02  0.47000000000E+01 0.  1.
         13    1    6    6    0    0 -0.21911985176E+01 -0.20417266973E+02  0.47620772072E+01  0.21079457320E+02  0.00000000000E+00 0. -1.
        -14    1    6    6    0    0 -0.81701766235E+02  0.32712521551E+02 -0.71026828599E+02  0.11309331569E+03  0.00000000000E+00 0.  1.
</event>
<event>
12    1  0.2609167E-002  0.2556228E+03  0.7818608E-02  0.1109802E+00
          1   -1    0    0  502    0  0.00000000000E+00  0.00000000000E+00  0.20932065566E+03  0.20932065566E+03  0.00000000000E+00 0.  1.
         -1   -1    0    0    0  501 -0.00000000000E+00 -0.00000000000E+00 -0.31274116911E+03  0.31274116911E+03  0.00000000000E+00 0. -1.
          6    2    1    2  502    0 -0.10082168264E+03  0.15654212705E+03 -0.41263598409E+02  0.26126816849E+03  0.17857189612E+03 0.  0.
         24    2    3    3    0    0 -0.34757261783E+02  0.75346930928E+02  0.46357737791E+02  0.12467843193E+03  0.80687324215E+02 0.  0.
         -6    2    1    2    0  501  0.10082168264E+03 -0.15654212705E+03 -0.62156915043E+02  0.26079365627E+03  0.17169566050E+03 0.  0.
        -24    2    5    5    0    0  0.51974321258E+02 -0.16643881691E+03 -0.24234521534E+02  0.19799073346E+03  0.90607994447E+02 0.  0.
          5    1    3    3  502    0 -0.66064420856E+02  0.81195196124E+02 -0.87621336200E+02  0.13658973656E+03  0.47000000000E+01 0. -1.
        -13    1    4    4    0    0 -0.30708310167E+00  0.28929379297E+02  0.58815922721E+02  0.65546289384E+02  0.00000000000E+00 0.  1.
         14    1    4    4    0    0 -0.34450178681E+02  0.46417551631E+02 -0.12458184929E+02  0.59132142548E+02  0.00000000000E+00 0. -1.
         -5    1    5    5    0  501  0.48847361381E+02  0.98966898613E+01 -0.37922393510E+02  0.62802922811E+02  0.47000000000E+01 0.  1.
         13    1    6    6    0    0 -0.10140995683E+02 -0.74069979860E+02 -0.41249938006E+02  0.85385942024E+02  0.00000000000E+00 0. -1.
        -14    1    6    6    0    0  0.62115316941E+02 -0.92368837054E+02  0.17015416472E+02  0.11260479144E+03  0.00000000000E+00 0.  1.
</event>
<event>
12    1  0.2609167E-002  0.2539362E+03  0.7818608E-02  0.1110842E+00
         -2   -1    0    0    0  501 -0.00000000000E+00  0.00000000000E+00  0.46201231980E+02  0.46201231980E+02  0.00000000000E+00 0. -1.
          2   -1    0    0  502    0  0.00000000000E+00 -0.00000000000E+00 -0.16587263049E+04  0.16587263049E+04  0.00000000000E+00 0.  1.
          6    2    1    2  502    0  0.18340935227E+03 -0.10352105111E+02 -0.46325631270E+03  0.52764801967E+03  0.17337780950E+03 0.  0.
         24    2    3    3    0    0  0.19979947952E+03 -0.11913336490E+01 -0.46100676210E+03  0.50816196099E+03  0.76026920257E+02 0.  0.
         -6    2    1    2    0  501 -0.18340935227E+03  0.10352105111E+02 -0.11492687602E+04  0.11772795172E+04  0.17726314292E+03 0.  0.
        -24    2    5    5    0    0 -0.17387715979E+03  0.63066225237E+02 -0.91929365554E+03  0.94110102554E+03  0.79747725303E+02 0.  0.
          5    1    3    3  502    0 -0.16390127247E+02 -0.91607714615E+01 -0.22495505939E+01  0.19486058678E+02  0.47000000000E+01 0. -1.
        -11    1    4    4    0    0  0.93416833982E+02  0.10943002117E+02 -0.30324625431E+03  0.31749762979E+03  0.00000000000E+00 0.  1.
         12    1    4    4    0    0  0.10638264553E+03 -0.12134335766E+02 -0.15776050780E+03  0.19066433121E+03  0.00000000000E+00 0. -1.
         -5    1    5    5    0  501 -0.95321924767E+01 -0.52714120126E+02 -0.22997510466E+03  0.23617849165E+03  0.47000000000E+01 0.  1.
         13    1    6    6    0    0 -0.11573752421E+03  0.98243924730E+00 -0.49291964882E+03  0.50632590284E+03  0.00000000000E+00 0. -1.
        -14    1    6    6    0    0 -0.58139635581E+02  0.62083785989E+02 -0.42637400672E+03  0.43477512269E+03  0.00000000000E+00 0.  1.
</event>
<event>
12    1  0.2609167E-002  0.1889692E+03  0.7818608E-02  0.1159394E+00
         -2   -1    0    0    0  501 -0.00000000000E+00  0.00000000000E+00  0.13596719243E+03  0.13596719243E+03  0.00000000000E+00 0. -1.
          2   -1    0    0  502    0  0.00000000000E+00 -0.00000000000E+00 -0.70656447528E+03  0.70656447528E+03  0.00000000000E+00 0.  1.
          6    2    1    2  502    0 -0.88730398312E+02 -0.13549093247E+01  0.51211973331E+02  0.19121073063E+03  0.16144335828E+03 0.  0.
         24    2    3    3    0    0  0.57107404699E+01  0.11873026668E+02 -0.39357885905E+01  0.80949800879E+02  0.79773419831E+02 0.  0.
         -6    2    1    2    0  501  0.88730398312E+02  0.13549093247E+01 -0.62180925618E+03  0.65132093708E+03  0.17232902438E+03 0.  0.
        -24    2    5    5    0    0  0.84409258880E+02  0.60703009039E+02 -0.36941269392E+03  0.39196214347E+03  0.79742116782E+02 0.  0.
          5    1    3    3  502    0 -0.94441138782E+02 -0.13227935993E+02  0.55147761922E+02  0.11026092975E+03  0.47000000000E+01 0. -1.
        -11    1    4    4    0    0  0.28717293722E+02 -0.20860972577E+02 -0.16320181894E+02  0.39066756618E+02  0.00000000000E+00 0.  1.
         12    1    4    4    0    0 -0.23006553252E+02  0.32733999246E+02  0.12384393303E+02  0.41883044262E+02  0.00000000000E+00 0. -1.
         -5    1    5    5    0  501  0.43211394322E+01 -0.59348099714E+02 -0.25239656225E+03  0.25935879361E+03  0.47000000000E+01 0.  1.
         13    1    6    6    0    0  0.32368558114E+02 -0.17556838461E+02 -0.11453572818E+03  0.12030959712E+03  0.00000000000E+00 0. -1.
        -14    1    6    6    0    0  0.52040700766E+02  0.78259847500E+02 -0.25487696575E+03  0.27165254635E+03  0.00000000000E+00 0.  1.
</event>
<event>
12    1  0.2609167E-002  0.2119257E+03  0.7818608E-02  0.1140050E+00
         -1   -1    0    0    0  501 -0.00000000000E+00  0.00000000000E+00  0.84969057871E+02  0.84969057871E+02  0.00000000000E+00 0.  1.
          1   -1    0    0  502    0  0.00000000000E+00 -0.00000000000E+00 -0.85058673181E+03  0.85058673181E+03  0.00000000000E+00 0. -1.
          6    2    1    2  502    0  0.73677756510E+02  0.95031643428E+02 -0.92072436364E+02  0.22865321222E+03  0.17130537897E+03 0.  0.
         24    2    3    3    0    0  0.88379140230E+02  0.34645225911E+02 -0.10615616612E+03  0.16475413909E+03  0.82847031542E+02 0.  0.
         -6    2    1    2    0  501 -0.73677756510E+02 -0.95031643428E+02 -0.67354523757E+03  0.70690257745E+03  0.17773193832E+03 0.  0.
        -24    2    5    5    0    0  0.28766716963E+02 -0.41682450549E+02 -0.36928485519E+03  0.38142219892E+03  0.80911302459E+02 0.  0.
          5    1    3    3  502    0 -0.14701383720E+02  0.60386417518E+02  0.14083729753E+02  0.63899073136E+02  0.47000000000E+01 0. -1.
        -13    1    4    4    0    0  0.57174315478E+02  0.37958926793E+02 -0.17666688738E+02  0.70865325546E+02  0.00000000000E+00 0.  1.
         14    1    4    4    0    0  0.31204824752E+02 -0.33137008829E+01 -0.88489477380E+02  0.93888813542E+02  0.00000000000E+00 0. -1.
         -5    1    5    5    0  501 -0.10244447347E+03 -0.53349192880E+02 -0.30426038238E+03  0.32548037853E+03  0.47000000000E+01 0.  1.
         13    1    6    6    0    0 -0.16329023220E+02 -0.28281525547E+02 -0.26515279950E+03  0.26715630026E+03  0.00000000000E+00 0. -1.
        -14    1    6    6    0    0  0.45095740182E+02 -0.13400925001E+02 -0.10413205569E+03  0.11426589866E+03  0.00000000000E+00 0.  1.
</event>
<event>
12    1  0.2609167E-002  0.1936120E+03  0.7818608E-02  0.1155243E+00
         -2   -1    0    0    0  501 -0.00000000000E+00  0.00000000000E+00  0.34071742047E+02  0.34071742047E+02  0.00000000000E+00 0.  1.
          2   -1    0    0  502    0  0.00000000000E+00 -0.00000000000E+00 -0.11220243086E+04  0.11220243086E+04  0.00000000000E+00 0. -1.
          6    2    1    2  502    0 -0.36399711643E+02 -0.76165441006E+02 -0.46753917851E+03  0.50661081726E+03  0.17588497183E+03 0.  0.
         24    2    3    3    0    0 -0.70696409714E+02 -0.71105334873E+02 -0.44855081140E+03  0.46680483457E+03  0.81578012806E+02 0.  0.
         -6    2    1    2    0  501  0.36399711643E+02  0.76165441006E+02 -0.62041338801E+03  0.64948523336E+03  0.17260412193E+03 0.  0.
        -24    2    5    5    0    0 -0.90397578011E+01  0.72034332296E+02 -0.19889750735E+03  0.22548105991E+03  0.77529527924E+02 0.  0.
          5    1    3    3  502    0  0.34296698071E+02 -0.50601061329E+01 -0.18988367103E+02  0.39805982690E+02  0.47000000000E+01 0. -1.
        -11    1    4    4    0    0 -0.14863579420E+02 -0.67894991934E+02 -0.19101510961E+03  0.20326688865E+03  0.00000000000E+00 0.  1.
         12    1    4    4    0    0 -0.55832830294E+02 -0.32103429387E+01 -0.25753570179E+03  0.26353794592E+03  0.00000000000E+00 0. -1.
         -5    1    5    5    0  501  0.45439469445E+02  0.41311087094E+01 -0.42151588067E+03  0.42400417344E+03  0.47000000000E+01 0.  1.
         11    1    6    6    0    0 -0.16976192850E+02  0.81716740200E+01 -0.12939828083E+03  0.13076269522E+03  0.00000000000E+00 0. -1.
        -12    1    6    6    0    0  0.79364350484E+01  0.63862658277E+02 -0.69499226521E+02  0.94718364695E+02  0.00000000000E+00 0.  1.
</event>
<event>
12    1  0.2609167E-002  0.1822659E+03  0.7818608E-02  0.1165628E+00
          2   -1    0    0  502    0  0.00000000000E+00  0.00000000000E+00  0.38941414313E+04  0.38941414313E+04  0.00000000000E+00 0. -1.
         -2   -1    0    0    0  501 -0.00000000000E+00 -0.00000000000E+00 -0.96070403124E+01  0.96070403124E+01  0.00000000000E+00 0.  1.
          6    2    1    2  502    0  0.28801403827E+02 -0.51869605316E+02  0.12848941063E+04  0.12976957915E+04  0.17187648509E+03 0.  0.
         24    2    3    3    0    0 -0.18468942581E+02  0.29932582602E+02  0.71470332653E+03  0.71971162312E+03  0.77116237953E+02 0.  0.
         -6    2    1    2    0  501 -0.28801403827E+02  0.51869605316E+02  0.25996402847E+04  0.26060526801E+04  0.17280331244E+03 0.  0.
        -24    2    5    5    0    0  0.47715931720E+02  0.87967301598E+01  0.14571015895E+04  0.14601351720E+04  0.80594577614E+02 0.  0.
          5    1    3    3  502    0  0.47270346408E+02 -0.81802187917E+02  0.57019077974E+03  0.57798416838E+03  0.47000000000E+01 0. -1.
        -13    1    4    4    0    0 -0.42941813494E+02  0.17847321889E+01  0.49522244608E+03  0.49708395239E+03  0.00000000000E+00 0.  1.
         14    1    4    4    0    0  0.24472870913E+02  0.28147850413E+02  0.21948088045E+03  0.22262767073E+03  0.00000000000E+00 0. -1.
         -5    1    5    5    0  501 -0.76517335547E+02  0.43072875156E+02  0.11425386952E+04  0.11459175080E+04  0.47000000000E+01 0.  1.
         11    1    6    6    0    0  0.13386035896E+02  0.30542623970E+02  0.11337040931E+04  0.11341944316E+04  0.00000000000E+00 0. -1.
        -12    1    6    6    0    0  0.34329895824E+02 -0.21745893810E+02  0.32339749637E+03  0.32594074048E+03  0.00000000000E+00 0.  1.
</event>
<event>
12    1  0.2609167E-002  0.1917070E+03  0.7818608E-02  0.1156931E+00
          1   -1    0    0  502    0  0.00000000000E+00  0.00000000000E+00  0.40802182854E+03  0.40802182854E+03  0.00000000000E+00 0.  1.
         -1   -1    0    0    0  501 -0.00000000000E+00 -0.00000000000E+00 -0.19365183006E+03  0.19365183006E+03  0.00000000000E+00 0. -1.
          6    2    1    2  502    0 -0.69361086665E+02 -0.31107134519E+01  0.32545448454E+03  0.37469022603E+03  0.17219612971E+03 0.  0.
         24    2    3    3    0    0 -0.12758983407E+01 -0.43451762551E+01  0.28012395750E+03  0.29275083715E+03  0.84930045404E+02 0.  0.
         -6    2    1    2    0  501  0.69361086665E+02  0.31107134519E+01 -0.11108448606E+03  0.22698343258E+03  0.18536741553E+03 0.  0.
        -24    2    5    5    0    0  0.51719098553E+02  0.63104055332E+02 -0.11782064127E+03  0.16391278488E+03  0.79553193424E+02 0.  0.
          5    1    3    3  502    0 -0.68085188324E+02  0.12344628032E+01  0.45330527044E+02  0.81939388877E+02  0.47000000000E+01 0. -1.
        -11    1    4    4    0    0 -0.37134970977E+02 -0.19603752296E+02  0.99989494160E+02  0.10844912225E+03  0.00000000000E+00 0.  1.
         12    1    4    4    0    0  0.35859072636E+02  0.15258576041E+02  0.18013446334E+03  0.18430171490E+03  0.00000000000E+00 0. -1.
         -5    1    5    5    0  501  0.17641988111E+02 -0.59993341880E+02  0.67361552064E+01  0.63070647701E+02  0.47000000000E+01 0.  1.
         11    1    6    6    0    0  0.53151822729E+02  0.44331985104E+02 -0.32362297612E+02  0.76405231951E+02  0.00000000000E+00 0. -1.
        -12    1    6    6    0    0 -0.14327241762E+01  0.18772070228E+02 -0.85458343659E+02  0.87507552932E+02  0.00000000000E+00 0.  1.
</event>
<event>
12    1  0.2609167E-002  0.1770325E+03  0.7818608E-02  0.1170706E+00
         -2   -1    0    0    0  501 -0.00000000000E+00  0.00000000000E+00  0.65595235335E+02  0.65595235335E+02  0.00000000000E+00 0.  1.
          2   -1    0    0  502    0  0.00000000000E+00 -0.00000000000E+00 -0.73237478899E+03  0.73237478899E+03  0.00000000000E+00 0. -1.
          6    2    1    2  502    0 -0.15353809626E+02 -0.24373288602E+02 -0.56586558157E+03  0.59225938364E+03  0.17244571446E+03 0.  0.
         24    2    3    3    0    0 -0.36808757632E+02 -0.55322777249E+02 -0.20817852328E+03  0.23256464179E+03  0.79577137023E+02 0.  0.
         -6    2    1    2    0  501  0.15353809626E+02  0.24373288602E+02 -0.10091397209E+03  0.20571064069E+03  0.17692778545E+03 0.  0.
        -24    2    5    5    0    0  0.57435217979E+02  0.63541378342E+02 -0.90455390553E+02  0.14708934669E+03  0.78209891981E+02 0.  0.
          5    1    3    3  502    0  0.21454948007E+02  0.30949488647E+02 -0.35768705829E+03  0.35969474184E+03  0.47000000000E+01 0. -1.
        -11    1    4    4    0    0 -0.84429129918E+01 -0.54813202564E+02 -0.60043356691E+02  0.81737229203E+02  0.00000000000E+00 0.  1.
         12    1    4    4    0    0 -0.28365844640E+02 -0.50957468520E+00 -0.14813516659E+03  0.15082741259E+03  0.00000000000E+00 0. -1.
         -5    1    5    5    0  501 -0.42081408353E+02 -0.39168089740E+02 -0.10458581538E+02  0.58621294004E+02  0.47000000000E+01 0.  1.
         11    1    6    6    0    0  0.15288974361E+02  0.26141452184E+02 -0.85288165327E+02  0.90505245174E+02  0.00000000000E+00 0. -1.
        -12    1    6    6    0    0  0.42146243619E+02  0.37399926159E+02 -0.51672252266E+01  0.56584101516E+02  0.00000000000E+00 0.  1.
</event>
<event>
12    1  0.2609167E-002  0.2371996E+03  0.7818608E-02  0.1121673E+00
          2   -1    0    0  502    0  0.00000000000E+00  0.00000000000E+00  0.20464053251E+04  0.20464053251E+04  0.00000000000E+00 0.  1.
         -2   -1    0    0    0  501 -0.00000000000E+00 -0.00000000000E+00 -0.28496596679E+02  0.28496596679E+02  0.00000000000E+00 0. -1.
          6    2    1    2  502    0 -0.15316273839E+02 -0.16222961100E+03  0.81167234880E+03  0.84543760092E+03  0.17146340810E+03 0.  0.
         24    2    3    3    0    0 -0.81171511153E+01 -0.17004771255E+02  0.18373167446E+03  0.20086513647E+03  0.78958371686E+02 0.  0.
         -6    2    1    2    0  501  0.15316273839E+02  0.16222961100E+03  0.12062363796E+04  0.12294643208E+04  0.17327226495E+03 0.  0.
        -24    2    5    5    0    0  0.43255892459E+02  0.72917209366E+02  0.36301786273E+03  0.38105587877E+03  0.78953292706E+02 0.  0.
          5    1    3    3  502    0 -0.71991227237E+01 -0.14522483975E+03  0.62794067434E+03  0.64457246446E+03  0.47000000000E+01 0. -1.
        -11    1    4    4    0    0  0.11128930561E+02 -0.27062759503E+02  0.17504900237E+03  0.17747788391E+03  0.00000000000E+00 0.  1.
         12    1    4    4    0    0 -0.19246081677E+02  0.10057988248E+02  0.86826720978E+01  0.23387252559E+02  0.00000000000E+00 0. -1.
         -5    1    5    5    0  501 -0.27939618620E+02  0.89312401639E+02  0.84321851685E+03  0.84840844205E+03  0.47000000000E+01 0.  1.
         13    1    6    6    0    0  0.58247192374E+02  0.22174174295E+02  0.21572552241E+03  0.22454828088E+03  0.00000000000E+00 0. -1.
        -14    1    6    6    0    0 -0.14991299915E+02  0.50743035071E+02  0.14729234032E+03  0.15650759789E+03  0.00000000000E+00 0.  1.
</event>
<event>
12    1  0.2609167E-002  0.1724874E+03  0.7818608E-02  0.1175278E+00
          2   -1    0    0  502    0  0.00000000000E+00  0.00000000000E+00  0.50755970749E+03  0.50755970749E+03  0.00000000000E+00 0. -1.
         -2   -1    0    0    0  501 -0.00000000000E+00 -0.00000000000E+00 -0.61227349931E+02  0.61227349931E+02  0.00000000000E+00 0.  1.
          6    2    1    2  502    0  0.18432001324E+02  0.39983044600E+01  0.28290938734E+03  0.33178608930E+03  0.17230369265E+03 0.  0.
         24    2    3    3    0    0 -0.26596767424E+02 -0.47613672078E+02  0.10850046664E+03  0.14435090649E+03  0.78040906823E+02 0.  0.
         -6    2    1    2    0  501 -0.18432001324E+02 -0.39983044600E+01  0.16342297022E+03  0.23700096811E+03  0.17060676007E+03 0.  0.
        -24    2    5    5    0    0 -0.73877024713E+02  0.15978686364E+02  0.12590207262E+03  0.16697855358E+03  0.79481898981E+02 0.  0.
          5    1    3    3  502    0  0.45028768748E+02  0.51611976538E+02  0.17440892070E+03  0.18743518281E+03  0.47000000000E+01 0. -1.
        -11    1    4    4    0    0  0.21239255644E+02 -0.41576995010E+02  0.47599698288E+02  0.66674461164E+02  0.00000000000E+00 0.  1.
         12    1    4    4    0    0 -0.47836023068E+02 -0.60366770680E+01  0.60900768354E+02  0.77676445330E+02  0.00000000000E+00 0. -1.
         -5    1    5    5    0  501  0.55445023389E+02 -0.19976990824E+02  0.37520897594E+02  0.70022414535E+02  0.47000000000E+01 0.  1.
         13    1    6    6    0    0  0.48842402300E+01  0.19110283991E+02  0.63353919102E+02  0.66353431127E+02  0.00000000000E+00 0. -1.
        -14    1    6    6    0    0 -0.78761264943E+02 -0.31315976268E+01  0.62548153522E+02  0.10062512245E+03  0.00000000000E+00 0.  1.
</event>
<event>
12    1  0.2609167E-002  0.2779598E+03  0.7818608E-02  0.1096808E+00
         -2   -1    0    0    0  501 -0.00000000000E+00  0.00000000000E+00  0.12538002747E+03  0.12538002747E+03  0.00000000000E+00 0.  1.
          2   -1    0    0  502    0  0.00000000000E+00 -0.00000000000E+00 -0.71465897595E+03  0.71465897595E+03  0.00000000000E+00 0. -1.
          6    2    1    2  502    0  0.16842669278E+03  0.13120766505E+03 -0.14256628812E+03  0.31601653335E+03  0.18427778118E+03 0.  0.
         24    2    3    3    0    0  0.15731258013E+03  0.16255778834E+03 -0.95966289296E+02  0.25857087537E+03  0.80480348487E+02 0.  0.
         -6    2    1    2    0  501 -0.16842669278E+03 -0.13120766505E+03 -0.44671266035E+03  0.52402247007E+03  0.17165181622E+03 0.  0.
        -24    2    5    5    0    0 -0.11168903673E+03 -0.71780783032E+02 -0.39996829478E+03  0.42937659518E+03  0.82235648737E+02 0.  0.
          5    1    3    3  502    0  0.11114112647E+02 -0.31350123291E+02 -0.46599998826E+02  0.57445657981E+02  0.47000000000E+01 0. -1.
        -13    1    4    4    0    0  0.13091208938E+02 -0.81657784420E+01 -0.20145831944E+00  0.15430498193E+02  0.00000000000E+00 0.  1.
         14    1    4    4    0    0  0.14422137119E+03  0.17072356678E+03 -0.95764830977E+02  0.24314037718E+03  0.00000000000E+00 0. -1.
         -5    1    5    5    0  501 -0.56737656047E+02 -0.59426882017E+02 -0.46744365570E+02  0.94645874884E+02  0.47000000000E+01 0.  1.
         11    1    6    6    0    0 -0.41664619080E+02 -0.71731331053E+02 -0.17315568747E+03  0.19200056365E+03  0.00000000000E+00 0. -1.
        -12    1    6    6    0    0 -0.70024417650E+02 -0.49451978793E-01 -0.22681260731E+03  0.23737603153E+03  0.00000000000E+00 0.  1.
</event>
<event>
12    1  0.2609167E-002  0.2482802E+03  0.7818608E-02  0.1114397E+00
         -2   -1    0    0    0  501 -0.00000000000E+00  0.00000000000E+00  0.71752485508E+02  0.71752485508E+02  0.00000000000E+00 0. -1.
          2   -1    0    0  502    0  0.00000000000E+00 -0.00000000000E+00 -0.19632340666E+04  0.19632340666E+04  0.00000000000E+00 0.  1.
          6    2    1    2  502    0  0.17335017935E+03  0.36078791178E+02 -0.17067928684E+04  0.17245853709E+04  0.17233932234E+03 0.  0.
         24    2    3    3    0    0  0.46793666820E+02  0.19043313646E+02 -0.11171045567E+04  0.11212105676E+04  0.81475463349E+02 0.  0.
         -6    2    1    2    0  501 -0.17335017935E+03 -0.36078791178E+02 -0.18468871268E+03  0.31040118121E+03  0.17574700239E+03 0.  0.
        -24    2    5    5    0    0 -0.54150911151E+02  0.43047248191E+02 -0.52991020609E+02  0.11588699730E+03  0.76396080540E+02 0.  0.
          5    1    3    3  502    0  0.12655651253E+03  0.17035477532E+02 -0.58968831170E+03  0.60337480334E+03  0.47000000000E+01 0. -1.
        -13    1    4    4    0    0 -0.11522177602E+02  0.32684663722E+02 -0.50303463802E+03  0.50422702711E+03  0.00000000000E+00 0.  1.
         14    1    4    4    0    0  0.58315844422E+02 -0.13641350076E+02 -0.61406991871E+03  0.61698354047E+03  0.00000000000E+00 0. -1.
         -5    1    5    5    0  501 -0.11919926820E+03 -0.79126039369E+02 -0.13169769208E+03  0.19451418391E+03  0.47000000000E+01 0.  1.
         11    1    6    6    0    0 -0.88225876075E+01  0.11219351046E+02  0.19807472398E+02  0.24414091275E+02  0.00000000000E+00 0. -1.
        -12    1    6    6    0    0 -0.45328323544E+02  0.31827897145E+02 -0.72798493007E+02  0.91472906022E+02  0.00000000000E+00 0.  1.
</event>
<event>
12    1  0.2609167E-002  0.3000016E+03  0.7818608E-02  0.1085240E+00
          2   -1    0    0  502    0  0.00000000000E+00  0.00000000000E+00  0.11735459583E+04  0.11735459583E+04  0.00000000000E+00 0.  1.
         -2   -1    0    0    0  501 -0.00000000000E+00 -0.00000000000E+00 -0.10347845822E+03  0.10347845822E+03  0.00000000000E+00 0. -1.
          6    2    1    2  502    0 -0.77073565786E+02 -0.23458054364E+03  0.86123626988E+03  0.91232668593E+03  0.17217346865E+03 0.  0.
         24    2    3    3    0    0 -0.26225505233E+02 -0.22638773267E+03  0.61726991579E+03  0.66293879660E+03  0.80786858310E+02 0.  0.
         -6    2    1    2    0  501  0.77073565786E+02  0.23458054364E+03  0.20883123024E+03  0.36469773063E+03  0.16859889088E+03 0.  0.
        -24    2    5    5    0    0  0.63286478358E+02  0.23937243358E+03  0.14201276350E+03  0.29614232613E+03  0.78919655504E+02 0.  0.
          5    1    3    3  502    0 -0.50848060553E+02 -0.81928109659E+01  0.24396635409E+03  0.24938788933E+03  0.47000000000E+01 0. -1.
        -11    1    4    4    0    0 -0.45267128281E+02 -0.71728244069E+02  0.24931815909E+03  0.26335071360E+03  0.00000000000E+00 0.  1.
         12    1    4    4    0    0  0.19041623048E+02 -0.15465948861E+03  0.36795175670E+03  0.39958808300E+03  0.00000000000E+00 0. -1.
         -5    1    5    5    0  501  0.13787087429E+02 -0.47918899438E+01  0.66818466740E+02  0.68555404503E+02  0.47000000000E+01 0.  1.
         11    1    6    6    0    0  0.50429208825E+02  0.24008049793E+03  0.14161254304E+03  0.28325935631E+03  0.00000000000E+00 0. -1.
        -12    1    6    6    0    0  0.12857269533E+02 -0.70806434939E+00  0.40022046231E+00  0.12882969820E+02  0.00000000000E+00 0.  1.
</event>
<event>
12    1  0.2609167E-002  0.2711042E+03  0.7818608E-02  0.1100649E+00
         -2   -1    0    0    0  501 -0.00000000000E+00  0.00000000000E+00  0.41750897360E+02  0.41750897360E+02  0.00000000000E+00 0. -1.
          2   -1    0    0  502    0  0.00000000000E+00 -0.00000000000E+00 -0.21791100430E+04  0.21791100430E+04  0.00000000000E+00 0.  1.
          6    2    1    2  502    0 -0.18764448020E+03 -0.90253359000E+02 -0.58845625275E+03  0.64875917983E+03  0.17678119882E+03 0.  0.
         24    2    3    3    0    0 -0.95094685821E+02  0.15308571440E+02 -0.35936983118E+03  0.38003727127E+03  0.77487420632E+02 0.  0.
         -6    2    1    2    0  501  0.18764448020E+03  0.90253359000E+02 -0.15489028929E+04  0.15721017606E+04  0.17043372345E+03 0.  0.
        -24    2    5    5    0    0  0.18300985619E+02  0.31201661137E+02 -0.54570298109E+03  0.55298622477E+03  0.81814127672E+02 0.  0.
          5    1    3    3  502    0 -0.92549794379E+02 -0.10556193044E+03 -0.22908642157E+03  0.26872190857E+03  0.47000000000E+01 0. -1.
        -13    1    4    4    0    0 -0.44940866368E+02 -0.23451265779E+02 -0.23547529141E+03  0.24086979097E+03  0.00000000000E+00 0.  1.
         14    1    4    4    0    0 -0.50153819453E+02  0.38759837218E+02 -0.12389453977E+03  0.13916748030E+03  0.00000000000E+00 0. -1.
         -5    1    5    5    0  501  0.16934349458E+03  0.59051697863E+02 -0.10031999118E+04  0.10191155358E+04  0.47000000000E+01 0.  1.
         13    1    6    6    0    0  0.19279041962E+02  0.52070754470E+02 -0.23057030828E+03  0.23716178442E+03  0.00000000000E+00 0. -1.
        -14    1    6    6    0    0 -0.97805634275E+00 -0.20869093334E+02 -0.31513267281E+03  0.31582444035E+03  0.00000000000E+00 0.  1.
</event>
<event>
12    1  0.2609167E-002  0.1866251E+03  0.7818608E-02  0.1161541E+00
          1   -1    0    0  502    0  0.00000000000E+00  0.00000000000E+00  0.51089191066E+03  0.51089191066E+03  0.00000000000E+00 0.  1.
         -1   -1    0    0    0  501 -0.00000000000E+00 -0.00000000000E+00 -0.11616194968E+03  0.11616194968E+03  0.00000000000E+00 0. -1.
          6    2    1    2  502    0 -0.42075377804E+02  0.11890230156E+02  0.39375560895E+03  0.43256719091E+03  0.17366398614E+03 0.  0.
         24    2    3    3    0    0 -0.41620851112E+02 -0.41968401814E+02  0.34878637067E+03  0.36224449739E+03  0.77945503577E+02 0.  0.
         -6    2    1    2    0  501  0.42075377804E+02 -0.11890230156E+02  0.97435203283E+00  0.19448666944E+03  0.18950567336E+03 0.  0.
        -24    2    5    5    0    0 -0.65443168671E+01 -0.33369477583E+02 -0.64142936708E+02  0.11029887892E+03  0.83037197948E+02 0.  0.
          5    1    3    3  502    0 -0.45452669146E+00  0.53858631970E+02  0.44969238280E+02  0.70322693518E+02  0.47000000000E+01 0. -1.
        -13    1    4    4    0    0 -0.27309066272E+02  0.12047447210E+02  0.21781370782E+03  0.21984935160E+03  0.00000000000E+00 0.  1.
         14    1    4    4    0    0 -0.14311784841E+02 -0.54015849023E+02  0.13097266285E+03  0.14239514579E+03  0.00000000000E+00 0. -1.
         -5    1    5    5    0  501  0.48619694671E+02  0.21479247427E+02  0.65117288741E+02  0.84187790521E+02  0.47000000000E+01 0.  1.
         11    1    6    6    0    0 -0.26756092430E+02  0.15020624294E+02 -0.47201121573E+01  0.31044920600E+02  0.00000000000E+00 0. -1.
        -12    1    6    6    0    0  0.20211775563E+02 -0.48390101877E+02 -0.59422824551E+02  0.79253958315E+02  0.00000000000E+00 0.  1.
</event>
<event>
12    1  0.2609167E-002  0.1883710E+03  0.7818608E-02  0.1159939E+00
         -4   -1    0    0    0  501 -0.00000000000E+00  0.00000000000E+00  0.14122694381E+03  0.14122694381E+03  0.00000000000E+00 0.  1.
          4   -1    0    0  502    0  0.00000000000E+00 -0.00000000000E+00 -0.26658778150E+03  0.26658778150E+03  0.00000000000E+00 0. -1.
          6    2    1    2  502    0 -0.60232512990E+02  0.37977710732E+02 -0.10985718964E+03  0.21408769066E+03  0.16939502662E+03 0.  0.
         24    2    3    3    0    0  0.53034675810E+01 -0.33213211981E+02 -0.36887654592E+02  0.92803910743E+02  0.78234407836E+02 0.  0.
         -6    2    1    2    0  501  0.60232512990E+02 -0.37977710732E+02 -0.15503648051E+02  0.19372703465E+03  0.17949801870E+03 0.  0.
        -24    2    5    5    0    0  0.10573934204E+03  0.24846295859E+01 -0.17378626903E+02  0.13262320481E+03  0.78101958631E+02 0.  0.
          5    1    3    3  502    0 -0.65535980571E+02  0.71190922714E+02 -0.72969535048E+02  0.12128377992E+03  0.47000000000E+01 0. -1.
        -11    1    4    4    0    0  0.65511215607E+01 -0.13396671468E+02  0.24280148427E+02  0.28494097771E+02  0.00000000000E+00 0.  1.
         12    1    4    4    0    0 -0.12476539797E+01 -0.19816540513E+02 -0.61167803019E+02  0.64309812972E+02  0.00000000000E+00 0. -1.
         -5    1    5    5    0  501 -0.45506829054E+02 -0.40462340318E+02  0.18749788517E+01  0.61103829833E+02  0.47000000000E+01 0.  1.
         11    1    6    6    0    0  0.34373732025E+02  0.34626028622E+02 -0.23421012533E+02  0.54120782880E+02  0.00000000000E+00 0. -1.
        -12    1    6    6    0    0  0.71365610019E+02 -0.32141399036E+02  0.60423856304E+01  0.78502421934E+02  0.00000000000E+00 0.  1.
</event>
<event>
12    1  0.2609167E-002  0.2432540E+03  0.7818608E-02  0.1117644E+00
          2   -1    0    0  502    0  0.00000000000E+00  0.00000000000E+00  0.25515762811E+04  0.25515762811E+04  0.00000000000E+00 0.  1.
         -2   -1    0    0    0  501 -0.00000000000E+00 -0.00000000000E+00 -0.23304447983E+02  0.23304447983E+02  0.00000000000E+00 0. -1.
          6    2    1    2  502    0  0.85876915123E+02 -0.14956018045E+03  0.11744467763E+04  0.11993860570E+04  0.17163505266E+03 0.  0.
         24    2    3    3    0    0  0.78286539197E+02 -0.27242310121E+02  0.69961162908E+03  0.70896809014E+03  0.79425409126E+02 0.  0.
         -6    2    1    2    0  501 -0.85876915123E+02  0.14956018045E+03  0.13538250568E+04  0.13754946720E+04  0.17146491262E+03 0.  0.
        -24    2    5    5    0    0 -0.61047237832E+02  0.16292738428E+03  0.13043738749E+04  0.13183745845E+04  0.80300944209E+02 0.  0.
          5    1    3    3  502    0  0.75903759262E+01 -0.12231787033E+03  0.47483514723E+03  0.49041796690E+03  0.47000000000E+01 0. -1.
        -13    1    4    4    0    0  0.62860277860E+02 -0.53165124642E+02  0.44256129576E+03  0.45015380206E+03  0.00000000000E+00 0.  1.
         14    1    4    4    0    0  0.15426261337E+02  0.25922814520E+02  0.25705033332E+03  0.25881428808E+03  0.00000000000E+00 0. -1.
         -5    1    5    5    0  501 -0.24829677291E+02 -0.13367203828E+02  0.49451181841E+02  0.57120087518E+02  0.47000000000E+01 0.  1.
         13    1    6    6    0    0 -0.62461715388E+02  0.92331080230E+02  0.58365687743E+03  0.59420690406E+03  0.00000000000E+00 0. -1.
        -14    1    6    6    0    0  0.14144775554E+01  0.70596304051E+02  0.72071699751E+03  0.72416768044E+03  0.00000000000E+00 0.  1.
</event>
<event>
12    1  0.2609167E-002  0.2405796E+03  0.7818608E-02  0.1119407E+00
         -2   -1    0    0    0  501 -0.00000000000E+00  0.00000000000E+00  0.98742984983E+02  0.98742984983E+02  0.00000000000E+00 0. -1.
          2   -1    0    0  502    0  0.00000000000E+00 -0.00000000000E+00 -0.74272315609E+03  0.74272315609E+03  0.00000000000E+00 0.  1.
          6    2    1    2  502    0 -0.16415066681E+03 -0.24039186687E+01 -0.13159236808E+03  0.27649568343E+03  0.17939367708E+03 0.  0.
         24    2    3    3    0    0 -0.27034854604E+02 -0.49531767347E+02 -0.53641410004E+02  0.11181349877E+03  0.80253213642E+02 0.  0.
         -6    2    1    2    0  501  0.16415066681E+03  0.24039186687E+01 -0.51238780302E+03  0.56497045764E+03  0.17233437582E+03 0.  0.
        -24    2    5    5    0    0  0.69484363420E+02  0.57176620705E+02 -0.18527783199E+03  0.22002875093E+03  0.77379154121E+02 0.  0.
          5    1    3    3  502    0 -0.13711581221E+03  0.47127848678E+02 -0.77950958081E+02  0.16468218466E+03  0.47000000000E+01 0. -1.
        -13    1    4    4    0    0 -0.89322784652E+01 -0.54090912611E+02 -0.68654163016E+02  0.87857876853E+02  0.00000000000E+00 0.  1.
         14    1    4    4    0    0 -0.18102576139E+02  0.45591452637E+01  0.15012753012E+02  0.23955621916E+02  0.00000000000E+00 0. -1.
         -5    1    5    5    0  501  0.94666303389E+02 -0.54772702036E+02 -0.32710997103E+03  0.34494170671E+03  0.47000000000E+01 0.  1.
         13    1    6    6    0    0  0.85967739339E+02  0.39902492810E+02 -0.14980593664E+03  0.17726951174E+03  0.00000000000E+00 0. -1.
        -14    1    6    6    0    0 -0.16483375919E+02  0.17274127895E+02 -0.35471895355E+02  0.42759239193E+02  0.00000000000E+00 0.  1.
</event>
<event>
12    1  0.2609167E-002  0.2086936E+03  0.7818608E-02  0.1142605E+00
          1   -1    0    0  502    0  0.00000000000E+00  0.00000000000E+00  0.37073741174E+03  0.37073741174E+03  0.00000000000E+00 0.  1.
         -1   -1    0    0    0  501 -0.00000000000E+00 -0.00000000000E+00 -0.11923837069E+03  0.11923837069E+03  0.00000000000E+00 0. -1.
          6    2    1    2  502    0 -0.11268602355E+03  0.36560007576E+02  0.15327133693E+03  0.25625257312E+03  0.16774535597E+03 0.  0.
         24    2    3    3    0    0 -0.13234547512E+03  0.75401613397E+00  0.14950258863E+03  0.21496266487E+03  0.79636863052E+02 0.  0.
         -6    2    1    2    0  501  0.11268602355E+03 -0.36560007576E+02  0.98227704127E+02  0.23372320932E+03  0.17590645997E+03 0.  0.
        -24    2    5    5    0    0 -0.84955035309E+01  0.88591141954E+01  0.23049164291E+02  0.83984229823E+02  0.79821234017E+02 0.  0.
          5    1    3    3  502    0  0.19659451571E+02  0.35805991442E+02  0.37687482985E+01  0.41289908246E+02  0.47000000000E+01 0. -1.
        -11    1    4    4    0    0 -0.81720256371E+02 -0.16268489754E+02  0.13661332668E+03  0.16001895228E+03  0.00000000000E+00 0.  1.
         12    1    4    4    0    0 -0.50625218750E+02  0.17022505888E+02  0.12889261945E+02  0.54943712595E+02  0.00000000000E+00 0. -1.
         -5    1    5    5    0  501  0.12118152708E+03 -0.45419121771E+02  0.75178539837E+02  0.14973897950E+03  0.47000000000E+01 0.  1.
         13    1    6    6    0    0  0.30738119441E+02 -0.15558628656E+02  0.78183388699E+01  0.35327458656E+02  0.00000000000E+00 0. -1.
        -14    1    6    6    0    0 -0.39233622971E+02  0.24417742852E+02  0.15230825421E+02  0.48656771167E+02  0.00000000000E+00 0.  1.
</event>
<event>
12    1  0.2609167E-002  0.2388715E+03  0.7818608E-02  0.1120547E+00
          1   -1    0    0  502    0  0.00000000000E+00  0.00000000000E+00  0.42361968215E+03  0.42361968215E+03  0.00000000000E+00 0. -1.
         -1   -1    0    0    0  501 -0.00000000000E+00 -0.00000000000E+00 -0.13737856494E+03  0.13737856494E+03  0.00000000000E+00 0.  1.
          6    2    1    2  502    0  0.16686571758E+03  0.14016493073E+02  0.18260864879E+03  0.30106970420E+03  0.17104507708E+03 0.  0.
         24    2    3    3    0    0  0.18673039737E+03  0.38286883558E+02  0.16860516505E+03  0.26640206923E+03  0.78792347689E+02 0.  0.
         -6    2    1    2    0  501 -0.16686571758E+03 -0.14016493073E+02  0.10363246842E+03  0.25992854288E+03  0.16965414558E+03 0.  0.
        -24    2    5    5    0    0 -0.55386968728E+02  0.27062162432E+02  0.98471026503E+02  0.14091720785E+03  0.79756124955E+02 0.  0.
          5    1    3    3  502    0 -0.19864679793E+02 -0.24270390484E+02  0.14003483746E+02  0.34667634972E+02  0.47000000000E+01 0. -1.
        -13    1    4    4    0    0  0.81093376848E+02  0.17504706757E+02  0.24466566708E+02  0.86493718926E+02  0.00000000000E+00 0.  1.
         14    1    4    4    0    0  0.10563702052E+03  0.20782176800E+02  0.14413859834E+03  0.17990835030E+03  0.00000000000E+00 0. -1.
         -5    1    5    5    0  501 -0.11147874885E+03 -0.41078655505E+02  0.51614419155E+01  0.11901133503E+03  0.47000000000E+01 0.  1.
         11    1    6    6    0    0 -0.38529488982E+02 -0.24256324306E+02  0.56194846068E+02  0.72323934591E+02  0.00000000000E+00 0. -1.
        -12    1    6    6    0    0 -0.16857479747E+02  0.51318486738E+02  0.42276180435E+02  0.68593273261E+02  0.00000000000E+00 0.  1.
</event>
<event>
12    1  0.2609167E-002  0.2471299E+03  0.7818608E-02  0.1115132E+00
         -2   -1    0    0    0  501 -0.00000000000E+00  0.00000000000E+00  0.33273393874E+02  0.33273393874E+02  0.00000000000E+00 0.  1.
          2   -1    0    0  502    0  0.00000000000E+00 -0.00000000000E+00 -0.25188315042E+04  0.25188315042E+04  0.00000000000E+00 0. -1.
          6    2    1    2  502    0  0.15798755604E+02 -0.17626490772E+03 -0.19099928969E+04  0.19260050713E+04  0.17350432352E+03 0.  0.
         24    2    3    3    0    0 -0.47807803125E+02 -0.11743763835E+03 -0.88664487160E+03  0.89898525031E+03  0.77189163669E+02 0.  0.
         -6    2    1    2    0  501 -0.15798755604E+02  0.17626490772E+03 -0.57556521345E+03  0.62609982675E+03  0.17148399269E+03 0.  0.
        -24    2    5    5    0    0  0.11835829619E+01  0.16499316503E+03 -0.57666476613E+03  0.60515344227E+03  0.80276340402E+02 0.  0.
          5    1    3    3  502    0  0.63606558728E+02 -0.58827269370E+02 -0.10233480253E+04  0.10270198210E+04  0.47000000000E+01 0. -1.
        -13    1    4    4    0    0  0.12904039298E+02 -0.61798167142E+02 -0.29848727231E+03  0.30509044466E+03  0.00000000000E+00 0.  1.
         14    1    4    4    0    0 -0.60711842423E+02 -0.55639471207E+02 -0.58815759930E+03  0.59389480565E+03  0.00000000000E+00 0. -1.
         -5    1    5    5    0  501 -0.16982338566E+02  0.11271742692E+02  0.10995526770E+01  0.20946384475E+02  0.47000000000E+01 0.  1.
         11    1    6    6    0    0  0.86052283344E+01  0.63114149902E+02 -0.36030383100E+03  0.36589109924E+03  0.00000000000E+00 0. -1.
        -12    1    6    6    0    0 -0.74216453725E+01  0.10187901513E+03 -0.21636093513E+03  0.23926234303E+03  0.00000000000E+00 0.  1.
</event>
<event>
12    1  0.2609167E-002  0.3144047E+03  0.7818608E-02  0.1078254E+00
          2   -1    0    0  502    0  0.00000000000E+00  0.00000000000E+00  0.90768334214E+03  0.90768334214E+03  0.00000000000E+00 0. -1.
         -2   -1    0    0    0  501 -0.00000000000E+00 -0.00000000000E+00 -0.11015733334E+03  0.11015733334E+03  0.00000000000E+00 0.  1.
          6    2    1    2  502    0 -0.17275250274E+03 -0.19867695025E+03  0.45341366971E+03  0.55192309953E+03  0.17239255826E+03 0.  0.
         24    2    3    3    0    0 -0.14446601568E+03 -0.15780280362E+03  0.23624789937E+03  0.32909158690E+03  0.81951498420E+02 0.  0.
         -6    2    1    2    0  501  0.17275250274E+03  0.19867695025E+03  0.34411233909E+03  0.46591757595E+03  0.17131820656E+03 0.  0.
        -24    2    5    5    0    0  0.17731211556E+03  0.15845946359E+03  0.34342552546E+03  0.42516468629E+03  0.79214462136E+02 0.  0.
          5    1    3    3  502    0 -0.28286487064E+02 -0.40874146635E+02  0.21716577034E+03  0.22283151263E+03  0.47000000000E+01 0. -1.
        -13    1    4    4    0    0 -0.75667103186E+02 -0.75414607204E+02  0.59441710333E+02  0.12225461305E+03  0.00000000000E+00 0.  1.
         14    1    4    4    0    0 -0.68798912494E+02 -0.82388196413E+02  0.17680618904E+03  0.20683697385E+03  0.00000000000E+00 0. -1.
         -5    1    5    5    0  501 -0.45596128172E+01  0.40217486662E+02  0.68681363733E+00  0.40752889658E+02  0.47000000000E+01 0.  1.
         11    1    6    6    0    0  0.14585427835E+03  0.88545900641E+02  0.26735761098E+03  0.31716547602E+03  0.00000000000E+00 0. -1.
        -12    1    6    6    0    0  0.31457837210E+02  0.69913562948E+02  0.76067914479E+02  0.10799921027E+03  0.00000000000E+00 0.  1.
</event>
<event>
12    1  0.2609167E-002  0.1954983E+03  0.7818608E-02  0.1153594E+00
         -2   -1    0    0    0  501 -0.00000000000E+00  0.00000000000E+00  0.64587810273E+02  0.64587810273E+02  0.00000000000E+00 0.  1.
          2   -1    0    0  502    0  0.00000000000E+00 -0.00000000000E+00 -0.91623399872E+03  0.91623399872E+03  0.00000000000E+00 0. -1.
          6    2    1    2  502    0 -0.91243026105E+02 -0.15616746674E+02 -0.13424447665E+03  0.23730976991E+03  0.17240990341E+03 0.  0.
         24    2    3    3    0    0 -0.35235156177E+02  0.47094659244E+02 -0.38162785805E+02  0.10954677354E+03  0.84170506783E+02 0.  0.
         -6    2    1    2    0  501  0.91243026105E+02  0.15616746674E+02 -0.71740171179E+03  0.74351203908E+03  0.17197605527E+03 0.  0.
        -24    2    5    5    0    0  0.56078846832E+02 -0.11925997252E+02 -0.67400436837E+03  0.68105772247E+03  0.79187538678E+02 0.  0.
          5    1    3    3  502    0 -0.56007869929E+02 -0.62711405919E+02 -0.96081690847E+02  0.12776299637E+03  0.47000000000E+01 0. -1.
        -11    1    4    4    0    0 -0.10757384478E+02 -0.18796497963E+02  0.10486668746E+02  0.24062416293E+02  0.00000000000E+00 0.  1.
         12    1    4    4    0    0 -0.24477771699E+02  0.65891157207E+02 -0.48649454551E+02  0.85484357245E+02  0.00000000000E+00 0. -1.
         -5    1    5    5    0  501  0.35164179273E+02  0.27542743927E+02 -0.43397343419E+02  0.62454316607E+02  0.47000000000E+01 0.  1.
         13    1    6    6    0    0 -0.21818902663E+01  0.40564929337E+01 -0.41785914721E+03  0.41788453272E+03  0.00000000000E+00 0. -1.
        -14    1    6    6    0    0  0.58260737098E+02 -0.15982490186E+02 -0.25614522116E+03  0.26317318975E+03  0.00000000000E+00 0.  1.
</event>
<event>
12    1  0.2609167E-002  0.2023012E+03  0.7818608E-02  0.1147812E+00
         -2   -1    0    0    0  501 -0.00000000000E+00  0.00000000000E+00  0.11161460630E+03  0.11161460630E+03  0.00000000000E+00 0. -1.
          2   -1    0    0  502    0  0.00000000000E+00 -0.00000000000E+00 -0.46175236208E+03  0.46175236208E+03  0.00000000000E+00 0.  1.
          6    2    1    2  502    0  0.10121688083E+03  0.38856298895E+02 -0.46874365187E+02  0.21029177931E+03  0.17398493442E+03 0.  0.
         24    2    3    3    0    0 -0.17379317575E+02  0.21328180198E+02 -0.22420246771E+01  0.82282291219E+02  0.77513978247E+02 0.  0.
         -6    2    1    2    0  501 -0.10121688083E+03 -0.38856298895E+02 -0.30326339059E+03  0.36307518907E+03  0.16763126174E+03 0.  0.
        -24    2    5    5    0    0 -0.58164692049E+02  0.38968178889E+02 -0.12898257582E+03  0.16735591894E+03  0.80435367670E+02 0.  0.
          5    1    3    3  502    0  0.11859619841E+03  0.17528118696E+02 -0.44632340510E+02  0.12800948809E+03  0.47000000000E+01 0. -1.
        -13    1    4    4    0    0  0.82587313998E+01  0.39152077504E+02 -0.21671917799E+02  0.45505646224E+02  0.00000000000E+00 0.  1.
         14    1    4    4    0    0 -0.25638048975E+02 -0.17823897305E+02  0.19429893122E+02  0.36776644995E+02  0.00000000000E+00 0. -1.
         -5    1    5    5    0  501 -0.43052188785E+02 -0.77824477784E+02 -0.17428081476E+03  0.19571927012E+03  0.47000000000E+01 0.  1.
         13    1    6    6    0    0  0.69035006824E+01  0.34603041411E+02 -0.74287315930E+02  0.82241316287E+02  0.00000000000E+00 0. -1.
        -14    1    6    6    0    0 -0.65068192732E+02  0.43651374784E+01 -0.54695259894E+02  0.85114602657E+02  0.00000000000E+00 0.  1.
</event>
<event>
12    1  0.2609167E-002  0.2596436E+03  0.7818608E-02  0.1107358E+00
         -1   -1    0    0    0  501 -0.00000000000E+00  0.00000000000E+00  0.87403747718E+02  0.87403747718E+02  0.00000000000E+00 0.  1.
          1   -1    0    0  502    0  0.00000000000E+00 -0.00000000000E+00 -0.18066345187E+04  0.18066345187E+04  0.00000000000E+00 0. -1.
          6    2    1    2  502    0 -0.81095791130E+02  0.17840160950E+03 -0.14121998521E+03  0.29463705316E+03  0.16871350645E+03 0.  0.
         24    2    3    3    0    0 -0.31212017381E+02  0.17653683934E+03 -0.70269423339E+02  0.20775816918E+03  0.78014225188E+02 0.  0.
         -6    2    1    2    0  501  0.81095791130E+02 -0.17840160950E+03 -0.15780107858E+04  0.15994012132E+04  0.17193760305E+03 0.  0.
        -24    2    5    5    0    0  0.48440310621E+02 -0.19080685803E+03 -0.14881201384E+04  0.15028471399E+04  0.72761657475E+02 0.  0.
          5    1    3    3  502    0 -0.49883773749E+02  0.18647701602E+01 -0.70950561871E+02  0.86878883977E+02  0.47000000000E+01 0. -1.
        -11    1    4    4    0    0 -0.44678476784E+02  0.80037231754E+02 -0.60513483235E+02  0.10983627091E+03  0.00000000000E+00 0.  1.
         12    1    4    4    0    0  0.13466459403E+02  0.96499607589E+02 -0.97559401041E+01  0.97921898271E+02  0.00000000000E+00 0. -1.
         -5    1    5    5    0  501  0.32655480509E+02  0.12405248526E+02 -0.89890647310E+02  0.96554073306E+02  0.47000000000E+01 0.  1.
         11    1    6    6    0    0  0.30359222613E+02 -0.16351469448E+02 -0.24126539623E+03  0.24371714008E+03  0.00000000000E+00 0. -1.
        -12    1    6    6    0    0  0.18081088008E+02 -0.17445538858E+03 -0.12468547422E+04  0.12591299999E+04  0.00000000000E+00 0.  1.
</event>
<event>
12    1  0.2609167E-002  0.1745800E+03  0.7818608E-02  0.1173154E+00
         -2   -1    0    0    0  501 -0.00000000000E+00  0.00000000000E+00  0.53180521534E+03  0.53180521534E+03  0.00000000000E+00 0.  1.
          2   -1    0    0  502    0  0.00000000000E+00 -0.00000000000E+00 -0.57526885547E+02  0.57526885547E+02  0.00000000000E+00 0. -1.
          6    2    1    2  502    0  0.31429532218E+02  0.54958230324E+01  0.25485270782E+03  0.30877137057E+03  0.17138213746E+03 0.  0.
         24    2    3    3    0    0  0.18740018435E+02  0.63793944059E+02  0.11021346706E+03  0.15223928236E+03  0.81295357689E+02 0.  0.
         -6    2    1    2    0  501 -0.31429532218E+02 -0.54958230324E+01  0.21942562197E+03  0.28056073031E+03  0.17189735381E+03 0.  0.
        -24    2    5    5    0    0  0.33875919824E+01  0.53399542959E+02  0.81330914949E+02  0.12637534066E+03  0.80579290348E+02 0.  0.
          5    1    3    3  502    0  0.12689513783E+02 -0.58298121026E+02  0.14463924075E+03  0.15653208821E+03  0.47000000000E+01 0. -1.
        -11    1    4    4    0    0 -0.15012632425E+02  0.25855426774E+02  0.94450141102E+02  0.99069225193E+02  0.00000000000E+00 0.  1.
         12    1    4    4    0    0  0.33752650860E+02  0.37938517285E+02  0.15763325962E+02  0.53170057168E+02  0.00000000000E+00 0. -1.
         -5    1    5    5    0  501 -0.34817124200E+02 -0.58895365991E+02  0.13809470703E+03  0.15418538965E+03  0.47000000000E+01 0.  1.
         11    1    6    6    0    0  0.16839118945E+02  0.64101902122E+01 -0.11561963872E+02  0.21408537409E+02  0.00000000000E+00 0. -1.
        -12    1    6    6    0    0 -0.13451526963E+02  0.46989352747E+02  0.92892878821E+02  0.10496680325E+03  0.00000000000E+00 0.  1.
</event>
<event>
12    1  0.2609167E-002  0.1796883E+03  0.7818608E-02  0.1168105E+00
          2   -1    0    0  502    0  0.00000000000E+00  0.00000000000E+00  0.84627536557E+03  0.84627536557E+03  0.00000000000E+00 0.  1.
         -2   -1    0    0    0  501 -0.00000000000E+00 -0.00000000000E+00 -0.41339552545E+02  0.41339552545E+02  0.00000000000E+00 0. -1.
          6    2    1    2  502    0  0.39626190285E+02  0.30394464896E+02  0.27757107223E+03  0.33021260125E+03  0.17175739702E+03 0.  0.
         24    2    3    3    0    0  0.66027619911E+02  0.66445156526E+02  0.24467569775E+03  0.27452702398E+03  0.82001734192E+02 0.  0.
         -6    2    1    2    0  501 -0.39626190285E+02 -0.30394464896E+02  0.52736474080E+03  0.55740231687E+03  0.17346387105E+03 0.  0.
        -24    2    5    5    0    0  0.24316839611E+02 -0.60106665626E+02  0.23877965287E+03  0.26029127883E+03  0.80818978421E+02 0.  0.
          5    1    3    3  502    0 -0.26401429627E+02 -0.36050691630E+02  0.32895374477E+02  0.55685577265E+02  0.47000000000E+01 0. -1.
        -13    1    4    4    0    0 -0.42367072243E+01  0.19255460455E+02  0.13272485856E+03  0.13418125996E+03  0.00000000000E+00 0.  1.
         14    1    4    4    0    0  0.70264327135E+02  0.47189696071E+02  0.11195083919E+03  0.14034576402E+03  0.00000000000E+00 0. -1.
         -5    1    5    5    0  501 -0.63943029896E+02  0.29712200729E+02  0.28858508793E+03  0.29711103804E+03  0.47000000000E+01 0.  1.
         13    1    6    6    0    0  0.30982056979E+02  0.94303235307E+01  0.96471711364E+02  0.10176251741E+03  0.00000000000E+00 0. -1.
        -14    1    6    6    0    0 -0.66652173677E+01 -0.69536989156E+02  0.14230794150E+03  0.15852876142E+03  0.00000000000E+00 0.  1.
</event>
<event>
12    1  0.2609167E-002  0.3038996E+03  0.7818608E-02  0.1083307E+00
          1   -1    0    0  502    0  0.00000000000E+00  0.00000000000E+00  0.42381232141E+03  0.42381232141E+03  0.00000000000E+00 0. -1.
         -1   -1    0    0    0  501 -0.00000000000E+00 -0.00000000000E+00 -0.24794147964E+03  0.24794147964E+03  0.00000000000E+00 0.  1.
          6    2    1    2  502    0 -0.64261842742E+02 -0.24099252787E+03  0.20499209518E+03  0.36714199955E+03  0.17482707407E+03 0.  0.
         24    2    3    3    0    0 -0.53566022350E+02 -0.14086551492E+03  0.45116160102E+02  0.17813876171E+03  0.83579533854E+02 0.  0.
         -6    2    1    2    0  501  0.64261842742E+02  0.24099252787E+03 -0.29121253407E+02  0.30461180150E+03  0.17243352138E+03 0.  0.
        -24    2    5    5    0    0  0.41124009986E+02  0.25853388768E+03 -0.26162237344E+02  0.27504992767E+03  0.80231195723E+02 0.  0.
          5    1    3    3  502    0 -0.10695820392E+02 -0.10012701295E+03  0.15987593508E+03  0.18900323784E+03  0.47000000000E+01 0. -1.
        -11    1    4    4    0    0 -0.17625543653E+01 -0.10879833072E+03  0.43518759215E+02  0.11719243051E+03  0.00000000000E+00 0.  1.
         12    1    4    4    0    0 -0.51803467984E+02 -0.32067184198E+02  0.15974008873E+01  0.60946331204E+02  0.00000000000E+00 0. -1.
         -5    1    5    5    0  501  0.23137832756E+02 -0.17541359816E+02 -0.29590160629E+01  0.29561873839E+02  0.47000000000E+01 0.  1.
         13    1    6    6    0    0  0.47287108297E+02  0.67912098458E+02 -0.14113881516E+02  0.83948349475E+02  0.00000000000E+00 0. -1.
        -14    1    6    6    0    0 -0.61630983113E+01  0.19062178923E+03 -0.12048355829E+02  0.19110157819E+03  0.00000000000E+00 0.  1.
</event>
<event>
12    1  0.2609167E-002  0.2201794E+03  0.7818608E-02  0.1133749E+00
         -2   -1    0    0    0  501 -0.00000000000E+00  0.00000000000E+00  0.26291821835E+02  0.26291821835E+02  0.00000000000E+00 0.  1.
          2   -1    0    0  502    0  0.00000000000E+00 -0.00000000000E+00 -0.19632466680E+04  0.19632466680E+04  0.00000000000E+00 0. -1.
          6    2    1    2  502    0  0.13334966666E+03 -0.44116361423E+02 -0.12050570207E+04  0.12246389341E+04  0.16688232026E+03 0.  0.
         24    2    3    3    0    0  0.17557084377E+02 -0.56343819565E+02 -0.46454727947E+03  0.47501622919E+03  0.79708004113E+02 0.  0.
         -6    2    1    2    0  501 -0.13334966666E+03  0.44116361423E+02 -0.73189782541E+03  0.76489955569E+03  0.17224551231E+03 0.  0.
        -24    2    5    5    0    0 -0.14357184252E+03  0.63673886619E+02 -0.46719197763E+03  0.49923385313E+03  0.79365347224E+02 0.  0.
          5    1    3    3  502    0  0.11579258228E+03  0.12227458142E+02 -0.74050974126E+03  0.74962270493E+03  0.47000000000E+01 0. -1.
        -13    1    4    4    0    0  0.53759446837E+01  0.20548231676E+02 -0.10797708041E+03  0.11004626527E+03  0.00000000000E+00 0.  1.
         14    1    4    4    0    0  0.12181139693E+02 -0.76892051241E+02 -0.35657019906E+03  0.36496996393E+03  0.00000000000E+00 0. -1.
         -5    1    5    5    0  501  0.10222175861E+02 -0.19557525196E+02 -0.26470584778E+03  0.26566570257E+03  0.47000000000E+01 0.  1.
         13    1    6    6    0    0 -0.15138267062E+02  0.42783568170E+02 -0.13734536585E+03  0.14464905929E+03  0.00000000000E+00 0. -1.
        -14    1    6    6    0    0 -0.12843357546E+03  0.20890318449E+02 -0.32984661179E+03  0.35458479383E+03  0.00000000000E+00 0.  1.
</event>
<event>
12    1  0.2609167E-002  0.2497383E+03  0.7818608E-02  0.1113470E+00
         -1   -1    0    0    0  501 -0.00000000000E+00  0.00000000000E+00  0.69793380313E+02  0.69793380313E+02  0.00000000000E+00 0.  1.
          1   -1    0    0  502    0  0.00000000000E+00 -0.00000000000E+00 -0.90481805230E+03  0.90481805230E+03  0.00000000000E+00 0. -1.
          6    2    1    2  502    0  0.17408460221E+03  0.44495163252E+02 -0.36560069527E+03  0.44351809635E+03  0.17538291003E+03 0.  0.
         24    2    3    3    0    0  0.77542207800E+02  0.71143606907E+02 -0.28583762281E+03  0.31539779665E+03  0.81843855735E+02 0.  0.
         -6    2    1    2    0  501 -0.17408460221E+03 -0.44495163252E+02 -0.46942397672E+03  0.53109333626E+03  0.17151091401E+03 0.  0.
        -24    2    5    5    0    0 -0.83404986384E+02 -0.15960705403E+02 -0.39111167488E+03  0.40783785107E+03  0.78436182127E+02 0.  0.
          5    1    3    3  502    0  0.96542394411E+02 -0.26648443655E+02 -0.79763072457E+02  0.12812029970E+03  0.47000000000E+01 0. -1.
        -11    1    4    4    0    0  0.88938334742E+02  0.48103113016E+02 -0.17972254571E+03  0.20621379756E+03  0.00000000000E+00 0.  1.
         12    1    4    4    0    0 -0.11396126942E+02  0.23040493892E+02 -0.10611507711E+03  0.10918399909E+03  0.00000000000E+00 0. -1.
         -5    1    5    5    0  501 -0.90679615827E+02 -0.28534457849E+02 -0.78312301837E+02  0.12325548519E+03  0.47000000000E+01 0.  1.
         11    1    6    6    0    0 -0.47803450305E+02  0.11342480374E+02 -0.82801930929E+02  0.96280743078E+02  0.00000000000E+00 0. -1.
        -12    1    6    6    0    0 -0.35601536079E+02 -0.27303185776E+02 -0.30830974395E+03  0.31155710799E+03  0.00000000000E+00 0.  1.
</event>
<event>
12    1  0.2609167E-002  0.2327766E+03  0.7818608E-02  0.1124701E+00
          2   -1    0    0  502    0  0.00000000000E+00  0.00000000000E+00  0.16335047442E+04  0.16335047442E+04  0.00000000000E+00 0. -1.
         -2   -1    0    0    0  501 -0.00000000000E+00 -0.00000000000E+00 -0.33667643840E+02  0.33667643840E+02  0.00000000000E+00 0.  1.
          6    2    1    2  502    0 -0.13911446811E+03 -0.67681735584E+02  0.90153720093E+03  0.93113142737E+03  0.17407687328E+03 0.  0.
         24    2    3    3    0    0 -0.55978972414E+02 -0.10310134445E+03  0.56432197298E+03  0.58198638688E+03  0.80531563680E+02 0.  0.
         -6    2    1    2    0  501  0.13911446811E+03  0.67681735584E+02  0.69829989945E+03  0.73604096069E+03  0.17378116604E+03 0.  0.
        -24    2    5    5    0    0  0.16819012350E+03  0.47473927628E+02  0.64295378971E+03  0.67016963839E+03  0.72083819671E+02 0.  0.
          5    1    3    3  502    0 -0.83135495698E+02  0.35419608867E+02  0.33721522795E+03  0.34914504049E+03  0.47000000000E+01 0. -1.
        -13    1    4    4    0    0 -0.55514202292E+02 -0.42005364599E+02  0.18287238820E+03  0.19567469862E+03  0.00000000000E+00 0.  1.
         14    1    4    4    0    0 -0.46477012140E+00 -0.61095979852E+02  0.38144958477E+03  0.38631168827E+03  0.00000000000E+00 0. -1.
         -5    1    5    5    0  501 -0.29075655394E+02  0.20207807956E+02  0.55346109740E+02  0.65871322306E+02  0.47000000000E+01 0.  1.
         11    1    6    6    0    0  0.75076013496E+02 -0.85501379296E+01  0.34058739037E+03  0.34886857574E+03  0.00000000000E+00 0. -1.
        -12    1    6    6    0    0  0.93114110009E+02  0.56024065558E+02  0.30236639935E+03  0.32130106265E+03  0.00000000000E+00 0.  1.
</event>
<event>
12    1  0.2609167E-002  0.2739336E+03  0.7818608E-02  0.1099049E+00
          2   -1    0    0  502    0  0.00000000000E+00  0.00000000000E+00  0.51644731279E+03  0.51644731279E+03  0.00000000000E+00 0. -1.
         -2   -1    0    0    0  501 -0.00000000000E+00 -0.00000000000E+00 -0.16796240102E+03  0.16796240102E+03  0.00000000000E+00 0.  1.
          6    2    1    2  502    0  0.15694021867E+03 -0.14358523368E+03  0.29966944574E+03  0.40567371781E+03  0.17182094473E+03 0.  0.
         24    2    3    3    0    0  0.15806140388E+03 -0.11319959724E+03  0.16490647977E+03  0.26744314610E+03  0.80833984915E+02 0.  0.
         -6    2    1    2    0  501 -0.15694021867E+03  0.14358523368E+03  0.48815466028E+02  0.27873599600E+03  0.17338931390E+03 0.  0.
        -24    2    5    5    0    0 -0.10433720986E+03  0.81769701093E+02  0.98123054181E+02  0.18364885253E+03  0.80785084602E+02 0.  0.
          5    1    3    3  502    0 -0.11211852034E+01 -0.30385636439E+02  0.13476296597E+03  0.13823057171E+03  0.47000000000E+01 0. -1.
        -13    1    4    4    0    0  0.84400158080E+02 -0.11868257284E+02  0.69477156753E+02  0.10996052712E+03  0.00000000000E+00 0.  1.
         14    1    4    4    0    0  0.73661245798E+02 -0.10133133995E+03  0.95429323013E+02  0.15748261898E+03  0.00000000000E+00 0. -1.
         -5    1    5    5    0  501 -0.52603008814E+02  0.61815532582E+02 -0.49307588153E+02  0.95087143475E+02  0.47000000000E+01 0.  1.
         11    1    6    6    0    0 -0.65580810576E+02  0.84370023647E+02  0.40756870161E+02  0.11436899086E+03  0.00000000000E+00 0. -1.
        -12    1    6    6    0    0 -0.38756399285E+02 -0.26003225538E+01  0.57366184020E+02  0.69279861662E+02  0.00000000000E+00 0.  1.
</event>
<event>
12    1  0.2609167E-002  0.1773307E+03  0.7818608E-02  0.1170412E+00
          1   -1    0    0  502    0  0.00000000000E+00  0.00000000000E+00  0.18318366403E+03  0.18318366403E+03  0.00000000000E+00 0. -1.
         -1   -1    0    0    0  501 -0.00000000000E+00 -0.00000000000E+00 -0.18358502307E+03  0.18358502307E+03  0.00000000000E+00 0.  1.
          6    2    1    2  502    0 -0.19913451032E+01  0.40625075380E+02 -0.46922695436E+02  0.18424508431E+03  0.17346512485E+03 0.  0.
         24    2    3    3    0    0  0.29004915145E+02 -0.24098188087E+02  0.14038610058E+02  0.89967622785E+02  0.80467899224E+02 0.  0.
         -6    2    1    2    0  501  0.19913451032E+01 -0.40625075380E+02  0.46521336394E+02  0.18252360280E+03  0.17174477760E+03 0.  0.
        -24    2    5    5    0    0 -0.14976536753E+02 -0.10142070134E+02  0.91012244764E+02  0.12579042422E+03  0.84928463367E+02 0.  0.
          5    1    3    3  502    0 -0.30996260248E+02  0.64723263467E+02 -0.60961305494E+02  0.94277461521E+02  0.47000000000E+01 0. -1.
        -11    1    4    4    0    0  0.15197946887E+02 -0.46942463381E+02 -0.13965913733E+02  0.51279812833E+02  0.00000000000E+00 0.  1.
         12    1    4    4    0    0  0.13806968257E+02  0.22844275293E+02  0.28004523790E+02  0.38687809952E+02  0.00000000000E+00 0. -1.
         -5    1    5    5    0  501  0.16967881857E+02 -0.30483005246E+02 -0.44490908370E+02  0.56733178574E+02  0.47000000000E+01 0.  1.
         13    1    6    6    0    0 -0.27125661715E+01 -0.45222249207E+02  0.29948962348E+02  0.54307920088E+02  0.00000000000E+00 0. -1.
        -14    1    6    6    0    0 -0.12263970582E+02  0.35080179073E+02  0.61063282416E+02  0.71482504137E+02  0.00000000000E+00 0.  1.
</event>
<event>
12    1  0.2609167E-002  0.2390999E+03  0.7818608E-02  0.1120394E+00
         -1   -1    0    0    0  501 -0.00000000000E+00  0.00000000000E+00  0.81238109522E+02  0.81238109522E+02  0.00000000000E+00 0. -1.
          1   -1    0    0  502    0  0.00000000000E+00 -0.00000000000E+00 -0.11712217620E+04  0.11712217620E+04  0.00000000000E+00 0.  1.
          6    2    1    2  502    0 -0.15300220702E+03 -0.65487536766E+02 -0.14913438700E+03  0.28166631350E+03  0.17145423282E+03 0.  0.
         24    2    3    3    0    0 -0.59676032112E+01 -0.40014586930E+01 -0.50006840179E+02  0.93921611708E+02  0.79176771350E+02 0.  0.
         -6    2    1    2    0  501  0.15300220702E+03  0.65487536766E+02 -0.94084926550E+03  0.97079355804E+03  0.17188513350E+03 0.  0.
        -24    2    5    5    0    0  0.23411623047E+02 -0.87025951769E+01 -0.23953184706E+03  0.25373978980E+03  0.79903291037E+02 0.  0.
          5    1    3    3  502    0 -0.14703460380E+03 -0.61486078073E+02 -0.99127546818E+02  0.18774470179E+03  0.47000000000E+01 0. -1.
        -11    1    4    4    0    0 -0.58970073527E+00 -0.24451262793E+02 -0.64034530678E+02  0.68546576270E+02  0.00000000000E+00 0.  1.
         12    1    4    4    0    0 -0.53779024759E+01  0.20449804100E+02  0.14027690499E+02  0.25375035438E+02  0.00000000000E+00 0. -1.
         -5    1    5    5    0  501  0.12959058397E+03  0.74190131943E+02 -0.70131741844E+03  0.71705376824E+03  0.47000000000E+01 0.  1.
         11    1    6    6    0    0 -0.23002257671E+02  0.75727048905E+01 -0.30215493621E+02  0.38722419502E+02  0.00000000000E+00 0. -1.
        -12    1    6    6    0    0  0.46413880718E+02 -0.16275300067E+02 -0.20931635343E+03  0.21501737030E+03  0.00000000000E+00 0.  1.
</event>
<event>
12    1  0.2609167E-002  0.1963824E+03  0.7818608E-02  0.1152828E+00
          2   -1    0    0  502    0  0.00000000000E+00  0.00000000000E+00  0.10625129857E+04  0.10625129857E+04  0.00000000000E+00 0. -1.
         -2   -1    0    0    0  501 -0.00000000000E+00 -0.00000000000E+00 -0.36923737100E+02  0.36923737100E+02  0.00000000000E+00 0.  1.
          6    2    1    2  502    0 -0.20167894252E+02 -0.95321085344E+02  0.43680047340E+03  0.47819569499E+03  0.16847437750E+03 0.  0.
         24    2    3    3    0    0 -0.12927429124E+02 -0.45969346746E+02  0.40825688295E+03  0.42053422611E+03  0.88854114085E+02 0.  0.
         -6    2    1    2    0  501  0.20167894252E+02  0.95321085344E+02  0.58878877520E+03  0.62124102781E+03  0.17255532320E+03 0.  0.
        -24    2    5    5    0    0 -0.53240870704E+02  0.52092229557E+02  0.41001479158E+03  0.42315062430E+03  0.73458361231E+02 0.  0.
          5    1    3    3  502    0 -0.72404651277E+01 -0.49351738598E+02  0.28543590455E+02  0.57661468885E+02  0.47000000000E+01 0. -1.
        -11    1    4    4    0    0 -0.48487660999E+02 -0.86672281212E+01  0.20791809287E+03  0.21367289827E+03  0.00000000000E+00 0.  1.
         12    1    4    4    0    0  0.35560231875E+02 -0.37302118625E+02  0.20033879007E+03  0.20686132783E+03  0.00000000000E+00 0. -1.
         -5    1    5    5    0  501  0.73408764956E+02  0.43228855786E+02  0.17877398362E+03  0.19809040352E+03  0.47000000000E+01 0.  1.
         11    1    6    6    0    0 -0.27669948099E+02  0.30048655773E+02  0.36288307626E+03  0.36517485508E+03  0.00000000000E+00 0. -1.
        -12    1    6    6    0    0 -0.25570922605E+02  0.22043573785E+02  0.47131715318E+02  0.57975769221E+02  0.00000000000E+00 0.  1.
</event>
<event>
12    1  0.2609167E-002  0.2518672E+03  0.7818608E-02  0.1112130E+00
          2   -1    0    0  502    0  0.00000000000E+00  0.00000000000E+00  0.33860213294E+04  0.33860213294E+04  0.00000000000E+00 0. -1.
         -2   -1    0    0    0  501 -0.00000000000E+00 -0.00000000000E+00 -0.18905140818E+02  0.18905140818E+02  0.00000000000E+00 0.  1.
          6    2    1    2  502    0 -0.44991595147E+02  0.18372159722E+03  0.15533243063E+04  0.15743147681E+04  0.17283726311E+03 0.  0.
         24    2    3    3    0    0  0.29276785447E+02  0.10149097667E+03  0.10651681565E+04  0.10737189392E+04  0.84448861692E+02 0.  0.
         -6    2    1    2    0  501  0.44991595147E+02 -0.18372159722E+03  0.18137918823E+04  0.18306117021E+04  0.15975087751E+03 0.  0.
        -24    2    5    5    0    0  0.69891866113E+01 -0.13949829590E+03  0.16280313952E+04  0.16358581861E+04  0.77699151323E+02 0.  0.
          5    1    3    3  502    0 -0.74268380593E+02  0.82230620547E+02  0.48815614985E+03  0.50059582893E+03  0.47000000000E+01 0. -1.
        -11    1    4    4    0    0  0.13995324085E+02  0.71022422127E+01  0.27567568065E+02  0.31721944292E+02  0.00000000000E+00 0.  1.
         12    1    4    4    0    0  0.15281461362E+02  0.94388734460E+02  0.10376005884E+04  0.10419969949E+04  0.00000000000E+00 0. -1.
         -5    1    5    5    0  501  0.38002408535E+02 -0.44223301319E+02  0.18576048710E+03  0.19475351602E+03  0.47000000000E+01 0.  1.
         11    1    6    6    0    0  0.11912488292E+02 -0.69425411630E+02  0.12030513236E+04  0.12051117302E+04  0.00000000000E+00 0. -1.
        -12    1    6    6    0    0 -0.49233016808E+01 -0.70072884271E+02  0.42498007159E+03  0.43074645588E+03  0.00000000000E+00 0.  1.
</event>
<event>
12    1  0.2609167E-002  0.2554332E+03  0.7818608E-02  0.1109919E+00
          1   -1    0    0  502    0  0.00000000000E+00  0.00000000000E+00  0.95127777548E+03  0.95127777548E+03  0.00000000000E+00 0.  1.
         -1   -1    0    0    0  501 -0.00000000000E+00 -0.00000000000E+00 -0.68597380941E+02  0.68597380941E+02  0.00000000000E+00 0. -1.
          6    2    1    2  502    0 -0.18617831605E+03 -0.17224915422E+02  0.44849620997E+03  0.51652574187E+03  0.17518826610E+03 0.  0.
         24    2    3    3    0    0 -0.84090710736E+02 -0.33749671560E+02  0.36295009321E+03  0.38223063840E+03  0.78467845700E+02 0.  0.
         -6    2    1    2    0  501  0.18617831605E+03  0.17224915422E+02  0.43418418456E+03  0.50334941454E+03  0.17287470584E+03 0.  0.
        -24    2    5    5    0    0  0.90109708036E+02  0.39891083638E+02  0.11194164007E+03  0.16629559079E+03  0.73567891762E+02 0.  0.
          5    1    3    3  502    0 -0.10208760531E+03  0.16524756138E+02  0.85546116765E+02  0.13429510347E+03  0.47000000000E+01 0. -1.
        -11    1    4    4    0    0  0.86574786636E+01  0.80930407052E+01  0.12152047817E+02  0.16974142418E+02  0.00000000000E+00 0.  1.
         12    1    4    4    0    0 -0.92748189400E+02 -0.41842712266E+02  0.35079804539E+03  0.36525649598E+03  0.00000000000E+00 0. -1.
         -5    1    5    5    0  501  0.96068608011E+02 -0.22666168216E+02  0.32224254449E+03  0.33705382375E+03  0.47000000000E+01 0.  1.
         11    1    6    6    0    0  0.94031999162E+02  0.27038940164E+02  0.11647247810E+03  0.15211495425E+03  0.00000000000E+00 0. -1.
        -12    1    6    6    0    0 -0.39222911258E+01  0.12852143474E+02 -0.45308380260E+01  0.14180636543E+02  0.00000000000E+00 0.  1.
</event>
<event>
12    1  0.2609167E-002  0.1789744E+03  0.7818608E-02  0.1168799E+00
         -2   -1    0    0    0  501 -0.00000000000E+00  0.00000000000E+00  0.27774732799E+02  0.27774732799E+02  0.00000000000E+00 0. -1.
          2   -1    0    0  502    0  0.00000000000E+00 -0.00000000000E+00 -0.12310749473E+04  0.12310749473E+04  0.00000000000E+00 0.  1.
          6    2    1    2  502    0 -0.40409671351E+02  0.25325310509E+02 -0.75959985831E+03  0.78037914621E+03  0.17241042368E+03 0.  0.
         24    2    3    3    0    0  0.14329519115E+02  0.16213430245E+02 -0.17233848442E+03  0.19048303959E+03  0.78198623522E+02 0.  0.
         -6    2    1    2    0  501  0.40409671351E+02 -0.25325310509E+02 -0.44370035622E+03  0.47847053392E+03  0.17259702441E+03 0.  0.
        -24    2    5    5    0    0 -0.18069662870E+02 -0.71213924672E+02 -0.24281843560E+03  0.26422480241E+03  0.73864861454E+02 0.  0.
          5    1    3    3  502    0 -0.54739190466E+02  0.91118802638E+01 -0.58726137389E+03  0.58989610662E+03  0.47000000000E+01 0. -1.
        -13    1    4    4    0    0 -0.65110260776E+01  0.28641556118E+02 -0.16107537031E+03  0.16373150924E+03  0.00000000000E+00 0.  1.
         14    1    4    4    0    0  0.20840545192E+02 -0.12428125873E+02 -0.11263114111E+02  0.26751530351E+02  0.00000000000E+00 0. -1.
         -5    1    5    5    0  501  0.58479334221E+02  0.45888614164E+02 -0.20088192062E+03  0.21424573152E+03  0.47000000000E+01 0.  1.
         11    1    6    6    0    0  0.22843750652E+02 -0.44980473007E+02 -0.16440316438E+03  0.17196941692E+03  0.00000000000E+00 0. -1.
        -12    1    6    6    0    0 -0.40913413522E+02 -0.26233451665E+02 -0.78415271217E+02  0.92255385492E+02  0.00000000000E+00 0.  1.
</event>
<event>
12    1  0.2609167E-002  0.2104967E+03  0.7818608E-02  0.1141173E+00
          2   -1    0    0  502    0  0.00000000000E+00  0.00000000000E+00  0.69879211246E+02  0.69879211246E+02  0.00000000000E+00 0. -1.
         -2   -1    0    0    0  501 -0.00000000000E+00 -0.00000000000E+00 -0.85912270669E+03  0.85912270669E+03  0.00000000000E+00 0.  1.
          6    2    1    2  502    0  0.10156640852E+03  0.63423124602E+02 -0.63331242561E+03  0.66759762587E+03  0.17396474806E+03 0.  0.
         24    2    3    3    0    0  0.67079690759E+02  0.46284874938E+02 -0.17986127443E+03  0.21248984764E+03  0.78484920526E+02 0.  0.
         -6    2    1    2    0  501 -0.10156640852E+03 -0.63423124602E+02 -0.15593106984E+03  0.26140429206E+03  0.17227732670E+03 0.  0.
        -24    2    5    5    0    0 -0.26792788652E+02 -0.24656379506E+02 -0.15358950419E+03  0.17701514772E+03  0.80117639444E+02 0.  0.
          5    1    3    3  502    0  0.34486717757E+02  0.17138249663E+02 -0.45345115118E+03  0.45510777823E+03  0.47000000000E+01 0. -1.
        -11    1    4    4    0    0  0.40169062549E+02  0.23962608180E+02 -0.16977503492E+03  0.17610031987E+03  0.00000000000E+00 0.  1.
         12    1    4    4    0    0  0.26910628210E+02  0.22322266759E+02 -0.10086239513E+02  0.36389527771E+02  0.00000000000E+00 0. -1.
         -5    1    5    5    0  501 -0.74773619865E+02 -0.38766745096E+02 -0.23415656411E+01  0.84389144341E+02  0.47000000000E+01 0.  1.
         11    1    6    6    0    0 -0.24704173278E+02 -0.53310698991E+02 -0.93840304538E+02  0.11071734083E+03  0.00000000000E+00 0. -1.
        -12    1    6    6    0    0 -0.20886153733E+01  0.28654319485E+02 -0.59749199657E+02  0.66297806894E+02  0.00000000000E+00 0.  1.
</event>
<event>
12    1  0.2609167E-002  0.2569874E+03  0.7818608E-02  0.1108967E+00
         -4   -1    0    0    0  501 -0.00000000000E+00  0.00000000000E+00  0.40751065411E+03  0.40751065411E+03  0.00000000000E+00 0.  1.
          4   -1    0    0  502    0  0.00000000000E+00 -0.00000000000E+00 -0.16447027211E+03  0.16447027211E+03  0.00000000000E+00 0. -1.
          6    2    1    2  502    0  0.14115168245E+03 -0.12888050835E+03  0.15615537431E+03  0.30078117530E+03  0.17190355319E+03 0.  0.
         24    2    3    3    0    0  0.93834227412E+02 -0.12237284637E+03  0.44892291190E+02  0.17960834468E+03  0.80398158598E+02 0.  0.
         -6    2    1    2    0  501 -0.14115168245E+03  0.12888050835E+03  0.86885007685E+02  0.27119975091E+03  0.17165755866E+03 0.  0.
        -24    2    5    5    0    0 -0.42965723154E+02  0.83591256436E+02 -0.12644836348E+02  0.12416275287E+03  0.80143282902E+02 0.  0.
          5    1    3    3  502    0  0.47317455037E+02 -0.65076619775E+01  0.11126308312E+03  0.12117283062E+03  0.47000000000E+01 0. -1.
        -11    1    4    4    0    0  0.83317418251E+02 -0.10715983178E+03  0.66511228550E+02  0.15115808035E+03  0.00000000000E+00 0.  1.
         12    1    4    4    0    0  0.10516809162E+02 -0.15213014597E+02 -0.21618937359E+02  0.28450264333E+02  0.00000000000E+00 0. -1.
         -5    1    5    5    0  501 -0.98185959296E+02  0.45289251916E+02  0.99529844033E+02  0.14703699805E+03  0.47000000000E+01 0.  1.
         11    1    6    6    0    0 -0.45246260304E+02  0.42557858190E+02  0.26383486238E+02  0.67486915112E+02  0.00000000000E+00 0. -1.
        -12    1    6    6    0    0  0.22805371502E+01  0.41033398246E+02 -0.39028322586E+02  0.56675837755E+02  0.00000000000E+00 0.  1.
</event>
<event>
12    1  0.2609167E-002  0.2078561E+03  0.7818608E-02  0.1143275E+00
         -2   -1    0    0    0  501 -0.00000000000E+00  0.00000000000E+00  0.21507327163E+02  0.21507327163E+02  0.00000000000E+00 0.  1.
          2   -1    0    0  502    0  0.00000000000E+00 -0.00000000000E+00 -0.20172713597E+04  0.20172713597E+04  0.00000000000E+00 0. -1.
          6    2    1    2  502    0  0.38595007550E+02  0.11046855398E+03 -0.10607353957E+04  0.10807848512E+04  0.17100713090E+03 0.  0.
         24    2    3    3    0    0  0.75458257072E+02  0.12105447135E+03 -0.93930967123E+03  0.95335935382E+03  0.79014337112E+02 0.  0.
         -6    2    1    2    0  501 -0.38595007550E+02 -0.11046855398E+03 -0.93502863688E+03  0.95799383573E+03  0.17257103314E+03 0.  0.
        -24    2    5    5    0    0 -0.76338591017E+02 -0.12120432424E+03 -0.85139267443E+03  0.86549032731E+03  0.60712040727E+02 0.  0.
          5    1    3    3  502    0 -0.36863249522E+02 -0.10585917373E+02 -0.12142572446E+03  0.12742549734E+03  0.47000000000E+01 0. -1.
        -11    1    4    4    0    0  0.94152798369E+01 -0.10159572920E+02 -0.45594166994E+02  0.47651783600E+02  0.00000000000E+00 0.  1.
         12    1    4    4    0    0  0.66042977235E+02  0.13121404427E+03 -0.89371550423E+03  0.90570757022E+03  0.00000000000E+00 0. -1.
         -5    1    5    5    0  501  0.37743583467E+02  0.10735770256E+02 -0.83635962448E+02  0.92503508423E+02  0.47000000000E+01 0.  1.
         13    1    6    6    0    0 -0.53557575149E+02 -0.59987121777E+02 -0.61514682447E+03  0.62038091870E+03  0.00000000000E+00 0. -1.
        -14    1    6    6    0    0 -0.22781015868E+02 -0.61217202459E+02 -0.23624584996E+03  0.24510940860E+03  0.00000000000E+00 0.  1.
</event>
<event>
12    1  0.2609167E-002  0.1743049E+03  0.7818608E-02  0.1173431E+00
         -2   -1    0    0    0  501 -0.00000000000E+00  0.00000000000E+00  0.33469676205E+02  0.33469676205E+02  0.00000000000E+00 0. -1.
          2   -1    0    0  502    0  0.00000000000E+00 -0.00000000000E+00 -0.11440750342E+04  0.11440750342E+04  0.00000000000E+00 0.  1.
          6    2    1    2  502    0 -0.26125629842E+02  0.19115178311E+02 -0.28715828263E+03  0.33580618876E+03  0.17104963768E+03 0.  0.
         24    2    3    3    0    0 -0.42023252108E+01  0.61935380200E+02 -0.26146469274E+03  0.28106633548E+03  0.82345907816E+02 0.  0.
         -6    2    1    2    0  501  0.26125629842E+02 -0.19115178311E+02 -0.82344707535E+03  0.84173852163E+03  0.17149552272E+03 0.  0.
        -24    2    5    5    0    0 -0.44052693089E+02  0.57691690842E+01 -0.26136512595E+03  0.27472667378E+03  0.72035360380E+02 0.  0.
          5    1    3    3  502    0 -0.21923304631E+02 -0.42820201889E+02 -0.25693589892E+02  0.54739853281E+02  0.47000000000E+01 0. -1.
        -13    1    4    4    0    0  0.14615727510E+02 -0.12730068498E+02 -0.10391130121E+03  0.10570351297E+03  0.00000000000E+00 0.  1.
         14    1    4    4    0    0 -0.18818052721E+02  0.74665448698E+02 -0.15755339153E+03  0.17536282251E+03  0.00000000000E+00 0. -1.
         -5    1    5    5    0  501  0.70178322931E+02 -0.24884347395E+02 -0.56208194940E+03  0.56701184785E+03  0.47000000000E+01 0.  1.
         11    1    6    6    0    0 -0.15894913153E+02 -0.16833151394E+02 -0.19758301429E+02  0.30436716731E+02  0.00000000000E+00 0. -1.
        -12    1    6    6    0    0 -0.28157779936E+02  0.22602320478E+02 -0.24160682452E+03  0.24428995705E+03  0.00000000000E+00 0.  1.
</event>
<event>
12    1  0.2609167E-002  0.1725323E+03  0.7818608E-02  0.1175233E+00
         -2   -1    0    0    0  501 -0.00000000000E+00  0.00000000000E+00  0.19611870640E+03  0.19611870640E+03  0.00000000000E+00 0.  1.
          2   -1    0    0  502    0  0.00000000000E+00 -0.00000000000E+00 -0.20395348948E+03  0.20395348948E+03  0.00000000000E+00 0. -1.
          6    2    1    2  502    0  0.77779945578E+00 -0.18290908447E+02  0.97261334207E+02  0.19758323516E+03  0.17100937220E+03 0.  0.
         24    2    3    3    0    0 -0.51733140303E+02  0.17161763407E+01  0.10434809443E+03  0.14075019541E+03  0.79011579090E+02 0.  0.
         -6    2    1    2    0  501 -0.77779945578E+00  0.18290908447E+02 -0.10509611728E+03  0.20248896072E+03  0.17210875353E+03 0.  0.
        -24    2    5    5    0    0 -0.38842302160E+02  0.54548835242E+02 -0.10839983479E+03  0.14960656127E+03  0.78404713703E+02 0.  0.
          5    1    3    3  502    0  0.52510939759E+02 -0.20007084788E+02 -0.70867602247E+01  0.56833039744E+02  0.47000000000E+01 0. -1.
        -11    1    4    4    0    0  0.16327914330E+02 -0.15191918049E+02  0.38820046110E+02  0.44770427074E+02  0.00000000000E+00 0.  1.
         12    1    4    4    0    0 -0.68061054633E+02  0.16908094389E+02  0.65528048322E+02  0.95979768339E+02  0.00000000000E+00 0. -1.
         -5    1    5    5    0  501  0.38064502704E+02 -0.36257926795E+02  0.33037175036E+01  0.52882399444E+02  0.47000000000E+01 0.  1.
         11    1    6    6    0    0  0.11992722479E+02  0.36228900823E+02 -0.79831348546E+02  0.88483912989E+02  0.00000000000E+00 0. -1.
        -12    1    6    6    0    0 -0.50835024639E+02  0.18319934420E+02 -0.28568486241E+02  0.61122648284E+02  0.00000000000E+00 0.  1.
</event>
<event>
12    1  0.2609167E-002  0.2038693E+03  0.7818608E-02  0.1146515E+00
          2   -1    0    0  502    0  0.00000000000E+00  0.00000000000E+00  0.10358015351E+04  0.10358015351E+04  0.00000000000E+00 0. -1.
         -2   -1    0    0    0  501 -0.00000000000E+00 -0.00000000000E+00 -0.40815638627E+02  0.40815638627E+02  0.00000000000E+00 0.  1.
          6    2    1    2  502    0  0.20748356188E+01 -0.10962855428E+03  0.56883772060E+03  0.60446404181E+03  0.17256216448E+03 0.  0.
         24    2    3    3    0    0 -0.48740522267E+01 -0.60056696306E+02  0.13660699698E+03  0.16931907219E+03  0.79855578563E+02 0.  0.
         -6    2    1    2    0  501 -0.20748356188E+01  0.10962855428E+03  0.42614817591E+03  0.47215313195E+03  0.17118290604E+03 0.  0.
        -24    2    5    5    0    0 -0.15804889467E+02  0.24618453646E+02  0.33852991028E+03  0.34921297553E+03  0.80568848392E+02 0.  0.
          5    1    3    3  502    0  0.69488878456E+01 -0.49571857979E+02  0.43223072362E+03  0.43514496962E+03  0.47000000000E+01 0. -1.
        -13    1    4    4    0    0  0.29822599816E+02 -0.85318845264E+01  0.19168003745E+02  0.36463582941E+02  0.00000000000E+00 0.  1.
         14    1    4    4    0    0 -0.34696652043E+02 -0.51524811780E+02  0.11743899323E+03  0.13285548925E+03  0.00000000000E+00 0. -1.
         -5    1    5    5    0  501  0.13730053848E+02  0.85010100638E+02  0.87618265626E+02  0.12294015642E+03  0.47000000000E+01 0.  1.
         13    1    6    6    0    0  0.24353504230E+01  0.38794277473E+02  0.31034849562E+03  0.31277326553E+03  0.00000000000E+00 0. -1.
        -14    1    6    6    0    0 -0.18240239890E+02 -0.14175823827E+02  0.28181414657E+02  0.36439709995E+02  0.00000000000E+00 0.  1.
</event>
<event>
12    1  0.2609167E-002  0.1914203E+03  0.7818608E-02  0.1157187E+00
          2   -1    0    0  502    0  0.00000000000E+00  0.00000000000E+00  0.10278748162E+04  0.10278748162E+04  0.00000000000E+00 0.  1.
         -2   -1    0    0    0  501 -0.00000000000E+00 -0.00000000000E+00 -0.35651808312E+02  0.35651808312E+02  0.00000000000E+00 0. -1.
          6    2    1    2  502    0  0.26704109033E+02 -0.79710679014E+02  0.48974556864E+03  0.52568518070E+03  0.17154382944E+03 0.  0.
         24    2    3    3    0    0  0.54322353829E+02 -0.10529059570E+03  0.44165867478E+03  0.46443537299E+03  0.81245326059E+02 0.  0.
         -6    2    1    2    0  501 -0.26704109033E+02  0.79710679014E+02  0.50247743926E+03  0.53784144382E+03  0.17240342207E+03 0.  0.
        -24    2    5    5    0    0 -0.50756684673E+02 -0.48109282691E+01  0.35064875976E+03  0.36235222361E+03  0.75797065666E+02 0.  0.
          5    1    3    3  502    0 -0.27618244796E+02  0.25579916689E+02  0.48086893856E+02  0.61249807707E+02  0.47000000000E+01 0. -1.
        -11    1    4    4    0    0  0.90326277611E+01 -0.33266108849E+02  0.27659625654E+03  0.27873591713E+03  0.00000000000E+00 0.  1.
         12    1    4    4    0    0  0.45289726068E+02 -0.72024486854E+02  0.16506241824E+03  0.18569945587E+03  0.00000000000E+00 0. -1.
         -5    1    5    5    0  501  0.24052575640E+02  0.84521607283E+02  0.15182867950E+03  0.17548922022E+03  0.47000000000E+01 0.  1.
         13    1    6    6    0    0  0.51212678908E+00 -0.25683010316E+02  0.45742166696E+02  0.52461653680E+02  0.00000000000E+00 0. -1.
        -14    1    6    6    0    0 -0.51268811462E+02  0.20872082047E+02  0.30490659306E+03  0.30989056993E+03  0.00000000000E+00 0.  1.
</event>
<event>
12    1  0.2609167E-002  0.3077479E+03  0.7818608E-02  0.1081430E+00
         -1   -1    0    0    0  501 -0.00000000000E+00  0.00000000000E+00  0.41017269715E+02  0.41017269715E+02  0.00000000000E+00 0. -1.
          1   -1    0    0  502    0  0.00000000000E+00 -0.00000000000E+00 -0.24735039853E+04  0.24735039853E+04  0.00000000000E+00 0.  1.
          6    2    1    2  502    0  0.23045703042E+03 -0.10936459362E+03 -0.15410542348E+04  0.15715130003E+04  0.17243520003E+03 0.  0.
         24    2    3    3    0    0  0.10973908780E+03 -0.12375721675E+03 -0.97943680934E+03  0.99686859557E+03  0.84214115526E+02 0.  0.
         -6    2    1    2    0  501 -0.23045703042E+03  0.10936459362E+03 -0.89143248077E+03  0.94300825473E+03  0.17187682657E+03 0.  0.
        -24    2    5    5    0    0 -0.21110292062E+03  0.13122114175E+03 -0.86398378851E+03  0.90266211527E+03  0.80916477964E+02 0.  0.
          5    1    3    3  502    0  0.12071794262E+03  0.14392623129E+02 -0.56161742545E+03  0.57464440469E+03  0.47000000000E+01 0. -1.
        -13    1    4    4    0    0  0.50190427713E+02 -0.79391525979E+02 -0.32708353253E+03  0.34030241064E+03  0.00000000000E+00 0.  1.
         14    1    4    4    0    0  0.59548660089E+02 -0.44365690770E+02 -0.65235327680E+03  0.65656618493E+03  0.00000000000E+00 0. -1.
         -5    1    5    5    0  501 -0.19354109805E+02 -0.21856548132E+02 -0.27448692266E+02  0.40346139465E+02  0.47000000000E+01 0.  1.
         13    1    6    6    0    0 -0.77380610972E+02  0.43017774750E+02 -0.18579209752E+03  0.20580814221E+03  0.00000000000E+00 0. -1.
        -14    1    6    6    0    0 -0.13372230964E+03  0.88203367001E+02 -0.67819169098E+03  0.69685397306E+03  0.00000000000E+00 0.  1.
</event>
<event>
12    1  0.2609167E-002  0.1902246E+03  0.7818608E-02  0.1158259E+00
          2   -1    0    0  502    0  0.00000000000E+00  0.00000000000E+00  0.26935489715E+03  0.26935489715E+03  0.00000000000E+00 0. -1.
         -2   -1    0    0    0  501 -0.00000000000E+00 -0.00000000000E+00 -0.13478392673E+03  0.13478392673E+03  0.00000000000E+00 0.  1.
          6    2    1    2  502    0  0.78828304364E+01 -0.81582324447E+02  0.78587580018E+02  0.20514844147E+03  0.17085684250E+03 0.  0.
         24    2    3    3    0    0  0.33873795299E+02 -0.30753949221E+02 -0.15944074514E+02  0.94616194181E+02  0.81269743992E+02 0.  0.
         -6    2    1    2    0  501 -0.78828304364E+01  0.81582324447E+02  0.55983390405E+02  0.19899038241E+03  0.17246801910E+03 0.  0.
        -24    2    5    5    0    0  0.39206960843E+02 -0.17144695706E+02  0.49325204024E+02  0.89304948572E+02  0.60920207798E+02 0.  0.
          5    1    3    3  502    0 -0.25990964863E+02 -0.50828375226E+02  0.94531654532E+02  0.11053224729E+03  0.47000000000E+01 0. -1.
        -11    1    4    4    0    0  0.43532430886E+02 -0.45993947513E+02  0.88584193271E+01  0.63945190121E+02  0.00000000000E+00 0.  1.
         12    1    4    4    0    0 -0.96586355865E+01  0.15239998292E+02 -0.24802493841E+02  0.30671004060E+02  0.00000000000E+00 0. -1.
         -5    1    5    5    0  501 -0.47089791280E+02  0.98727020152E+02  0.66581863812E+01  0.10968543384E+03  0.47000000000E+01 0.  1.
         11    1    6    6    0    0  0.26968742005E+02  0.20773585722E+02  0.28209665296E+02  0.44211312186E+02  0.00000000000E+00 0. -1.
        -12    1    6    6    0    0  0.12238218838E+02 -0.37918281428E+02  0.21115538727E+02  0.45093636386E+02  0.00000000000E+00 0.  1.
</event>
<event>
12    1  0.2609167E-002  0.3739152E+03  0.7818608E-02  0.1053206E+00
          1   -1    0    0  502    0  0.00000000000E+00  0.00000000000E+00  0.10175330854E+04  0.10175330854E+04  0.00000000000E+00 0. -1.
         -1   -1    0    0    0  501 -0.00000000000E+00 -0.00000000000E+00 -0.13753510836E+03  0.13753510836E+03  0.00000000000E+00 0.  1.
          6    2    1    2  502    0  0.10000650175E+03 -0.31614808984E+03  0.42230150197E+03  0.56414513829E+03  0.17311921728E+03 0.  0.
         24    2    3    3    0    0  0.10449608844E+03 -0.27675134684E+03  0.42528423401E+03  0.52410457837E+03  0.79424107799E+02 0.  0.
         -6    2    1    2    0  501 -0.10000650175E+03  0.31614808984E+03  0.45769647503E+03  0.59092305544E+03  0.17249080869E+03 0.  0.
        -24    2    5    5    0    0 -0.64370340192E+02  0.27807195066E+03  0.44936747497E+03  0.53790239317E+03  0.77073384327E+02 0.  0.
          5    1    3    3  502    0 -0.44895866901E+01 -0.39396743005E+02 -0.29827320422E+01  0.40040559917E+02  0.47000000000E+01 0. -1.
        -11    1    4    4    0    0  0.10589183837E+02 -0.59131420818E+01  0.11469337482E+01  0.12182426714E+02  0.00000000000E+00 0.  1.
         12    1    4    4    0    0  0.93906904600E+02 -0.27083820476E+03  0.42413730026E+03  0.51192215166E+03  0.00000000000E+00 0. -1.
         -5    1    5    5    0  501 -0.35636161554E+02  0.38076139184E+02  0.83290000625E+01  0.53020662269E+02  0.47000000000E+01 0.  1.
         13    1    6    6    0    0 -0.57731945268E+02  0.13530086315E+03  0.17561332858E+03  0.22908370140E+03  0.00000000000E+00 0. -1.
        -14    1    6    6    0    0 -0.66383949236E+01  0.14277108751E+03  0.27375414639E+03  0.30881869177E+03  0.00000000000E+00 0.  1.
</event>
<event>
12    1  0.2609167E-002  0.2172285E+03  0.7818608E-02  0.1135966E+00
         -2   -1    0    0    0  501 -0.00000000000E+00  0.00000000000E+00  0.53376661659E+02  0.53376661659E+02  0.00000000000E+00 0.  1.
          2   -1    0    0  502    0  0.00000000000E+00 -0.00000000000E+00 -0.90777782624E+03  0.90777782624E+03  0.00000000000E+00 0. -1.
          6    2    1    2  502    0 -0.13096848311E+03  0.21448006182E+02 -0.50445628556E+03  0.54915268730E+03  0.17169673669E+03 0.  0.
         24    2    3    3    0    0 -0.98746919221E+02  0.64352567294E+02 -0.45117317493E+03  0.47338851092E+03  0.81530617080E+02 0.  0.
         -6    2    1    2    0  501  0.13096848311E+03 -0.21448006182E+02 -0.34994487902E+03  0.41200180060E+03  0.17225360607E+03 0.  0.
        -24    2    5    5    0    0  0.71250495569E+02  0.26091708134E+02 -0.30349192562E+03  0.32252426513E+03  0.78467460319E+02 0.  0.
          5    1    3    3  502    0 -0.32221563892E+02 -0.42904561113E+02 -0.53283110628E+02  0.75764176377E+02  0.47000000000E+01 0. -1.
        -13    1    4    4    0    0  0.33574863961E+01 -0.11338055297E+02 -0.15150609195E+02  0.19218875404E+02  0.00000000000E+00 0.  1.
         14    1    4    4    0    0 -0.10210440562E+03  0.75690622591E+02 -0.43602256574E+03  0.45416963552E+03  0.00000000000E+00 0. -1.
         -5    1    5    5    0  501  0.59717987545E+02 -0.47539714316E+02 -0.46452953396E+02  0.89477535465E+02  0.47000000000E+01 0.  1.
         11    1    6    6    0    0  0.18319560569E+02 -0.26904333182E+02 -0.11993725375E+03  0.12427547739E+03  0.00000000000E+00 0. -1.
        -12    1    6    6    0    0  0.52930935000E+02  0.52996041316E+02 -0.18355467188E+03  0.19824878775E+03  0.00000000000E+00 0.  1.
</event>
<event>
12    1  0.2609167E-002  0.2558999E+03  0.7818608E-02  0.1109632E+00
          1   -1    0    0  502    0  0.00000000000E+00  0.00000000000E+00  0.52945418130E+03  0.52945418130E+03  0.00000000000E+00 0.  1.
         -1   -1    0    0    0  501 -0.00000000000E+00 -0.00000000000E+00 -0.15541775581E+03  0.15541775581E+03  0.00000000000E+00 0. -1.
          6    2    1    2  502    0  0.15902042641E+03 -0.10613401523E+03  0.34159668409E+03  0.42665494731E+03  0.16968860975E+03 0.  0.
         24    2    3    3    0    0  0.44760501430E+02 -0.98708539267E+02  0.23164782850E+03  0.26784276580E+03  0.79574823475E+02 0.  0.
         -6    2    1    2    0  501 -0.15902042641E+03  0.10613401523E+03  0.32439741403E+02  0.25821698979E+03  0.17050440402E+03 0.  0.
        -24    2    5    5    0    0 -0.32458230058E+02  0.49892912099E+02  0.60871192307E+02  0.11675502095E+03  0.79897393501E+02 0.  0.
          5    1    3    3  502    0  0.11425992498E+03 -0.74254759641E+01  0.10994885559E+03  0.15881218151E+03  0.47000000000E+01 0. -1.
        -13    1    4    4    0    0  0.44501083221E+02 -0.44603133829E+02  0.18815219136E+03  0.19842135235E+03  0.00000000000E+00 0.  1.
         14    1    4    4    0    0  0.25941820897E+00 -0.54105405438E+02  0.43495637143E+02  0.69421413454E+02  0.00000000000E+00 0. -1.
         -5    1    5    5    0  501 -0.12656219636E+03  0.56241103132E+02 -0.28431450904E+02  0.14146196884E+03  0.47000000000E+01 0.  1.
         11    1    6    6    0    0  0.14228609670E+02  0.13140868071E+02 -0.11958559805E+02  0.22762752457E+02  0.00000000000E+00 0. -1.
        -12    1    6    6    0    0 -0.46686839727E+02  0.36752044028E+02  0.72829752113E+02  0.93992268495E+02  0.00000000000E+00 0.  1.
</event>
<event>
12    1  0.2609167E-002  0.2020743E+03  0.7818608E-02  0.1148001E+00
          2   -1    0    0  502    0  0.00000000000E+00  0.00000000000E+00  0.26020565830E+04  0.26020565830E+04  0.00000000000E+00 0. -1.
         -2   -1    0    0    0  501 -0.00000000000E+00 -0.00000000000E+00 -0.16355459893E+02  0.16355459893E+02  0.00000000000E+00 0.  1.
          6    2    1    2  502    0  0.96027951493E+02  0.48583580986E+02  0.10231584859E+04  0.10427250231E+04  0.16982477687E+03 0.  0.
         24    2    3    3    0    0  0.93507463505E+02  0.22141732880E+02  0.39741983684E+03  0.41640523973E+03  0.78847288416E+02 0.  0.
         -6    2    1    2    0  501 -0.96027951493E+02 -0.48583580986E+02  0.15625426373E+04  0.15756870198E+04  0.17224505586E+03 0.  0.
        -24    2    5    5    0    0 -0.91771853822E+01 -0.14724918796E+02  0.11424678483E+04  0.11453680882E+04  0.79587870081E+02 0.  0.
          5    1    3    3  502    0  0.25204879883E+01  0.26441848106E+02  0.62573864901E+03  0.62631978338E+03  0.47000000000E+01 0. -1.
        -11    1    4    4    0    0  0.56540719882E+02 -0.17601707255E+02  0.29076094489E+03  0.29672984376E+03  0.00000000000E+00 0.  1.
         12    1    4    4    0    0  0.36966743623E+02  0.39743440136E+02  0.10665889195E+03  0.11967539597E+03  0.00000000000E+00 0. -1.
         -5    1    5    5    0  501 -0.86850766111E+02 -0.33858662190E+02  0.42007478901E+03  0.43031893165E+03  0.47000000000E+01 0.  1.
         13    1    6    6    0    0  0.83237978342E+01 -0.41807630696E+02  0.41445083836E+03  0.41663732551E+03  0.00000000000E+00 0. -1.
        -14    1    6    6    0    0 -0.17500983216E+02  0.27082711899E+02  0.72801700992E+03  0.72873076265E+03  0.00000000000E+00 0.  1.
</event>
<event>
12    1  0.2609167E-002  0.1790330E+03  0.7818608E-02  0.1168742E+00
          3   -1    0    0  502    0  0.00000000000E+00  0.00000000000E+00  0.47173597959E+02  0.47173597959E+02  0.00000000000E+00 0. -1.
         -3   -1    0    0    0  501 -0.00000000000E+00 -0.00000000000E+00 -0.68037250467E+03  0.68037250467E+03  0.00000000000E+00 0.  1.
          6    2    1    2  502    0  0.11196876269E+01  0.31873374684E+02 -0.32069849189E+03  0.36546959561E+03  0.17234656046E+03 0.  0.
         24    2    3    3    0    0 -0.32872005002E+02 -0.39631185902E+02 -0.18408323989E+03  0.20750075555E+03  0.80738619846E+02 0.  0.
         -6    2    1    2    0  501 -0.11196876269E+01 -0.31873374684E+02 -0.31250041482E+03  0.36207650702E+03  0.18007143571E+03 0.  0.
        -24    2    5    5    0    0  0.42118098383E+02 -0.38960092249E+02 -0.90206343533E+02  0.13545684363E+03  0.83183826991E+02 0.  0.
          5    1    3    3  502    0  0.33991692629E+02  0.71504560586E+02 -0.13661525200E+03  0.15796884006E+03  0.47000000000E+01 0. -1.
        -13    1    4    4    0    0 -0.41413621038E+02 -0.51460215701E+02 -0.86521828517E+02  0.10885434588E+03  0.00000000000E+00 0.  1.
         14    1    4    4    0    0  0.85416160358E+01  0.11829029798E+02 -0.97561411373E+02  0.98646409664E+02  0.00000000000E+00 0. -1.
         -5    1    5    5    0  501 -0.43237786010E+02  0.70867175653E+01 -0.22229407129E+03  0.22661966339E+03  0.47000000000E+01 0.  1.
         11    1    6    6    0    0 -0.11357202289E+02 -0.39305490743E+01  0.10642826315E+02  0.16053193198E+02  0.00000000000E+00 0. -1.
        -12    1    6    6    0    0  0.53475300673E+02 -0.35029543175E+02 -0.10084916985E+03  0.11940365043E+03  0.00000000000E+00 0.  1.
</event>
<event>
12    1  0.2609167E-002  0.1763291E+03  0.7818608E-02  0.1171404E+00
          2   -1    0    0  502    0  0.00000000000E+00  0.00000000000E+00  0.30877772033E+03  0.30877772033E+03  0.00000000000E+00 0.  1.
         -2   -1    0    0    0  501 -0.00000000000E+00 -0.00000000000E+00 -0.11304080656E+03  0.11304080656E+03  0.00000000000E+00 0. -1.
          6    2    1    2  502    0 -0.40801621748E+02  0.33081929655E+02  0.29719071663E+02  0.18176493666E+03  0.17145285816E+03 0.  0.
         24    2    3    3    0    0  0.20062606176E+02 -0.24980292073E+02 -0.12230665270E+02  0.87650398669E+02  0.80662755069E+02 0.  0.
         -6    2    1    2    0  501  0.40801621748E+02 -0.33081929655E+02  0.16601784212E+03  0.24005359023E+03  0.16524108410E+03 0.  0.
        -24    2    5    5    0    0  0.42194724135E+02  0.57773341105E+01  0.22934520788E+02  0.91706328854E+02  0.77912041264E+02 0.  0.
          5    1    3    3  502    0 -0.60864227924E+02  0.58062221728E+02  0.41949736932E+02  0.94114537992E+02  0.47000000000E+01 0. -1.
        -13    1    4    4    0    0  0.79490386051E+01 -0.33230765818E+02  0.28417117396E+02  0.44441012283E+02  0.00000000000E+00 0.  1.
         14    1    4    4    0    0  0.12113567571E+02  0.82504737457E+01 -0.40647782665E+02  0.43209386387E+02  0.00000000000E+00 0. -1.
         -5    1    5    5    0  501 -0.13931023866E+01 -0.38859263766E+02  0.14308332133E+03  0.14834726137E+03  0.47000000000E+01 0.  1.
         11    1    6    6    0    0  0.49703248086E+02 -0.15574720305E+02 -0.87007405746E+01  0.52808026563E+02  0.00000000000E+00 0. -1.
        -12    1    6    6    0    0 -0.75085239510E+01  0.21352054416E+02  0.31635261362E+02  0.38898302291E+02  0.00000000000E+00 0.  1.
</event>
<event>
12    1  0.2609167E-002  0.2582627E+03  0.7818608E-02  0.1108192E+00
          1   -1    0    0  502    0  0.00000000000E+00  0.00000000000E+00  0.10876718719E+03  0.10876718719E+03  0.00000000000E+00 0. -1.
         -1   -1    0    0    0  501 -0.00000000000E+00 -0.00000000000E+00 -0.68720904732E+03  0.68720904732E+03  0.00000000000E+00 0.  1.
          6    2    1    2  502    0 -0.15272390271E+03  0.11546885569E+03 -0.41899726229E+03  0.49178039181E+03  0.17213831901E+03 0.  0.
         24    2    3    3    0    0 -0.25713872972E+02  0.96220480273E+02 -0.22403214844E+03  0.25825194980E+03  0.81142356105E+02 0.  0.
         -6    2    1    2    0  501  0.15272390271E+03 -0.11546885569E+03 -0.15944459784E+03  0.30419584270E+03  0.17451327697E+03 0.  0.
        -24    2    5    5    0    0  0.69724803226E+02 -0.12892440159E+03 -0.14065858526E+03  0.21791197109E+03  0.78852647565E+02 0.  0.
          5    1    3    3  502    0 -0.12701002974E+03  0.19248375421E+02 -0.19496511385E+03  0.23352844201E+03  0.47000000000E+01 0. -1.
        -11    1    4    4    0    0 -0.17475998974E+02  0.19509000598E+02 -0.14668157330E+03  0.14900166304E+03  0.00000000000E+00 0.  1.
         12    1    4    4    0    0 -0.82378739983E+01  0.76711479675E+02 -0.77350575140E+02  0.10925028676E+03  0.00000000000E+00 0. -1.
         -5    1    5    5    0  501  0.82999099481E+02  0.13455545896E+02 -0.18786012586E+02  0.86283871603E+02  0.47000000000E+01 0.  1.
         13    1    6    6    0    0  0.24072638578E+02 -0.24625714081E+02  0.30470816937E+01  0.34571699827E+02  0.00000000000E+00 0. -1.
        -14    1    6    6    0    0  0.45652164648E+02 -0.10429868751E+03 -0.14370566695E+03  0.18334027126E+03  0.00000000000E+00 0.  1.
</event>
<event>
12    1  0.2609167E-002  0.1914326E+03  0.7818608E-02  0.1157176E+00
          2   -1    0    0  502    0  0.00000000000E+00  0.00000000000E+00  0.92443030446E+03  0.92443030446E+03  0.00000000000E+00 0. -1.
         -2   -1    0    0    0  501 -0.00000000000E+00 -0.00000000000E+00 -0.58851755682E+02  0.58851755682E+02  0.00000000000E+00 0.  1.
          6    2    1    2  502    0  0.84270283357E+02  0.49165290259E+01  0.15155187785E+03  0.24397860675E+03  0.17155738387E+03 0.  0.
         24    2    3    3    0    0  0.11587002673E+03  0.32022639516E+02  0.95219046471E+02  0.17377345810E+03  0.81726589263E+02 0.  0.
         -6    2    1    2    0  501 -0.84270283357E+02 -0.49165290259E+01  0.71402667093E+03  0.73930345339E+03  0.17207514775E+03 0.  0.
        -24    2    5    5    0    0 -0.10344144940E+03  0.36585231900E+02  0.35779348534E+03  0.38011812200E+03  0.66595764680E+02 0.  0.
          5    1    3    3  502    0 -0.31599743373E+02 -0.27106110490E+02  0.56332831375E+02  0.70205148657E+02  0.47000000000E+01 0. -1.
        -11    1    4    4    0    0  0.12823824912E+02 -0.15178518411E+02 -0.70780425728E+01  0.21093520171E+02  0.00000000000E+00 0.  1.
         12    1    4    4    0    0  0.10304620182E+03  0.47201157927E+02  0.10229708904E+03  0.15267993793E+03  0.00000000000E+00 0. -1.
         -5    1    5    5    0  501  0.19171166044E+02 -0.41501760925E+02  0.35623318559E+03  0.35918533139E+03  0.47000000000E+01 0.  1.
         11    1    6    6    0    0 -0.10615406412E+02  0.26273944708E+02  0.14480707343E+03  0.14755370391E+03  0.00000000000E+00 0. -1.
        -12    1    6    6    0    0 -0.92826042989E+02  0.10311287192E+02  0.21298641191E+03  0.23256441809E+03  0.00000000000E+00 0.  1.
</event>
<event>
12    1  0.2609167E-002  0.1821838E+03  0.7818608E-02  0.1165706E+00
         -1   -1    0    0    0  501 -0.00000000000E+00  0.00000000000E+00  0.12779011047E+03  0.12779011047E+03  0.00000000000E+00 0.  1.
          1   -1    0    0  502    0  0.00000000000E+00 -0.00000000000E+00 -0.35638101008E+03  0.35638101008E+03  0.00000000000E+00 0. -1.
          6    2    1    2  502    0 -0.58860404995E+02 -0.62371432971E+01  0.11366983582E+02  0.18342066827E+03  0.17323534282E+03 0.  0.
         24    2    3    3    0    0 -0.98594172085E+02 -0.34139634560E+02  0.24040766428E+02  0.13302189807E+03  0.78933779204E+02 0.  0.
         -6    2    1    2    0  501  0.58860404995E+02  0.62371432971E+01 -0.23995788319E+03  0.30075045228E+03  0.17136977448E+03 0.  0.
        -24    2    5    5    0    0  0.28115294088E+02 -0.43790444188E+02 -0.64886876024E+02  0.11603453822E+03  0.80905096357E+02 0.  0.
          5    1    3    3  502    0  0.39733767089E+02  0.27902491263E+02 -0.12673782846E+02  0.50398770198E+02  0.47000000000E+01 0. -1.
        -13    1    4    4    0    0 -0.50639618836E+02 -0.58127336218E+02  0.11372235998E+02  0.77926157119E+02  0.00000000000E+00 0.  1.
         14    1    4    4    0    0 -0.47954553248E+02  0.23987701657E+02  0.12668530430E+02  0.55095740954E+02  0.00000000000E+00 0. -1.
         -5    1    5    5    0  501  0.30745110907E+02  0.50027587485E+02 -0.17507100717E+03  0.18471591405E+03  0.47000000000E+01 0.  1.
         11    1    6    6    0    0  0.37286174579E+02 -0.55952483278E+02 -0.72606566468E+02  0.98957832909E+02  0.00000000000E+00 0. -1.
        -12    1    6    6    0    0 -0.91708804908E+01  0.12162039090E+02  0.77196904446E+01  0.17076705313E+02  0.00000000000E+00 0.  1.
</event>
<event>
12    1  0.2609167E-002  0.1878972E+03  0.7818608E-02  0.1160372E+00
          2   -1    0    0  502    0  0.00000000000E+00  0.00000000000E+00  0.10414845018E+04  0.10414845018E+04  0.00000000000E+00 0.  1.
         -2   -1    0    0    0  501 -0.00000000000E+00 -0.00000000000E+00 -0.40762539576E+02  0.40762539576E+02  0.00000000000E+00 0. -1.
          6    2    1    2  502    0  0.52978234343E+02  0.53123148446E+02  0.27774253060E+03  0.33518442301E+03  0.17198523749E+03 0.  0.
         24    2    3    3    0    0  0.88693839176E+02  0.30016258526E+02  0.12816430501E+03  0.17960399892E+03  0.84047215698E+02 0.  0.
         -6    2    1    2    0  501 -0.52978234343E+02 -0.53123148446E+02  0.72297943159E+03  0.74706261832E+03  0.17255299181E+03 0.  0.
        -24    2    5    5    0    0  0.21265297873E+02 -0.45161473593E+01  0.23933543448E+03  0.25532249532E+03  0.86229449375E+02 0.  0.
          5    1    3    3  502    0 -0.35715604833E+02  0.23106889920E+02  0.14957822559E+03  0.15558042409E+03  0.47000000000E+01 0. -1.
        -11    1    4    4    0    0  0.64511325999E+02 -0.18583545975E+02  0.93828070539E+02  0.11537229383E+03  0.00000000000E+00 0.  1.
         12    1    4    4    0    0  0.24182513177E+02  0.48599804501E+02  0.34336234470E+02  0.64231705089E+02  0.00000000000E+00 0. -1.
         -5    1    5    5    0  501 -0.74243532215E+02 -0.48607001087E+02  0.48364399711E+03  0.49174012301E+03  0.47000000000E+01 0.  1.
         11    1    6    6    0    0  0.28659546923E+02 -0.38210052278E+02  0.18414267268E+03  0.19023643612E+03  0.00000000000E+00 0. -1.
        -12    1    6    6    0    0 -0.73942490501E+01  0.33693904919E+02  0.55192761792E+02  0.65086059198E+02  0.00000000000E+00 0.  1.
</event>
<event>
12    1  0.2609167E-002  0.1768854E+03  0.7818608E-02  0.1170852E+00
          2   -1    0    0  502    0  0.00000000000E+00  0.00000000000E+00  0.63863129866E+03  0.63863129866E+03  0.00000000000E+00 0.  1.
         -2   -1    0    0    0  501 -0.00000000000E+00 -0.00000000000E+00 -0.60263391196E+02  0.60263391196E+02  0.00000000000E+00 0. -1.
          6    2    1    2  502    0 -0.14356917072E+02 -0.58504900047E+02  0.14381140469E+03  0.23125186877E+03  0.17078279273E+03 0.  0.
         24    2    3    3    0    0  0.17996007187E+02 -0.10534348698E+02  0.15254084904E+03  0.17254770620E+03  0.77904887589E+02 0.  0.
         -6    2    1    2    0  501  0.14356917072E+02  0.58504900047E+02  0.43455650277E+03  0.46764282108E+03  0.16193057035E+03 0.  0.
        -24    2    5    5    0    0  0.61239875241E+02  0.20620052687E+02  0.19088055970E+03  0.21657842963E+03  0.79343047685E+02 0.  0.
          5    1    3    3  502    0 -0.32352924259E+02 -0.47970551350E+02 -0.87294443500E+01  0.58704162574E+02  0.47000000000E+01 0. -1.
        -11    1    4    4    0    0 -0.71671125028E+01 -0.28872113467E+02  0.18710819326E+02  0.35143437475E+02  0.00000000000E+00 0.  1.
         12    1    4    4    0    0  0.25163119690E+02  0.18337764770E+02  0.13383002972E+03  0.13740426872E+03  0.00000000000E+00 0. -1.
         -5    1    5    5    0  501 -0.46882958169E+02  0.37884847360E+02  0.24367594306E+03  0.25106439145E+03  0.47000000000E+01 0.  1.
         13    1    6    6    0    0 -0.14424497381E+02  0.16155477748E+02  0.19330430102E+02  0.29029831448E+02  0.00000000000E+00 0. -1.
        -14    1    6    6    0    0  0.75664372622E+02  0.44645749391E+01  0.17155012960E+03  0.18754859818E+03  0.00000000000E+00 0.  1.
</event>
<event>
12    1  0.2609167E-002  0.2476076E+03  0.7818608E-02  0.1114826E+00
          2   -1    0    0  502    0  0.00000000000E+00  0.00000000000E+00  0.19654802195E+03  0.19654802195E+03  0.00000000000E+00 0. -1.
         -2   -1    0    0    0  501 -0.00000000000E+00 -0.00000000000E+00 -0.37532982678E+03  0.37532982678E+03  0.00000000000E+00 0.  1.
          6    2    1    2  502    0 -0.17594388262E+03 -0.20917628197E+02 -0.20708763654E+03  0.32325405616E+03  0.17382203144E+03 0.  0.
         24    2    3    3    0    0 -0.55919804860E+02  0.43154499965E+02 -0.60077427938E+02  0.12289161386E+03  0.80645619644E+02 0.  0.
         -6    2    1    2    0  501  0.17594388262E+03  0.20917628197E+02  0.28305831718E+02  0.24862379257E+03  0.17210105497E+03 0.  0.
        -24    2    5    5    0    0  0.17781558215E+03  0.61975757859E+02  0.29358997944E+02  0.20724176230E+03  0.81411433234E+02 0.  0.
          5    1    3    3  502    0 -0.12002407776E+03 -0.64072128162E+02 -0.14701020860E+03  0.20036244230E+03  0.47000000000E+01 0. -1.
        -11    1    4    4    0    0 -0.76189178520E+02  0.35746550215E+02 -0.55557583856E+02  0.10084270871E+03  0.00000000000E+00 0.  1.
         12    1    4    4    0    0  0.20269373660E+02  0.74079497500E+01 -0.45198440823E+01  0.22048905156E+02  0.00000000000E+00 0. -1.
         -5    1    5    5    0  501 -0.18716995336E+01 -0.41058129662E+02 -0.10531662263E+01  0.41382030274E+02  0.47000000000E+01 0.  1.
         11    1    6    6    0    0  0.17870934467E+03  0.55377357266E+02  0.10664038991E+02  0.18739638016E+03  0.00000000000E+00 0. -1.
        -12    1    6    6    0    0 -0.89376251829E+00  0.65984005932E+01  0.18694958952E+02  0.19845382134E+02  0.00000000000E+00 0.  1.
</event>
<event>
12    1  0.2609167E-002  0.1733970E+03  0.7818608E-02  0.1174351E+00
         -1   -1    0    0    0  501 -0.00000000000E+00  0.00000000000E+00  0.35065276301E+03  0.35065276301E+03  0.00000000000E+00 0.  1.
          1   -1    0    0  502    0  0.00000000000E+00 -0.00000000000E+00 -0.86549311980E+02  0.86549311980E+02  0.00000000000E+00 0. -1.
          6    2    1    2  502    0 -0.16592563144E+02 -0.10667236079E+01  0.15426663720E+03  0.23331987330E+03  0.17425130379E+03 0.  0.
         24    2    3    3    0    0 -0.65779955136E+01 -0.41044950448E+02  0.16690209514E+03  0.18995750501E+03  0.80620012190E+02 0.  0.
         -6    2    1    2    0  501  0.16592563144E+02  0.10667236079E+01  0.10983681383E+03  0.20388220169E+03  0.17096015747E+03 0.  0.
        -24    2    5    5    0    0  0.38581551845E+02 -0.39590930944E+01  0.14011141673E+03  0.16583728037E+03  0.79790876059E+02 0.  0.
          5    1    3    3  502    0 -0.10014567631E+02  0.39978226840E+02 -0.12635457944E+02  0.43362368289E+02  0.47000000000E+01 0. -1.
        -13    1    4    4    0    0 -0.37773377937E+02 -0.28814878311E+02  0.13715763655E+03  0.14515282484E+03  0.00000000000E+00 0.  1.
         14    1    4    4    0    0  0.31195382423E+02 -0.12230072138E+02  0.29744458587E+02  0.44804680176E+02  0.00000000000E+00 0. -1.
         -5    1    5    5    0  501 -0.21988988701E+02  0.50258167024E+01 -0.30274602895E+02  0.38044921318E+02  0.47000000000E+01 0.  1.
         13    1    6    6    0    0  0.39372596319E+01  0.49487793665E+01 -0.98297083647E+01  0.11688267500E+02  0.00000000000E+00 0. -1.
        -14    1    6    6    0    0  0.34644292213E+02 -0.89078724609E+01  0.14994112509E+03  0.15414901287E+03  0.00000000000E+00 0.  1.
</event>
<event>
12    1  0.2609167E-002  0.1783673E+03  0.7818608E-02  0.1169393E+00
         -1   -1    0    0    0  501 -0.00000000000E+00  0.00000000000E+00  0.11378712101E+03  0.11378712101E+03  0.00000000000E+00 0.  1.
          1   -1    0    0  502    0  0.00000000000E+00 -0.00000000000E+00 -0.28002662145E+03  0.28002662145E+03  0.00000000000E+00 0. -1.
          6    2    1    2  502    0 -0.36060674550E+01 -0.45730945378E+02 -0.90922231229E+02  0.20044018405E+03  0.17264151344E+03 0.  0.
         24    2    3    3    0    0 -0.57214242272E+02  0.29705254848E+01 -0.22380249990E+02  0.10061151651E+03  0.79621028149E+02 0.  0.
         -6    2    1    2    0  501  0.36060674550E+01  0.45730945378E+02 -0.75317269211E+02  0.19337355841E+03  0.17209392482E+03 0.  0.
        -24    2    5    5    0    0 -0.41808424781E+02 -0.44179292087E+01  0.61272120400E+01  0.87389223461E+02  0.76366688867E+02 0.  0.
          5    1    3    3  502    0  0.53608174817E+02 -0.48701470863E+02 -0.68541981238E+02  0.99828667543E+02  0.47000000000E+01 0. -1.
        -11    1    4    4    0    0  0.34264381963E+01 -0.17857972222E+02  0.17390205089E+02  0.25160820408E+02  0.00000000000E+00 0.  1.
         12    1    4    4    0    0 -0.60640680468E+02  0.20828497707E+02 -0.39770455079E+02  0.75450696097E+02  0.00000000000E+00 0. -1.
         -5    1    5    5    0  501  0.45414492236E+02  0.50148874587E+02 -0.81444481251E+02  0.10598433494E+03  0.47000000000E+01 0.  1.
         11    1    6    6    0    0  0.15987016616E+01  0.17772757013E+00 -0.30418150768E+02  0.30460652163E+02  0.00000000000E+00 0. -1.
        -12    1    6    6    0    0 -0.43407126443E+02 -0.45956567789E+01  0.36545362808E+02  0.56928571297E+02  0.00000000000E+00 0.  1.
</event>
<event>
12    1  0.2609167E-002  0.1989418E+03  0.7818608E-02  0.1150635E+00
         -1   -1    0    0    0  501 -0.00000000000E+00  0.00000000000E+00  0.20141793200E+02  0.20141793200E+02  0.00000000000E+00 0. -1.
          1   -1    0    0  502    0  0.00000000000E+00 -0.00000000000E+00 -0.22077445501E+04  0.22077445501E+04  0.00000000000E+00 0.  1.
          6    2    1    2  502    0 -0.74988216657E+02  0.66933799182E+02 -0.14631709854E+04  0.14766328791E+04  0.17167399708E+03 0.  0.
         24    2    3    3    0    0 -0.11457308258E+03  0.44387590133E+02 -0.91849411445E+03  0.93003405290E+03  0.78959811695E+02 0.  0.
         -6    2    1    2    0  501  0.74988216657E+02 -0.66933799182E+02 -0.72443177155E+03  0.75125346416E+03  0.17168869990E+03 0.  0.
        -24    2    5    5    0    0  0.34549649050E+02  0.20666603523E+02 -0.22598261491E+03  0.24353035059E+03  0.81351721953E+02 0.  0.
          5    1    3    3  502    0  0.39584865923E+02  0.22546209049E+02 -0.54467687091E+03  0.54659882625E+03  0.47000000000E+01 0. -1.
        -13    1    4    4    0    0 -0.10458793228E+03  0.53988855225E+02 -0.89540956160E+03  0.90311223836E+03  0.00000000000E+00 0.  1.
         14    1    4    4    0    0 -0.99851503004E+01 -0.96012650920E+01 -0.23084552847E+02  0.26921814539E+02  0.00000000000E+00 0. -1.
         -5    1    5    5    0  501  0.40438567606E+02 -0.87600402705E+02 -0.49844915664E+03  0.50772311357E+03  0.47000000000E+01 0.  1.
         11    1    6    6    0    0  0.26960041219E+02 -0.25776871139E+02 -0.57018461784E+02  0.68135129650E+02  0.00000000000E+00 0. -1.
        -12    1    6    6    0    0  0.75896078311E+01  0.46443474662E+02 -0.16896415313E+03  0.17539522094E+03  0.00000000000E+00 0.  1.
</event>
<event>
12    1  0.2609167E-002  0.2961654E+03  0.7818608E-02  0.1087173E+00
         -2   -1    0    0    0  501 -0.00000000000E+00  0.00000000000E+00  0.21417979987E+03  0.21417979987E+03  0.00000000000E+00 0.  1.
          2   -1    0    0  502    0  0.00000000000E+00 -0.00000000000E+00 -0.52937072849E+03  0.52937072849E+03  0.00000000000E+00 0. -1.
          6    2    1    2  502    0 -0.42617774614E+02 -0.23728209887E+03 -0.33438314295E+03  0.44652435125E+03  0.17161829978E+03 0.  0.
         24    2    3    3    0    0  0.85965467603E+01 -0.22959497343E+03 -0.28951161368E+03  0.37783998076E+03  0.78474990712E+02 0.  0.
         -6    2    1    2    0  501  0.42617774614E+02  0.23728209887E+03  0.19192214326E+02  0.29702617711E+03  0.17244459876E+03 0.  0.
        -24    2    5    5    0    0  0.66434071892E+02  0.22331355524E+03 -0.22292113859E+02  0.24697244886E+03  0.78841754757E+02 0.  0.
          5    1    3    3  502    0 -0.51214321374E+02 -0.76871254434E+01 -0.44871529263E+02  0.68684370491E+02  0.47000000000E+01 0. -1.
        -11    1    4    4    0    0  0.34975892611E+02 -0.20028944715E+03 -0.23998100683E+03  0.31453149181E+03  0.00000000000E+00 0.  1.
         12    1    4    4    0    0 -0.26379345850E+02 -0.29305526275E+02 -0.49530606857E+02  0.63308488952E+02  0.00000000000E+00 0. -1.
         -5    1    5    5    0  501 -0.23816297278E+02  0.13968543632E+02  0.41484328185E+02  0.50053728254E+02  0.47000000000E+01 0.  1.
         13    1    6    6    0    0  0.44132344320E+02  0.35769798887E+02 -0.10026311345E+00  0.56808030949E+02  0.00000000000E+00 0. -1.
        -14    1    6    6    0    0  0.22301727571E+02  0.18754375635E+03 -0.22191850746E+02  0.19016441791E+03  0.00000000000E+00 0.  1.
</event>
<event>
12    1  0.2609167E-002  0.1980018E+03  0.7818608E-02  0.1151436E+00
          2   -1    0    0  502    0  0.00000000000E+00  0.00000000000E+00  0.11708360792E+04  0.11708360792E+04  0.00000000000E+00 0. -1.
         -2   -1    0    0    0  501 -0.00000000000E+00 -0.00000000000E+00 -0.37684752292E+02  0.37684752292E+02  0.00000000000E+00 0.  1.
          6    2    1    2  502    0 -0.62389993443E+02  0.75368551171E+02  0.36273185694E+03  0.41285572802E+03  0.17117979535E+03 0.  0.
         24    2    3    3    0    0  0.25467158754E+02  0.54745802438E+02  0.11159194806E+03  0.14595214845E+03  0.72135897485E+02 0.  0.
         -6    2    1    2    0  501  0.62389993443E+02 -0.75368551171E+02  0.77041946993E+03  0.79566510343E+03  0.17310074344E+03 0.  0.
        -24    2    5    5    0    0  0.37922208199E+02 -0.11304531457E+03  0.67371879806E+03  0.68893497200E+03  0.80728184431E+02 0.  0.
          5    1    3    3  502    0 -0.87857152198E+02  0.20622748732E+02  0.25113990888E+03  0.26690357957E+03  0.47000000000E+01 0. -1.
        -13    1    4    4    0    0 -0.96335283145E+00  0.17162830435E+01 -0.10265937092E+02  0.10452901059E+02  0.00000000000E+00 0.  1.
         14    1    4    4    0    0  0.26430511586E+02  0.53029519395E+02  0.12185788515E+03  0.13549924739E+03  0.00000000000E+00 0. -1.
         -5    1    5    5    0  501  0.24467785244E+02  0.37676763399E+02  0.96700671870E+02  0.10673013143E+03  0.47000000000E+01 0.  1.
         11    1    6    6    0    0  0.59151310271E+02 -0.99358531943E+02  0.59909450332E+03  0.61015180019E+03  0.00000000000E+00 0. -1.
        -12    1    6    6    0    0 -0.21229102072E+02 -0.13686782627E+02  0.74624294742E+02  0.78783171802E+02  0.00000000000E+00 0.  1.
</event>
<event>
12    1  0.2609167E-002  0.2866269E+03  0.7818608E-02  0.1092124E+00
         -2   -1    0    0    0  501 -0.00000000000E+00  0.00000000000E+00  0.12767995426E+04  0.12767995426E+04  0.00000000000E+00 0.  1.
          2   -1    0    0  502    0  0.00000000000E+00 -0.00000000000E+00 -0.65736560948E+02  0.65736560948E+02  0.00000000000E+00 0. -1.
          6    2    1    2  502    0  0.18258854892E+03  0.14148117924E+03  0.50604184758E+03  0.58114405486E+03  0.16820986510E+03 0.  0.
         24    2    3    3    0    0  0.18963246252E+03  0.16274957468E+03  0.45661252967E+03  0.52667104473E+03  0.80246446666E+02 0.  0.
         -6    2    1    2    0  501 -0.18258854892E+03 -0.14148117924E+03  0.70502113406E+03  0.76139204868E+03  0.17119448018E+03 0.  0.
        -24    2    5    5    0    0 -0.49282559823E+02 -0.18590763328E+02  0.15104568673E+03  0.17848259834E+03  0.79163446401E+02 0.  0.
          5    1    3    3  502    0 -0.70439136006E+01 -0.21268395440E+02  0.49429317911E+02  0.54473010129E+02  0.47000000000E+01 0. -1.
        -13    1    4    4    0    0  0.70787108759E+02  0.96724404876E+02  0.27345211690E+03  0.29856738854E+03  0.00000000000E+00 0.  1.
         14    1    4    4    0    0  0.11884535376E+03  0.66025169808E+02  0.18316041277E+03  0.22810365619E+03  0.00000000000E+00 0. -1.
         -5    1    5    5    0  501 -0.13330598909E+03 -0.12289041592E+03  0.55397544733E+03  0.58290945034E+03  0.47000000000E+01 0.  1.
         13    1    6    6    0    0 -0.13656667268E+02 -0.44833731574E+02  0.52009528572E+02  0.70011135614E+02  0.00000000000E+00 0. -1.
        -14    1    6    6    0    0 -0.35625892555E+02  0.26242968247E+02  0.99036158159E+02  0.10847146272E+03  0.00000000000E+00 0.  1.
</event>
<event>
12    1  0.2609167E-002  0.2132732E+03  0.7818608E-02  0.1139000E+00
          2   -1    0    0  502    0  0.00000000000E+00  0.00000000000E+00  0.15660632115E+04  0.15660632115E+04  0.00000000000E+00 0. -1.
         -2   -1    0    0    0  501 -0.00000000000E+00 -0.00000000000E+00 -0.50552571540E+02  0.50552571540E+02  0.00000000000E+00 0.  1.
          6    2    1    2  502    0  0.14261711626E+02  0.13611924018E+03  0.12938298360E+04  0.13120262494E+04  0.16936762007E+03 0.  0.
         24    2    3    3    0    0  0.40406376721E+02  0.99789234430E+02  0.52167873182E+03  0.53856465989E+03  0.79452042488E+02 0.  0.
         -6    2    1    2    0  501 -0.14261711626E+02 -0.13611924018E+03  0.22168080400E+03  0.30458953364E+03  0.15779911652E+03 0.  0.
        -24    2    5    5    0    0  0.12299953296E+02 -0.13553164722E+03  0.11644614375E+03  0.19595118393E+03  0.79479845509E+02 0.  0.
          5    1    3    3  502    0 -0.26144665095E+02  0.36330005752E+02  0.77215110414E+03  0.77346158951E+03  0.47000000000E+01 0. -1.
        -11    1    4    4    0    0  0.20897695511E+02 -0.67006428341E+01  0.49716980845E+02  0.54345105358E+02  0.00000000000E+00 0.  1.
         12    1    4    4    0    0  0.19508681210E+02  0.10648987726E+03  0.47196175098E+03  0.48421955453E+03  0.00000000000E+00 0. -1.
         -5    1    5    5    0  501 -0.26561664922E+02 -0.58759296554E+00  0.10523466025E+03  0.10863834971E+03  0.47000000000E+01 0.  1.
         13    1    6    6    0    0  0.54874868725E+01  0.69785629177E+01  0.24895472173E+02  0.26430992930E+02  0.00000000000E+00 0. -1.
        -14    1    6    6    0    0  0.68124664233E+01 -0.14251021013E+03  0.91550671574E+02  0.16952019100E+03  0.00000000000E+00 0.  1.
</event>
<event>
12    1  0.2609167E-002  0.1993735E+03  0.7818608E-02  0.1150269E+00
          1   -1    0    0  502    0  0.00000000000E+00  0.00000000000E+00  0.13646042640E+04  0.13646042640E+04  0.00000000000E+00 0. -1.
         -1   -1    0    0    0  501 -0.00000000000E+00 -0.00000000000E+00 -0.32364972439E+02  0.32364972439E+02  0.00000000000E+00 0.  1.
          6    2    1    2  502    0 -0.99628846812E+02  0.70260870438E+01  0.44705584908E+03  0.48974064758E+03  0.17323884287E+03 0.  0.
         24    2    3    3    0    0  0.76522805705E+01 -0.98499345795E+01  0.26416468230E+03  0.27698419225E+03  0.82350985254E+02 0.  0.
         -6    2    1    2    0  501  0.99628846812E+02 -0.70260870438E+01  0.88518344251E+03  0.90722858889E+03  0.17186830013E+03 0.  0.
        -24    2    5    5    0    0  0.51997675806E+02 -0.52520030265E+02  0.72744183745E+03  0.73622294194E+03  0.85967909714E+02 0.  0.
          5    1    3    3  502    0 -0.10728112738E+03  0.16876021623E+02  0.18289116679E+03  0.21275645534E+03  0.47000000000E+01 0. -1.
        -13    1    4    4    0    0  0.24977813782E+01 -0.19358885927E+02  0.88353879525E+01  0.21425906198E+02  0.00000000000E+00 0.  1.
         14    1    4    4    0    0  0.51544991922E+01  0.95089513472E+01  0.25532929434E+03  0.25555828605E+03  0.00000000000E+00 0. -1.
         -5    1    5    5    0  501  0.47631171007E+02  0.45493943221E+02  0.15774160506E+03  0.17100564695E+03  0.47000000000E+01 0.  1.
         13    1    6    6    0    0 -0.23886177873E+02 -0.17254125853E+02  0.16978392121E+03  0.17232189139E+03  0.00000000000E+00 0. -1.
        -14    1    6    6    0    0  0.75883853679E+02 -0.35265904412E+02  0.55765791625E+03  0.56390105055E+03  0.00000000000E+00 0.  1.
</event>
<event>
12    1  0.2609167E-002  0.2803334E+03  0.7818608E-02  0.1095507E+00
          2   -1    0    0  502    0  0.00000000000E+00  0.00000000000E+00  0.11364193862E+04  0.11364193862E+04  0.00000000000E+00 0.  1.
         -2   -1    0    0    0  501 -0.00000000000E+00 -0.00000000000E+00 -0.84928677423E+02  0.84928677423E+02  0.00000000000E+00 0. -1.
          6    2    1    2  502    0 -0.21705652522E+03  0.28270593021E+02  0.79146013828E+03  0.84019983409E+03  0.17780283786E+03 0.  0.
         24    2    3    3    0    0 -0.11716411709E+03 -0.64537231018E+01  0.63924856017E+03  0.65479561126E+03  0.79683687008E+02 0.  0.
         -6    2    1    2    0  501  0.21705652522E+03 -0.28270593021E+02  0.26003057053E+03  0.38114822957E+03  0.17246829773E+03 0.  0.
        -24    2    5    5    0    0  0.20163959574E+03 -0.33934265860E+02  0.14203190276E+03  0.26191931319E+03  0.81354804704E+02 0.  0.
          5    1    3    3  502    0 -0.99892408129E+02  0.34724316123E+02  0.15221157811E+03  0.18540422283E+03  0.47000000000E+01 0. -1.
        -11    1    4    4    0    0 -0.11602418027E+03 -0.15278750784E+02  0.63346255911E+03  0.64418154617E+03  0.00000000000E+00 0.  1.
         12    1    4    4    0    0 -0.11399368208E+01  0.88250276821E+01  0.57860010618E+01  0.10614065095E+02  0.00000000000E+00 0. -1.
         -5    1    5    5    0  501  0.15416929473E+02  0.56636728390E+01  0.11799866778E+03  0.11922891638E+03  0.47000000000E+01 0.  1.
         11    1    6    6    0    0  0.13178314735E+03 -0.22571198475E+02  0.13627444711E+03  0.19091092652E+03  0.00000000000E+00 0. -1.
        -12    1    6    6    0    0  0.69856448391E+02 -0.11363067385E+02  0.57574556431E+01  0.71008386672E+02  0.00000000000E+00 0.  1.
</event>
<event>
12    1  0.2609167E-002  0.1779649E+03  0.7818608E-02  0.1169787E+00
         -1   -1    0    0    0  501 -0.00000000000E+00  0.00000000000E+00  0.22378719267E+02  0.22378719267E+02  0.00000000000E+00 0.  1.
          1   -1    0    0  502    0  0.00000000000E+00 -0.00000000000E+00 -0.16719539700E+04  0.16719539700E+04  0.00000000000E+00 0. -1.
          6    2    1    2  502    0  0.13089008764E+02  0.38100841892E+02 -0.11650058702E+04  0.11788483987E+04  0.17556159366E+03 0.  0.
         24    2    3    3    0    0  0.67411908553E+01 -0.15332741807E+02 -0.10315509455E+04  0.10348770488E+04  0.81194928117E+02 0.  0.
         -6    2    1    2    0  501 -0.13089008764E+02 -0.38100841892E+02 -0.48456938056E+03  0.51548429062E+03  0.17115365316E+03 0.  0.
        -24    2    5    5    0    0 -0.16965551378E+02 -0.59878915010E+02 -0.48171400031E+03  0.49269053604E+03  0.82597044808E+02 0.  0.
          5    1    3    3  502    0  0.63478179083E+01  0.53433583699E+02 -0.13345492472E+03  0.14397134989E+03  0.47000000000E+01 0. -1.
        -13    1    4    4    0    0  0.41242024625E+02 -0.68220628114E+00 -0.37606754287E+03  0.37832283410E+03  0.00000000000E+00 0.  1.
         14    1    4    4    0    0 -0.34500833770E+02 -0.14650535526E+02 -0.65548340262E+03  0.65655421470E+03  0.00000000000E+00 0. -1.
         -5    1    5    5    0  501  0.38765426143E+01  0.21778073118E+02 -0.28553802526E+01  0.22793754578E+02  0.47000000000E+01 0.  1.
         13    1    6    6    0    0  0.18300907296E+02 -0.43204949783E+02 -0.39283892147E+03  0.39563115286E+03  0.00000000000E+00 0. -1.
        -14    1    6    6    0    0 -0.35266458674E+02 -0.16673965227E+02 -0.88875078845E+02  0.97059383181E+02  0.00000000000E+00 0.  1.
</event>
<event>
12    1  0.2609167E-002  0.2724355E+03  0.7818608E-02  0.1099894E+00
          3   -1    0    0  502    0  0.00000000000E+00  0.00000000000E+00  0.16350729107E+04  0.16350729107E+04  0.00000000000E+00 0. -1.
         -3   -1    0    0    0  501 -0.00000000000E+00 -0.00000000000E+00 -0.55507058505E+02  0.55507058505E+02  0.00000000000E+00 0.  1.
          6    2    1    2  502    0  0.88761274043E+02 -0.19103013270E+03  0.11490833150E+04  0.11807905224E+04  0.17176355151E+03 0.  0.
         24    2    3    3    0    0  0.18755901682E+02 -0.18661838613E+02  0.41071495203E+03  0.41933040500E+03  0.80319167512E+02 0.  0.
         -6    2    1    2    0  501 -0.88761274043E+02  0.19103013270E+03  0.43048253721E+03  0.50978944681E+03  0.17377856562E+03 0.  0.
        -24    2    5    5    0    0 -0.24881365851E+02  0.15385855031E+03  0.19264304705E+03  0.26068689305E+03  0.80961575845E+02 0.  0.
          5    1    3    3  502    0  0.70005372361E+02 -0.17236829408E+03  0.73836836296E+03  0.76146011740E+03  0.47000000000E+01 0. -1.
        -11    1    4    4    0    0  0.35482850016E+02  0.43374001213E+01  0.82830261121E+02  0.90214731849E+02  0.00000000000E+00 0.  1.
         12    1    4    4    0    0 -0.16726948334E+02 -0.22999238734E+02  0.32788469091E+03  0.32911567315E+03  0.00000000000E+00 0. -1.
         -5    1    5    5    0  501 -0.63879908192E+02  0.37171582383E+02  0.23783949016E+03  0.24910255376E+03  0.47000000000E+01 0.  1.
         11    1    6    6    0    0  0.36567380738E+01  0.12404219599E+03  0.17780456022E+03  0.21682781130E+03  0.00000000000E+00 0. -1.
        -12    1    6    6    0    0 -0.28538103925E+02  0.29816354328E+02  0.14838486829E+02  0.43859081755E+02  0.00000000000E+00 0.  1.
</event>
<event>
12    1  0.2609167E-002  0.1875646E+03  0.7818608E-02  0.1160676E+00
          1   -1    0    0  502    0  0.00000000000E+00  0.00000000000E+00  0.88773027249E+02  0.88773027249E+02  0.00000000000E+00 0. -1.
         -1   -1    0    0    0  501 -0.00000000000E+00 -0.00000000000E+00 -0.49514933568E+03  0.49514933568E+03  0.00000000000E+00 0.  1.
          6    2    1    2  502    0 -0.63337421464E+02  0.36000311072E+02 -0.33277076769E+03  0.38150552276E+03  0.17176271048E+03 0.  0.
         24    2    3    3    0    0  0.12834821537E+02 -0.19544195488E+02 -0.95608573010E+02  0.12624996572E+03  0.79065456369E+02 0.  0.
         -6    2    1    2    0  501  0.63337421464E+02 -0.36000311072E+02 -0.73605540734E+02  0.20241684016E+03  0.17391707852E+03 0.  0.
        -24    2    5    5    0    0  0.32746602558E+01 -0.26490738396E+02 -0.42560175047E+01  0.11006201555E+03  0.10669138185E+03 0.  0.
          5    1    3    3  502    0 -0.76172243001E+02  0.55544506560E+02 -0.23716219468E+03  0.25525555704E+03  0.47000000000E+01 0. -1.
        -13    1    4    4    0    0 -0.54916331106E+01 -0.82266384896E+01 -0.10300287165E+03  0.10347669875E+03  0.00000000000E+00 0.  1.
         14    1    4    4    0    0  0.18326454648E+02 -0.11317556998E+02  0.73942986416E+01  0.22773266976E+02  0.00000000000E+00 0. -1.
         -5    1    5    5    0  501  0.60062761208E+02 -0.95095726765E+01 -0.69349523229E+02  0.92354824608E+02  0.47000000000E+01 0.  1.
         11    1    6    6    0    0  0.10391346581E+02  0.15530921057E+02  0.42723030944E+02  0.46630965739E+02  0.00000000000E+00 0. -1.
        -12    1    6    6    0    0 -0.71166863252E+01 -0.42021659452E+02 -0.46979048449E+02  0.63431049815E+02  0.00000000000E+00 0.  1.
</event>
<event>
12    1  0.2609167E-002  0.2965959E+03  0.7818608E-02  0.1086955E+00
          4   -1    0    0  502    0  0.00000000000E+00  0.00000000000E+00  0.78007204342E+03  0.78007204342E+03  0.00000000000E+00 0.  1.
         -4   -1    0    0    0  501 -0.00000000000E+00 -0.00000000000E+00 -0.12006680409E+03  0.12006680409E+03  0.00000000000E+00 0. -1.
          6    2    1    2  502    0  0.22826709478E+03  0.65895113857E+02  0.22280447704E+03  0.37375498862E+03  0.18331100334E+03 0.  0.
         24    2    3    3    0    0  0.14236104158E+03  0.80648444569E+02  0.22155779612E+03  0.28645576208E+03  0.78728704015E+02 0.  0.
         -6    2    1    2    0  501 -0.22826709478E+03 -0.65895113857E+02  0.43720076229E+03  0.52638385889E+03  0.17171903729E+03 0.  0.
        -24    2    5    5    0    0 -0.19413804833E+03 -0.76970289262E+02  0.24861544484E+03  0.33435791461E+03  0.79822104753E+02 0.  0.
          5    1    3    3  502    0  0.85906053194E+02 -0.14753330712E+02  0.12466809223E+01  0.87299226547E+02  0.47000000000E+01 0. -1.
        -11    1    4    4    0    0  0.91030066602E+02  0.39645515152E+02  0.70625142866E+02  0.12184478119E+03  0.00000000000E+00 0.  1.
         12    1    4    4    0    0  0.51330974980E+02  0.41002929416E+02  0.15093265325E+03  0.16461098089E+03  0.00000000000E+00 0. -1.
         -5    1    5    5    0  501 -0.34129046445E+02  0.11075175405E+02  0.18858531744E+03  0.19202594428E+03  0.47000000000E+01 0.  1.
         13    1    6    6    0    0 -0.93158707203E+02 -0.85324760103E+01  0.64996317025E+02  0.11391167237E+03  0.00000000000E+00 0. -1.
        -14    1    6    6    0    0 -0.10097934113E+03 -0.68437813252E+02  0.18361912782E+03  0.22044624224E+03  0.00000000000E+00 0.  1.
</event>
<event>
12    1  0.2609167E-002  0.1962817E+03  0.7818608E-02  0.1152915E+00
          4   -1    0    0  502    0  0.00000000000E+00  0.00000000000E+00  0.26306362582E+03  0.26306362582E+03  0.00000000000E+00 0.  1.
         -4   -1    0    0    0  501 -0.00000000000E+00 -0.00000000000E+00 -0.28784413824E+03  0.28784413824E+03  0.00000000000E+00 0. -1.
          6    2    1    2  502    0  0.56602755215E+02  0.78285716307E+02 -0.20546041627E+03  0.28449740763E+03  0.17144173068E+03 0.  0.
         24    2    3    3    0    0 -0.16256078889E+02  0.75602291894E+02 -0.72109474825E+02  0.13244421280E+03  0.79760431943E+02 0.  0.
         -6    2    1    2    0  501 -0.56602755215E+02 -0.78285716307E+02  0.18067990385E+03  0.26641035643E+03  0.17028424789E+03 0.  0.
        -24    2    5    5    0    0  0.20955770520E+01 -0.27743525371E+02  0.16782092731E+03  0.18775000712E+03  0.79448768954E+02 0.  0.
          5    1    3    3  502    0  0.72858834104E+02  0.26834244132E+01 -0.13335094145E+03  0.15205319483E+03  0.47000000000E+01 0. -1.
        -13    1    4    4    0    0 -0.12550081188E+02  0.69338044322E+02 -0.89313647079E+02  0.11376377491E+03  0.00000000000E+00 0.  1.
         14    1    4    4    0    0 -0.37059977009E+01  0.62642475721E+01  0.17204172254E+02  0.18680437884E+02  0.00000000000E+00 0. -1.
         -5    1    5    5    0  501 -0.58698332267E+02 -0.50542190936E+02  0.12858976544E+02  0.78660349308E+02  0.47000000000E+01 0.  1.
         11    1    6    6    0    0  0.17314683974E+02  0.23447725235E+02  0.42613772988E+02  0.51628749240E+02  0.00000000000E+00 0. -1.
        -12    1    6    6    0    0 -0.15219106922E+02 -0.51191250606E+02  0.12520715432E+03  0.13612125788E+03  0.00000000000E+00 0.  1.
</event>
<event>
12    1  0.2609167E-002  0.2069422E+03  0.7818608E-02  0.1144011E+00
          2   -1    0    0  502    0  0.00000000000E+00  0.00000000000E+00  0.21087576757E+03  0.21087576757E+03  0.00000000000E+00 0.  1.
         -2   -1    0    0    0  501 -0.00000000000E+00 -0.00000000000E+00 -0.25976985841E+03  0.25976985841E+03  0.00000000000E+00 0. -1.
          6    2    1    2  502    0 -0.11333754261E+03  0.26148625113E+02 -0.13410595491E+03  0.24448086834E+03  0.16809919299E+03 0.  0.
         24    2    3    3    0    0 -0.49623095708E+02 -0.77446921140E+01  0.47558620937E+01  0.87914646192E+02  0.71999547966E+02 0.  0.
         -6    2    1    2    0  501  0.11333754261E+03 -0.26148625113E+02  0.85211864067E+02  0.22616475764E+03  0.17424203471E+03 0.  0.
        -24    2    5    5    0    0  0.20780635338E+02  0.25927925882E+02  0.81084298550E+02  0.11977925560E+03  0.81659748075E+02 0.  0.
          5    1    3    3  502    0 -0.63714446900E+02  0.33893317227E+02 -0.13886181700E+03  0.15656622215E+03  0.47000000000E+01 0. -1.
        -13    1    4    4    0    0  0.32890377979E+01  0.14334476417E+02  0.23389203169E+02  0.27628785870E+02  0.00000000000E+00 0.  1.
         14    1    4    4    0    0 -0.52912133505E+02 -0.22079168531E+02 -0.18633341075E+02  0.60285860322E+02  0.00000000000E+00 0. -1.
         -5    1    5    5    0  501  0.92556907270E+02 -0.52076550995E+02  0.41275655166E+01  0.10638550204E+03  0.47000000000E+01 0.  1.
         11    1    6    6    0    0 -0.93956644806E+01 -0.24603243477E+02  0.11766073641E+02  0.28845079122E+02  0.00000000000E+00 0. -1.
        -12    1    6    6    0    0  0.30176299819E+02  0.50531169359E+02  0.69318224909E+02  0.90934176480E+02  0.00000000000E+00 0.  1.
</event>
<event>
12    1  0.2609167E-002  0.2344490E+03  0.7818608E-02  0.1123547E+00
          1   -1    0    0  502    0  0.00000000000E+00  0.00000000000E+00  0.68243086274E+03  0.68243086274E+03  0.00000000000E+00 0. -1.
         -1   -1    0    0    0  501 -0.00000000000E+00 -0.00000000000E+00 -0.14492590704E+03  0.14492590704E+03  0.00000000000E+00 0.  1.
          6    2    1    2  502    0 -0.11470989497E+03 -0.10913733752E+03  0.54476433415E+03  0.59325392828E+03  0.17353018530E+03 0.  0.
         24    2    3    3    0    0  0.25779850921E+01 -0.19472360596E+02  0.13043603639E+03  0.15338317087E+03  0.78275275042E+02 0.  0.
         -6    2    1    2    0  501  0.11470989497E+03  0.10913733752E+03 -0.72593784466E+01  0.23410284150E+03  0.17228500625E+03 0.  0.
        -24    2    5    5    0    0 -0.10761276005E+02  0.36852980227E+02 -0.83110995694E+01  0.89219304916E+02  0.80106571395E+02 0.  0.
          5    1    3    3  502    0 -0.11728788007E+03 -0.89664976919E+02  0.41432829777E+03  0.43987075741E+03  0.47000000000E+01 0. -1.
        -11    1    4    4    0    0 -0.16581325095E+02  0.46854164298E+01  0.11939646816E+03  0.12063337050E+03  0.00000000000E+00 0.  1.
         12    1    4    4    0    0  0.19159310187E+02 -0.24157777026E+02  0.11039568230E+02  0.32749800371E+02  0.00000000000E+00 0. -1.
         -5    1    5    5    0  501  0.12547117098E+03  0.72284357288E+02  0.10517211228E+01  0.14488353658E+03  0.47000000000E+01 0.  1.
         13    1    6    6    0    0  0.21490043915E+02 -0.27482062189E+00 -0.28806180570E+02  0.35940138465E+02  0.00000000000E+00 0. -1.
        -14    1    6    6    0    0 -0.32251319920E+02  0.37127800849E+02  0.20495081001E+02  0.53279166451E+02  0.00000000000E+00 0.  1.
</event>
<event>
12    1  0.2609167E-002  0.3452799E+03  0.7818608E-02  0.1064569E+00
         -2   -1    0    0    0  501 -0.00000000000E+00  0.00000000000E+00  0.24940413110E+03  0.24940413110E+03  0.00000000000E+00 0. -1.
          2   -1    0    0  502    0  0.00000000000E+00 -0.00000000000E+00 -0.84928497325E+03  0.84928497325E+03  0.00000000000E+00 0.  1.
          6    2    1    2  502    0 -0.29512898602E+03  0.48920722044E+02  0.62640161082E+02  0.35218713915E+03  0.17497895808E+03 0.  0.
         24    2    3    3    0    0 -0.71617516264E+02 -0.22176139184E+01  0.61761987182E+02  0.12285033943E+03  0.78381607476E+02 0.  0.
         -6    2    1    2    0  501  0.29512898602E+03 -0.48920722044E+02 -0.66252100323E+03  0.74650196519E+03  0.16981386538E+03 0.  0.
        -24    2    5    5    0    0  0.28058986614E+03 -0.66463783851E+02 -0.50318095816E+03  0.58547251140E+03  0.80242615892E+02 0.  0.
          5    1    3    3  502    0 -0.22351146976E+03  0.51138335963E+02  0.87817389978E+00  0.22933679972E+03  0.47000000000E+01 0. -1.
        -13    1    4    4    0    0 -0.69192938454E+02 -0.27777350098E+02  0.26285334773E+02  0.79057970721E+02  0.00000000000E+00 0.  1.
         14    1    4    4    0    0 -0.24245778099E+01  0.25559736180E+02  0.35476652410E+02  0.43792368711E+02  0.00000000000E+00 0. -1.
         -5    1    5    5    0  501  0.14539119878E+02  0.17543061807E+02 -0.15934004507E+03  0.16102945379E+03  0.47000000000E+01 0.  1.
         11    1    6    6    0    0  0.15160116888E+02 -0.25478778802E+02 -0.66503366311E+02  0.72812739572E+02  0.00000000000E+00 0. -1.
        -12    1    6    6    0    0  0.26542974925E+03 -0.40985005049E+02 -0.43667759185E+03  0.51265977183E+03  0.00000000000E+00 0.  1.
</event>
<event>
12    1  0.2609167E-002  0.1963166E+03  0.7818608E-02  0.1152884E+00
          1   -1    0    0  502    0  0.00000000000E+00  0.00000000000E+00  0.26060738302E+04  0.26060738302E+04  0.00000000000E+00 0. -1.
         -1   -1    0    0    0  501 -0.00000000000E+00 -0.00000000000E+00 -0.15501441760E+02  0.15501441760E+02  0.00000000000E+00 0.  1.
          6    2    1    2  502    0  0.35379095277E+02  0.87661487560E+02  0.15788496287E+04  0.15910568680E+04  0.17250968224E+03 0.  0.
         24    2    3    3    0    0  0.77816372092E+02  0.53373303190E+02  0.13563168963E+04  0.13618855150E+04  0.78946409470E+02 0.  0.
         -6    2    1    2    0  501 -0.35379095277E+02 -0.87661487560E+02  0.10117227598E+04  0.10305184040E+04  0.17160717201E+03 0.  0.
        -24    2    5    5    0    0  0.73011663300E+01 -0.39509357072E+02  0.87246616981E+03  0.87704293280E+03  0.79954938465E+02 0.  0.
          5    1    3    3  502    0 -0.42437276815E+02  0.34288184371E+02  0.22253273240E+03  0.22917135301E+03  0.47000000000E+01 0. -1.
        -13    1    4    4    0    0 -0.81778367535E+01 -0.15361051535E+01  0.19767392648E+02  0.21447294587E+02  0.00000000000E+00 0.  1.
         14    1    4    4    0    0  0.85994208846E+02  0.54909408343E+02  0.13365495036E+04  0.13404382204E+04  0.00000000000E+00 0. -1.
         -5    1    5    5    0  501 -0.42680261607E+02 -0.48152130488E+02  0.13925658996E+03  0.15347547116E+03  0.47000000000E+01 0.  1.
         11    1    6    6    0    0 -0.17505856205E+02  0.15231226735E+02  0.41466673329E+03  0.41531547644E+03  0.00000000000E+00 0. -1.
        -12    1    6    6    0    0  0.24807022535E+02 -0.54740583807E+02  0.45779943652E+03  0.46172745637E+03  0.00000000000E+00 0.  1.
</event>
<event>
12    1  0.2609167E-002  0.1739056E+03  0.7818608E-02  0.1173835E+00
          1   -1    0    0  502    0  0.00000000000E+00  0.00000000000E+00  0.22925747853E+04  0.22925747853E+04  0.00000000000E+00 0.  1.
         -1   -1    0    0    0  501 -0.00000000000E+00 -0.00000000000E+00 -0.13243192680E+02  0.13243192680E+02  0.00000000000E+00 0. -1.
          6    2    1    2  502    0  0.15645749379E+02  0.11747493246E+02  0.12154776915E+04  0.12279447456E+04  0.17343438672E+03 0.  0.
         24    2    3    3    0    0 -0.33507088365E+02  0.46608952916E+02  0.48658742790E+03  0.49655262827E+03  0.80635402853E+02 0.  0.
         -6    2    1    2    0  501 -0.15645749379E+02 -0.11747493246E+02  0.10638539011E+04  0.10778732324E+04  0.17217081405E+03 0.  0.
        -24    2    5    5    0    0  0.51733770813E+02  0.14137901670E+02  0.73600999476E+03  0.74214451704E+03  0.78686138983E+02 0.  0.
          5    1    3    3  502    0  0.49152837744E+02 -0.34861459671E+02  0.72889026364E+03  0.73139211730E+03  0.47000000000E+01 0. -1.
        -13    1    4    4    0    0 -0.12050806891E+02  0.11016354236E+02  0.40175907975E+03  0.40209071137E+03  0.00000000000E+00 0.  1.
         14    1    4    4    0    0 -0.21456281475E+02  0.35592598680E+02  0.84828348142E+02  0.94461916898E+02  0.00000000000E+00 0. -1.
         -5    1    5    5    0  501 -0.67379520192E+02 -0.25885394915E+02  0.32784390631E+03  0.33572871536E+03  0.47000000000E+01 0.  1.
         13    1    6    6    0    0  0.16489979316E+02  0.34599617398E+02  0.15357824812E+03  0.15828875903E+03  0.00000000000E+00 0. -1.
        -14    1    6    6    0    0  0.35243791497E+02 -0.20461715728E+02  0.58243174665E+03  0.58385575800E+03  0.00000000000E+00 0.  1.
</event>
<event>
12    1  0.2609167E-002  0.2133936E+03  0.7818608E-02  0.1138906E+00
          2   -1    0    0  502    0  0.00000000000E+00  0.00000000000E+00  0.63400501225E+03  0.63400501225E+03  0.00000000000E+00 0. -1.
         -2   -1    0    0    0  501 -0.00000000000E+00 -0.00000000000E+00 -0.71907021124E+02  0.71907021124E+02  0.00000000000E+00 0.  1.
          6    2    1    2  502    0  0.12192572841E+03  0.31617474080E+02  0.29295719991E+03  0.36240104271E+03  0.17217737036E+03 0.  0.
         24    2    3    3    0    0  0.13924758069E+02 -0.26764074356E+02  0.84881865376E+02  0.12076071157E+03  0.80423900842E+02 0.  0.
         -6    2    1    2    0  501 -0.12192572841E+03 -0.31617474080E+02  0.26914079121E+03  0.34351099066E+03  0.17232958914E+03 0.  0.
        -24    2    5    5    0    0 -0.13515403013E+03 -0.67944902635E+02  0.22097162400E+03  0.28156723631E+03  0.86997289030E+02 0.  0.
          5    1    3    3  502    0  0.10800097034E+03  0.58381548436E+02  0.20807533453E+03  0.24164033114E+03  0.47000000000E+01 0. -1.
        -13    1    4    4    0    0 -0.10618473587E+02  0.10717493360E+02 -0.84071002159E+01  0.17271247184E+02  0.00000000000E+00 0.  1.
         14    1    4    4    0    0  0.24543231656E+02 -0.37481567716E+02  0.93288965592E+02  0.10348946439E+03  0.00000000000E+00 0. -1.
         -5    1    5    5    0  501  0.13228301724E+02  0.36327428555E+02  0.48169167219E+02  0.61943754346E+02  0.47000000000E+01 0.  1.
         13    1    6    6    0    0 -0.92325119656E+02 -0.28580900687E+02  0.19545795198E+03  0.21804725771E+03  0.00000000000E+00 0. -1.
        -14    1    6    6    0    0 -0.42828910474E+02 -0.39364001948E+02  0.25513672018E+02  0.63519978602E+02  0.00000000000E+00 0.  1.
</event>
<event>
12    1  0.2609167E-002  0.2173391E+03  0.7818608E-02  0.1135883E+00
          2   -1    0    0  502    0  0.00000000000E+00  0.00000000000E+00  0.15931063082E+04  0.15931063082E+04  0.00000000000E+00 0. -1.
         -2   -1    0    0    0  501 -0.00000000000E+00 -0.00000000000E+00 -0.35289422411E+02  0.35289422411E+02  0.00000000000E+00 0.  1.
          6    2    1    2  502    0 -0.12837192675E+03  0.33333939891E+02  0.45430817092E+03  0.50374337047E+03  0.17254264979E+03 0.  0.
         24    2    3    3    0    0 -0.10341505612E+03 -0.57993519941E+01  0.16400703080E+03  0.20971768812E+03  0.79717603080E+02 0.  0.
         -6    2    1    2    0  501  0.12837192675E+03 -0.33333939891E+02  0.11035087149E+04  0.11246523601E+04  0.17181660065E+03 0.  0.
        -24    2    5    5    0    0  0.14014672198E+03  0.13900563674E+02  0.94455587395E+03  0.95834589675E+03  0.80042048051E+02 0.  0.
          5    1    3    3  502    0 -0.24956870625E+02  0.39133291885E+02  0.29030114012E+03  0.29402568235E+03  0.47000000000E+01 0. -1.
        -11    1    4    4    0    0 -0.97387493497E+02  0.18033647684E+02  0.15416231780E+03  0.18323634074E+03  0.00000000000E+00 0.  1.
         12    1    4    4    0    0 -0.60275626282E+01 -0.23832999678E+02  0.98447130004E+01  0.26481347378E+02  0.00000000000E+00 0. -1.
         -5    1    5    5    0  501 -0.11774795227E+02 -0.47234503565E+02  0.15895284091E+03  0.16630646338E+03  0.47000000000E+01 0.  1.
         13    1    6    6    0    0 -0.36292011695E+01 -0.14801494946E+02  0.78016235758E+02  0.79490806988E+02  0.00000000000E+00 0. -1.
        -14    1    6    6    0    0  0.14377592315E+03  0.28702058620E+02  0.86653963819E+03  0.87885508977E+03  0.00000000000E+00 0.  1.
</event>
<event>
12    1  0.2610411E-002  0.1817231E+03  0.7818608E-02  0.1166146E+00
          2   -1    0    0  502    0  0.00000000000E+00  0.00000000000E+00  0.14796675000E+04  0.14796675000E+04  0.00000000000E+00 0.  1.
         -2   -1    0    0    0  501 -0.00000000000E+00 -0.00000000000E+00 -0.32924300163E+02  0.32924300163E+02  0.00000000000E+00 0. -1.
          6    2    1    2  502    0 -0.20599191832E+02 -0.56278384767E+02  0.11531915831E+04  0.11674547299E+04  0.17177932337E+03 0.  0.
         24    2    3    3    0    0 -0.72283314477E+02 -0.14555005811E+02  0.86358515847E+03  0.87029137411E+03  0.78683061610E+02 0.  0.
         -6    2    1    2    0  501  0.20599191832E+02  0.56278384767E+02  0.29355161682E+03  0.34513707026E+03  0.17133435801E+03 0.  0.
        -24    2    5    5    0    0  0.53243351805E+02  0.50406875432E+02  0.29218517234E+03  0.31160987275E+03  0.79704643886E+02 0.  0.
          5    1    3    3  502    0  0.51684122645E+02 -0.41723378955E+02  0.28960642459E+03  0.29716335583E+03  0.47000000000E+01 0. -1.
        -11    1    4    4    0    0 -0.35299060012E+02 -0.29761687909E+02  0.71280033376E+03  0.71429412536E+03  0.00000000000E+00 0.  1.
         12    1    4    4    0    0 -0.36984254465E+02  0.15206682097E+02  0.15078482471E+03  0.15599724876E+03  0.00000000000E+00 0. -1.
         -5    1    5    5    0  501 -0.32644159973E+02  0.58715093347E+01  0.13664444778E+01  0.33527197508E+02  0.47000000000E+01 0.  1.
         11    1    6    6    0    0  0.26640502408E+02  0.40515140101E+02  0.57505683340E+02  0.75220320143E+02  0.00000000000E+00 0. -1.
        -12    1    6    6    0    0  0.26602849397E+02  0.98917353303E+01  0.23467948900E+03  0.23638955261E+03  0.00000000000E+00 0.  1.
</event>
<event>
12    1  0.2609167E-002  0.2030767E+03  0.7818608E-02  0.1147169E+00
          2   -1    0    0  502    0  0.00000000000E+00  0.00000000000E+00  0.17749820061E+04  0.17749820061E+04  0.00000000000E+00 0.  1.
         -2   -1    0    0    0  501 -0.00000000000E+00 -0.00000000000E+00 -0.63807863012E+02  0.63807863012E+02  0.00000000000E+00 0. -1.
          6    2    1    2  502    0 -0.10594131341E+03  0.24793573626E+02  0.15887270527E+04  0.16016533673E+04  0.17146888307E+03 0.  0.
         24    2    3    3    0    0  0.98430554384E+00  0.33608713190E+02  0.53811080646E+03  0.54556275494E+03  0.83336457149E+02 0.  0.
         -6    2    1    2    0  501  0.10594131341E+03 -0.24793573626E+02  0.12244709044E+03  0.23713650185E+03  0.17147054375E+03 0.  0.
        -24    2    5    5    0    0  0.10147375827E+03  0.11077642985E+01  0.22533296755E+02  0.13371651092E+03  0.84108293712E+02 0.  0.
          5    1    3    3  502    0 -0.10692561895E+03 -0.88151395639E+01  0.10506162462E+04  0.10560906123E+04  0.47000000000E+01 0. -1.
        -13    1    4    4    0    0  0.18801204867E+02  0.29876201599E+02  0.51469205940E+03  0.51590114241E+03  0.00000000000E+00 0.  1.
         14    1    4    4    0    0 -0.17816899323E+02  0.37325115909E+01  0.23418747055E+02  0.29661612530E+02  0.00000000000E+00 0. -1.
         -5    1    5    5    0  501  0.44675551358E+01 -0.25901337925E+02  0.99913793684E+02  0.10341999093E+03  0.47000000000E+01 0.  1.
         11    1    6    6    0    0  0.48917471304E+02  0.42351463774E+02  0.66298004672E+01  0.65042445655E+02  0.00000000000E+00 0. -1.
        -12    1    6    6    0    0  0.52556286968E+02 -0.41243699475E+02  0.15903496288E+02  0.68674065268E+02  0.00000000000E+00 0.  1.
</event>
<event>
12    1  0.2609167E-002  0.2276129E+03  0.7818608E-02  0.1128331E+00
          2   -1    0    0  502    0  0.00000000000E+00  0.00000000000E+00  0.14243622872E+04  0.14243622872E+04  0.00000000000E+00 0.  1.
         -2   -1    0    0    0  501 -0.00000000000E+00 -0.00000000000E+00 -0.36965525823E+02  0.36965525823E+02  0.00000000000E+00 0. -1.
          6    2    1    2  502    0  0.14794333679E+03  0.21847742421E+02  0.60079049436E+03  0.64241867887E+03  0.17142924518E+03 0.  0.
         24    2    3    3    0    0  0.17146286933E+03  0.18270760294E+02  0.43341600357E+03  0.47329661237E+03  0.80168041553E+02 0.  0.
         -6    2    1    2    0  501 -0.14794333679E+03 -0.21847742421E+02  0.78660626701E+03  0.81890913414E+03  0.17175038846E+03 0.  0.
        -24    2    5    5    0    0 -0.16082386475E+03 -0.10048625286E+02  0.77835349049E+03  0.79902634043E+03  0.81508565170E+02 0.  0.
          5    1    3    3  502    0 -0.23519532542E+02  0.35769821265E+01  0.16737449079E+03  0.16912206651E+03  0.47000000000E+01 0. -1.
        -13    1    4    4    0    0  0.13693405975E+03  0.32683830062E+02  0.39643144451E+03  0.42068641488E+03  0.00000000000E+00 0.  1.
         14    1    4    4    0    0  0.34528809574E+02 -0.14413069768E+02  0.36984559062E+02  0.52610197488E+02  0.00000000000E+00 0. -1.
         -5    1    5    5    0  501  0.12880527958E+02 -0.11799117135E+02  0.82527765170E+01  0.19882793714E+02  0.47000000000E+01 0.  1.
         13    1    6    6    0    0 -0.70213764380E+02  0.24105442041E+01  0.17170710690E+03  0.18552389062E+03  0.00000000000E+00 0. -1.
        -14    1    6    6    0    0 -0.90610100365E+02 -0.12459169490E+02  0.60664638359E+03  0.61350244981E+03  0.00000000000E+00 0.  1.
</event>
<event>
12    1  0.2609167E-002  0.1922790E+03  0.7818608E-02  0.1156422E+00
         -2   -1    0    0    0  501 -0.00000000000E+00  0.00000000000E+00  0.77940874133E+02  0.77940874133E+02  0.00000000000E+00 0. -1.
          2   -1    0    0  502    0  0.00000000000E+00 -0.00000000000E+00 -0.48847372328E+03  0.48847372328E+03  0.00000000000E+00 0.  1.
          6    2    1    2  502    0 -0.46827736349E+00  0.86776846244E+02 -0.25356789350E+03  0.31831001639E+03  0.17173860832E+03 0.  0.
         24    2    3    3    0    0 -0.18809755261E+02  0.90855092596E+02 -0.26745312966E+03  0.29447869901E+03  0.81105319573E+02 0.  0.
         -6    2    1    2    0  501  0.46827736349E+00 -0.86776846244E+02 -0.15696495565E+03  0.24810458103E+03  0.17142766842E+03 0.  0.
        -24    2    5    5    0    0 -0.66539326504E+02 -0.74402677925E+02 -0.68011309377E+02  0.13595298629E+03  0.62405415023E+02 0.  0.
          5    1    3    3  502    0  0.18341477898E+02 -0.40782463523E+01  0.13885236156E+02  0.23831317376E+02  0.47000000000E+01 0. -1.
        -13    1    4    4    0    0 -0.42916715407E+02  0.31142624336E+02 -0.77473353670E+02  0.93881989970E+02  0.00000000000E+00 0.  1.
         14    1    4    4    0    0  0.24106960146E+02  0.59712468260E+02 -0.18997977599E+03  0.20059670904E+03  0.00000000000E+00 0. -1.
         -5    1    5    5    0  501  0.67007603867E+02 -0.12374168319E+02 -0.88953646273E+02  0.11215159474E+03  0.47000000000E+01 0.  1.
         11    1    6    6    0    0 -0.31164859866E+01  0.61912695202E+01  0.62500371714E+01  0.93331274405E+01  0.00000000000E+00 0. -1.
        -12    1    6    6    0    0 -0.63422840517E+02 -0.80593947445E+02 -0.74261346548E+02  0.12661985885E+03  0.00000000000E+00 0.  1.
</event>
<event>
12    1  0.2609167E-002  0.1814107E+03  0.7818608E-02  0.1166445E+00
          2   -1    0    0  502    0  0.00000000000E+00  0.00000000000E+00  0.49501382604E+03  0.49501382604E+03  0.00000000000E+00 0.  1.
         -2   -1    0    0    0  501 -0.00000000000E+00 -0.00000000000E+00 -0.68072019568E+02  0.68072019568E+02  0.00000000000E+00 0. -1.
          6    2    1    2  502    0 -0.48999432043E+02 -0.11457246644E+02  0.16919576921E+03  0.24724906905E+03  0.17312619959E+03 0.  0.
         24    2    3    3    0    0  0.24660267932E+01  0.96738279499E+01  0.17444703329E+03  0.19116982564E+03  0.77553017855E+02 0.  0.
         -6    2    1    2    0  501  0.48999432043E+02  0.11457246644E+02  0.25774603726E+03  0.31583677655E+03  0.17546406145E+03 0.  0.
        -24    2    5    5    0    0 -0.23229743338E+02  0.36874264491E+02  0.19957999787E+03  0.21956395219E+03  0.80478700261E+02 0.  0.
          5    1    3    3  502    0 -0.51465458837E+02 -0.21131074594E+02 -0.52512640746E+01  0.56079243407E+02  0.47000000000E+01 0. -1.
        -13    1    4    4    0    0  0.35535910883E+02 -0.13231712788E+02  0.87915711815E+02  0.95744720844E+02  0.00000000000E+00 0.  1.
         14    1    4    4    0    0 -0.33069884090E+02  0.22905540738E+02  0.86531321472E+02  0.95425104799E+02  0.00000000000E+00 0. -1.
         -5    1    5    5    0  501  0.72229175381E+02 -0.25417017847E+02  0.58166039388E+02  0.96272824362E+02  0.47000000000E+01 0.  1.
         13    1    6    6    0    0 -0.18492335146E+01  0.38644709610E+02  0.30869969935E+02  0.49495336035E+02  0.00000000000E+00 0. -1.
        -14    1    6    6    0    0 -0.21380509823E+02 -0.17704451191E+01  0.16871002793E+03  0.17006861616E+03  0.00000000000E+00 0.  1.
</event>
<event>
12    1  0.2609167E-002  0.5136902E+03  0.7818608E-02  0.1010266E+00
         -2   -1    0    0    0  501 -0.00000000000E+00  0.00000000000E+00  0.82989947627E+03  0.82989947627E+03  0.00000000000E+00 0.  1.
          2   -1    0    0  502    0  0.00000000000E+00 -0.00000000000E+00 -0.38291987618E+03  0.38291987618E+03  0.00000000000E+00 0. -1.
          6    2    1    2  502    0 -0.28017398579E+03  0.39378312750E+03 -0.26014070440E+02  0.51505451249E+03  0.17618684729E+03 0.  0.
         24    2    3    3    0    0 -0.43440288284E+02  0.16918380990E+03 -0.17185085160E+02  0.18857673686E+03  0.68961136534E+02 0.  0.
         -6    2    1    2    0  501  0.28017398579E+03 -0.39378312750E+03  0.47299367053E+03  0.69776483996E+03  0.17201786447E+03 0.  0.
        -24    2    5    5    0    0  0.20976858748E+03 -0.19582189539E+03  0.23517858662E+03  0.38039490807E+03  0.83918075959E+02 0.  0.
          5    1    3    3  502    0 -0.23673369751E+03  0.22459931760E+03 -0.88289852803E+01  0.32647777564E+03  0.47000000000E+01 0. -1.
        -11    1    4    4    0    0 -0.42404106909E+02  0.17252080934E+03 -0.69829860737E+01  0.17779285709E+03  0.00000000000E+00 0.  1.
         12    1    4    4    0    0 -0.10361813745E+01 -0.33369994351E+01 -0.10202099087E+02  0.10783879768E+02  0.00000000000E+00 0. -1.
         -5    1    5    5    0  501  0.70405398313E+02 -0.19796123211E+03  0.23781508391E+03  0.31736993189E+03  0.47000000000E+01 0.  1.
         11    1    6    6    0    0  0.17930566843E+03 -0.18601228465E+03  0.17443069148E+03  0.31173251179E+03  0.00000000000E+00 0. -1.
        -12    1    6    6    0    0  0.30462919051E+02 -0.98096107377E+01  0.60747895137E+02  0.68662396284E+02  0.00000000000E+00 0.  1.
</event>
<event>
12    1  0.2609167E-002  0.2933381E+03  0.7818608E-02  0.1088619E+00
         -2   -1    0    0    0  501 -0.00000000000E+00  0.00000000000E+00  0.25992641542E+03  0.25992641542E+03  0.00000000000E+00 0. -1.
          2   -1    0    0  502    0  0.00000000000E+00 -0.00000000000E+00 -0.35137120232E+03  0.35137120232E+03  0.00000000000E+00 0.  1.
          6    2    1    2  502    0 -0.53820058021E+02 -0.23236904463E+03 -0.11939392477E+03  0.31775852941E+03  0.17269511340E+03 0.  0.
         24    2    3    3    0    0 -0.30725619552E+01 -0.22921551481E+03 -0.65825091389E+02  0.24375202282E+03  0.50328054845E+02 0.  0.
         -6    2    1    2    0  501  0.53820058021E+02  0.23236904463E+03  0.27949137873E+02  0.29353908832E+03  0.16879594343E+03 0.  0.
        -24    2    5    5    0    0  0.49780623373E+02  0.22615651429E+03  0.66356718562E+02  0.25414181913E+03  0.80993646130E+02 0.  0.
          5    1    3    3  502    0 -0.50747496066E+02 -0.31535298150E+01 -0.53568833385E+02  0.74006506589E+02  0.47000000000E+01 0. -1.
        -11    1    4    4    0    0 -0.25885858448E+02 -0.11408836948E+03 -0.26283520751E+02  0.11990436681E+03  0.00000000000E+00 0.  1.
         12    1    4    4    0    0  0.22813296493E+02 -0.11512714534E+03 -0.39541570638E+02  0.12384765601E+03  0.00000000000E+00 0. -1.
         -5    1    5    5    0  501  0.40394346484E+01  0.62125303418E+01 -0.38407580688E+02  0.39397269193E+02  0.47000000000E+01 0.  1.
         11    1    6    6    0    0  0.30203247920E+02  0.47360253121E+02 -0.12828707937E+02  0.57617753410E+02  0.00000000000E+00 0. -1.
        -12    1    6    6    0    0  0.19577375452E+02  0.17879626117E+03  0.79185426499E+02  0.19652406572E+03  0.00000000000E+00 0.  1.
</event>
<event>
12    1  0.2609167E-002  0.2121100E+03  0.7818608E-02  0.1139906E+00
         -3   -1    0    0    0  501 -0.00000000000E+00  0.00000000000E+00  0.14162460637E+03  0.14162460637E+03  0.00000000000E+00 0.  1.
          3   -1    0    0  502    0  0.00000000000E+00 -0.00000000000E+00 -0.31884568099E+03  0.31884568099E+03  0.00000000000E+00 0. -1.
          6    2    1    2  502    0 -0.59308563694E+01 -0.12465187639E+03 -0.10254726077E+03  0.23557237450E+03  0.17147926286E+03 0.  0.
         24    2    3    3    0    0  0.48817885695E+02 -0.11158227947E+03 -0.39000194141E+02  0.15055144297E+03  0.79441366941E+02 0.  0.
         -6    2    1    2    0  501  0.59308563694E+01  0.12465187639E+03 -0.74673813853E+02  0.22489791286E+03  0.17155065545E+03 0.  0.
        -24    2    5    5    0    0 -0.13971995891E+02  0.45613837078E+01 -0.59633994712E+01  0.85037049833E+02  0.83544687566E+02 0.  0.
          5    1    3    3  502    0 -0.54748742065E+02 -0.13069596922E+02 -0.63547066626E+02  0.85020931529E+02  0.47000000000E+01 0. -1.
        -13    1    4    4    0    0 -0.15008847867E+01 -0.80357283717E+02 -0.43084308712E+02  0.91191026744E+02  0.00000000000E+00 0.  1.
         14    1    4    4    0    0  0.50318770482E+02 -0.31224995756E+02  0.40841145706E+01  0.59360416227E+02  0.00000000000E+00 0. -1.
         -5    1    5    5    0  501  0.19902852260E+02  0.12009049269E+03 -0.68710414382E+02  0.13986086303E+03  0.47000000000E+01 0.  1.
         11    1    6    6    0    0 -0.18124630283E+02  0.40628632271E+02 -0.16151265010E+02  0.47329180687E+02  0.00000000000E+00 0. -1.
        -12    1    6    6    0    0  0.41526343922E+01 -0.36067248563E+02  0.10187865539E+02  0.37707869146E+02  0.00000000000E+00 0.  1.
</event>
<event>
12    1  0.2609167E-002  0.1992773E+03  0.7818608E-02  0.1150350E+00
         -1   -1    0    0    0  501 -0.00000000000E+00  0.00000000000E+00  0.39957015531E+03  0.39957015531E+03  0.00000000000E+00 0.  1.
          1   -1    0    0  502    0  0.00000000000E+00 -0.00000000000E+00 -0.12186046894E+03  0.12186046894E+03  0.00000000000E+00 0. -1.
          6    2    1    2  502    0  0.99301162152E+02  0.36768729256E+02  0.24928904574E+03  0.31753911492E+03  0.16575102087E+03 0.  0.
         24    2    3    3    0    0  0.90851426205E+02 -0.15716052199E+02  0.93062893848E+02  0.15244898542E+03  0.77968038352E+02 0.  0.
         -6    2    1    2    0  501 -0.99301162152E+02 -0.36768729256E+02  0.28420640628E+02  0.20389150933E+03  0.17190507411E+03 0.  0.
        -24    2    5    5    0    0  0.92976514996E+01 -0.15866909961E+02  0.47269828056E+02  0.91606291052E+02  0.76282833984E+02 0.  0.
          5    1    3    3  502    0  0.84497359471E+01  0.52484781455E+02  0.15622615189E+03  0.16509012950E+03  0.47000000000E+01 0. -1.
        -11    1    4    4    0    0 -0.39293464581E+01 -0.11044847260E+02 -0.77074903570E+01  0.14029747759E+02  0.00000000000E+00 0.  1.
         12    1    4    4    0    0  0.94780772663E+02 -0.46712049387E+01  0.10077038420E+03  0.13841923766E+03  0.00000000000E+00 0. -1.
         -5    1    5    5    0  501 -0.10859881365E+03 -0.20901819295E+02 -0.18849187429E+02  0.11228521828E+03  0.47000000000E+01 0.  1.
         11    1    6    6    0    0  0.87459131675E+01  0.91479882092E+00 -0.20225154592E+02  0.22054131865E+02  0.00000000000E+00 0. -1.
        -12    1    6    6    0    0  0.55173833213E+00 -0.16781708782E+02  0.67494982649E+02  0.69552159187E+02  0.00000000000E+00 0.  1.
</event>
<event>
12    1  0.2609167E-002  0.2254319E+03  0.7818608E-02  0.1129897E+00
          2   -1    0    0  502    0  0.00000000000E+00  0.00000000000E+00  0.24071701218E+04  0.24071701218E+04  0.00000000000E+00 0.  1.
         -2   -1    0    0    0  501 -0.00000000000E+00 -0.00000000000E+00 -0.25390737685E+02  0.25390737685E+02  0.00000000000E+00 0. -1.
          6    2    1    2  502    0 -0.14493939816E+03  0.25959874580E+02  0.16866215208E+04  0.17015134610E+04  0.16963065562E+03 0.  0.
         24    2    3    3    0    0 -0.47364363999E+02  0.71943346597E+02  0.86679021585E+03  0.87460305137E+03  0.78651071644E+02 0.  0.
         -6    2    1    2    0  501  0.14493939816E+03 -0.25959874580E+02  0.69515786329E+03  0.73104739846E+03  0.17176873892E+03 0.  0.
        -24    2    5    5    0    0  0.11250505764E+03  0.46938707080E+02  0.47832656786E+03  0.49995414816E+03  0.79354990570E+02 0.  0.
          5    1    3    3  502    0 -0.97575034161E+02 -0.45983472017E+02  0.81983130498E+03  0.82691040966E+03  0.47000000000E+01 0. -1.
        -13    1    4    4    0    0 -0.53624559707E+02  0.17071345283E+02  0.56546347924E+03  0.56825695824E+03  0.00000000000E+00 0.  1.
         14    1    4    4    0    0  0.62601957083E+01  0.54872001314E+02  0.30132673662E+03  0.30634609313E+03  0.00000000000E+00 0. -1.
         -5    1    5    5    0  501  0.32434340520E+02 -0.72898581660E+02  0.21683129543E+03  0.23109325030E+03  0.47000000000E+01 0.  1.
         13    1    6    6    0    0  0.33522635915E+02 -0.18876806821E+01  0.26731525430E+03  0.26941561878E+03  0.00000000000E+00 0. -1.
        -14    1    6    6    0    0  0.78982421725E+02  0.48826387762E+02  0.21101131356E+03  0.23053852939E+03  0.00000000000E+00 0.  1.
</event>
<event>
12    1  0.2609167E-002  0.1891503E+03  0.7818608E-02  0.1159230E+00
         -1   -1    0    0    0  501 -0.00000000000E+00  0.00000000000E+00  0.13782403570E+03  0.13782403570E+03  0.00000000000E+00 0. -1.
          1   -1    0    0  502    0  0.00000000000E+00 -0.00000000000E+00 -0.30238821554E+03  0.30238821554E+03  0.00000000000E+00 0.  1.
          6    2    1    2  502    0 -0.75247562207E+02  0.22177878618E+02  0.49474737645E+00  0.18922724640E+03  0.17219945438E+03 0.  0.
         24    2    3    3    0    0 -0.34794119434E+02 -0.18875908639E+02 -0.57570538995E+02  0.10727871401E+03  0.81408997323E+02 0.  0.
         -6    2    1    2    0  501  0.75247562207E+02 -0.22177878618E+02 -0.16505892722E+03  0.25098500483E+03  0.17203188448E+03 0.  0.
        -24    2    5    5    0    0  0.52785738601E+01 -0.28938272843E+02 -0.16833069588E+02  0.86868104022E+02  0.79983925182E+02 0.  0.
          5    1    3    3  502    0 -0.40453442773E+02  0.41053787257E+02  0.58065286371E+02  0.81948532396E+02  0.47000000000E+01 0. -1.
        -11    1    4    4    0    0  0.13719292048E+02 -0.36432391259E+02 -0.24618806619E+02  0.46061087118E+02  0.00000000000E+00 0.  1.
         12    1    4    4    0    0 -0.48513411482E+02  0.17556482620E+02 -0.32951732376E+02  0.61217626891E+02  0.00000000000E+00 0. -1.
         -5    1    5    5    0  501  0.69968988347E+02  0.67603942243E+01 -0.14822585763E+03  0.16411690081E+03  0.47000000000E+01 0.  1.
         13    1    6    6    0    0  0.20754106991E+02 -0.49064033070E+02  0.48334516622E+01  0.53491817627E+02  0.00000000000E+00 0. -1.
        -14    1    6    6    0    0 -0.15475533131E+02  0.20125760227E+02 -0.21666521250E+02  0.33376286395E+02  0.00000000000E+00 0.  1.
</event>
<event>
12    1  0.2609167E-002  0.1729879E+03  0.7818608E-02  0.1174767E+00
          2   -1    0    0  502    0  0.00000000000E+00  0.00000000000E+00  0.27661449616E+03  0.27661449616E+03  0.00000000000E+00 0.  1.
         -2   -1    0    0    0  501 -0.00000000000E+00 -0.00000000000E+00 -0.13284064151E+03  0.13284064151E+03  0.00000000000E+00 0. -1.
          6    2    1    2  502    0 -0.17790364420E+02 -0.62025771298E+01  0.16015455561E+03  0.23587911001E+03  0.17214675084E+03 0.  0.
         24    2    3    3    0    0  0.37257995520E+02  0.39159552411E+02  0.60778110591E+02  0.11346255658E+03  0.79108433454E+02 0.  0.
         -6    2    1    2    0  501  0.17790364420E+02  0.62025771298E+01 -0.16380700961E+02  0.17357602767E+03  0.17177118789E+03 0.  0.
        -24    2    5    5    0    0 -0.53314382140E+02  0.24146578231E+02 -0.25587056600E+02  0.99517137971E+02  0.76311746810E+02 0.  0.
          5    1    3    3  502    0 -0.55048359940E+02 -0.45362129541E+02  0.99376445017E+02  0.12241655343E+03  0.47000000000E+01 0. -1.
        -13    1    4    4    0    0 -0.82180719619E+01  0.21356292741E+02  0.60437676583E+02  0.64624613710E+02  0.00000000000E+00 0.  1.
         14    1    4    4    0    0  0.45476067482E+02  0.17803259670E+02  0.34043400783E+00  0.48837942870E+02  0.00000000000E+00 0. -1.
         -5    1    5    5    0  501  0.71104746560E+02 -0.17944001101E+02  0.92063556385E+01  0.74058889696E+02  0.47000000000E+01 0.  1.
         11    1    6    6    0    0 -0.21833102894E+02  0.31893551601E+02 -0.46857944710E+02  0.60741666080E+02  0.00000000000E+00 0. -1.
        -12    1    6    6    0    0 -0.31481279246E+02 -0.77469733707E+01  0.21270888110E+02  0.38775471891E+02  0.00000000000E+00 0.  1.
</event>
<event>
12    1  0.2609167E-002  0.2525923E+03  0.7818608E-02  0.1111677E+00
          1   -1    0    0  502    0  0.00000000000E+00  0.00000000000E+00  0.89884505518E+03  0.89884505518E+03  0.00000000000E+00 0. -1.
         -1   -1    0    0    0  501 -0.00000000000E+00 -0.00000000000E+00 -0.74961600054E+02  0.74961600054E+02  0.00000000000E+00 0.  1.
          6    2    1    2  502    0  0.16063033444E+03 -0.89332484771E+02  0.52272861132E+03  0.58017332493E+03  0.17196944114E+03 0.  0.
         24    2    3    3    0    0  0.18329315528E+02 -0.44880785593E+02  0.27524154110E+03  0.29121403113E+03  0.81837993982E+02 0.  0.
         -6    2    1    2    0  501 -0.16063033444E+03  0.89332484771E+02  0.30115484380E+03  0.39363333030E+03  0.17455818973E+03 0.  0.
        -24    2    5    5    0    0 -0.18958512086E+03  0.65992524506E+02  0.25795216196E+03  0.33643459675E+03  0.79695600179E+02 0.  0.
          5    1    3    3  502    0  0.14230101892E+03 -0.44451699178E+02  0.24748707022E+03  0.28895929380E+03  0.47000000000E+01 0. -1.
        -13    1    4    4    0    0  0.28097871210E+01 -0.65039111154E+02  0.15166876773E+03  0.16504967734E+03  0.00000000000E+00 0.  1.
         14    1    4    4    0    0  0.15519528407E+02  0.20158325561E+02  0.12357277337E+03  0.12616435380E+03  0.00000000000E+00 0. -1.
         -5    1    5    5    0  501  0.28954786418E+02  0.23339960266E+02  0.43202681840E+02  0.57198733552E+02  0.47000000000E+01 0.  1.
         13    1    6    6    0    0 -0.99087926854E+02  0.45837488672E+02  0.19775943227E+03  0.22589441265E+03  0.00000000000E+00 0. -1.
        -14    1    6    6    0    0 -0.90497194008E+02  0.20155035834E+02  0.60192729690E+02  0.11054018410E+03  0.00000000000E+00 0.  1.
</event>
<event>
12    1  0.2609167E-002  0.1827846E+03  0.7818608E-02  0.1165135E+00
         -2   -1    0    0    0  501 -0.00000000000E+00  0.00000000000E+00  0.10636742938E+02  0.10636742938E+02  0.00000000000E+00 0. -1.
          2   -1    0    0  502    0  0.00000000000E+00 -0.00000000000E+00 -0.33554052691E+04  0.33554052691E+04  0.00000000000E+00 0.  1.
          6    2    1    2  502    0  0.59172256658E+02 -0.15046059029E+02 -0.12476405333E+04  0.12609702237E+04  0.17236955880E+03 0.  0.
         24    2    3    3    0    0  0.28161220246E+02 -0.50752130740E+02 -0.11277730712E+04  0.11320248616E+04  0.78989581555E+02 0.  0.
         -6    2    1    2    0  501 -0.59172256658E+02  0.15046059029E+02 -0.20971279929E+04  0.21050717884E+04  0.17220242705E+03 0.  0.
        -24    2    5    5    0    0  0.28345902084E+02  0.29134199389E+02 -0.80476046664E+03  0.80965918358E+03  0.79096732856E+02 0.  0.
          5    1    3    3  502    0  0.31011036412E+02  0.35706071711E+02 -0.11986746210E+03  0.12894536210E+03  0.47000000000E+01 0. -1.
        -11    1    4    4    0    0 -0.48313351313E+01  0.19216974415E+02 -0.29590216219E+03  0.29656487232E+03  0.00000000000E+00 0.  1.
         12    1    4    4    0    0  0.32992555378E+02 -0.69969105156E+02 -0.83187090902E+03  0.83545998926E+03  0.00000000000E+00 0. -1.
         -5    1    5    5    0  501 -0.87518158742E+02 -0.14088140360E+02 -0.12923675263E+04  0.12954126048E+04  0.47000000000E+01 0.  1.
         11    1    6    6    0    0  0.36945767597E+01  0.51908523516E+02 -0.37552485362E+03  0.37911351915E+03  0.00000000000E+00 0. -1.
        -12    1    6    6    0    0  0.24651325324E+02 -0.22774324128E+02 -0.42923561302E+03  0.43054566444E+03  0.00000000000E+00 0.  1.
</event>
<event>
12    1  0.2609167E-002  0.2127412E+03  0.7818608E-02  0.1139413E+00
         -2   -1    0    0    0  501 -0.00000000000E+00  0.00000000000E+00  0.22359902227E+02  0.22359902227E+02  0.00000000000E+00 0.  1.
          2   -1    0    0  502    0  0.00000000000E+00 -0.00000000000E+00 -0.21705568489E+04  0.21705568489E+04  0.00000000000E+00 0. -1.
          6    2    1    2  502    0 -0.17088769296E+02 -0.12467928552E+03 -0.13605295981E+04  0.13771154691E+04  0.17195719695E+03 0.  0.
         24    2    3    3    0    0 -0.53197430444E+02 -0.13273375022E+03 -0.11489179794E+04  0.11622427696E+04  0.10172274592E+03 0.  0.
         -6    2    1    2    0  501  0.17088769296E+02  0.12467928552E+03 -0.78766734850E+03  0.81580128198E+03  0.17109918035E+03 0.  0.
        -24    2    5    5    0    0  0.90336069370E+01  0.15531601738E+03 -0.72188683607E+03  0.74263940122E+03  0.78663872627E+02 0.  0.
          5    1    3    3  502    0  0.36108661148E+02  0.80544647074E+01 -0.21161161875E+03  0.21487269953E+03  0.47000000000E+01 0. -1.
        -11    1    4    4    0    0 -0.15704641652E+02 -0.48043548538E+02 -0.13582527821E+03  0.14492523772E+03  0.00000000000E+00 0.  1.
         12    1    4    4    0    0 -0.37492788792E+02 -0.84690201687E+02 -0.10130927012E+04  0.10173175319E+04  0.00000000000E+00 0. -1.
         -5    1    5    5    0  501  0.80551623587E+01 -0.30636731861E+02 -0.65780512431E+02  0.73161880753E+02  0.47000000000E+01 0.  1.
         11    1    6    6    0    0 -0.22923739376E+02  0.10690212060E+03 -0.56243420871E+03  0.57296230273E+03  0.00000000000E+00 0. -1.
        -12    1    6    6    0    0  0.31957346313E+02  0.48413896779E+02 -0.15945262735E+03  0.16967709850E+03  0.00000000000E+00 0.  1.
</event>
<event>
12    1  0.2609167E-002  0.1986747E+03  0.7818608E-02  0.1150862E+00
         -1   -1    0    0    0  501 -0.00000000000E+00  0.00000000000E+00  0.39716092486E+02  0.39716092486E+02  0.00000000000E+00 0. -1.
          1   -1    0    0  502    0  0.00000000000E+00 -0.00000000000E+00 -0.99497731644E+03  0.99497731644E+03  0.00000000000E+00 0.  1.
          6    2    1    2  502    0  0.97436050413E+02 -0.20943661419E+02 -0.49598563187E+03  0.53444109725E+03  0.17231691309E+03 0.  0.
         24    2    3    3    0    0  0.81559852285E+02 -0.26630163646E+02 -0.50195977279E+03  0.51594325050E+03  0.82901442213E+02 0.  0.
         -6    2    1    2    0  501 -0.97436050413E+02  0.20943661419E+02 -0.45927559209E+03  0.50025231168E+03  0.17142311681E+03 0.  0.
        -24    2    5    5    0    0 -0.89513159642E+02 -0.10743409325E+02 -0.44996149845E+03  0.46596404851E+03  0.80802956788E+02 0.  0.
          5    1    3    3  502    0  0.15876198128E+02  0.56865022267E+01  0.59741409207E+01  0.18497846748E+02  0.47000000000E+01 0. -1.
        -11    1    4    4    0    0  0.42210991984E+02  0.28430853021E+02 -0.24423081246E+03  0.24947699493E+03  0.00000000000E+00 0.  1.
         12    1    4    4    0    0  0.39348860301E+02 -0.55061016667E+02 -0.25772896033E+03  0.26646625557E+03  0.00000000000E+00 0. -1.
         -5    1    5    5    0  501 -0.79228907715E+01  0.31687070745E+02 -0.93140936396E+01  0.34288263165E+02  0.47000000000E+01 0.  1.
         11    1    6    6    0    0  0.58695417447E+01 -0.24053958037E+02 -0.92045840573E+02  0.95317790493E+02  0.00000000000E+00 0. -1.
        -12    1    6    6    0    0 -0.95382701386E+02  0.13310548712E+02 -0.35791565788E+03  0.37064625802E+03  0.00000000000E+00 0.  1.
</event>
<event>
12    1  0.2609167E-002  0.1880676E+03  0.7818608E-02  0.1160216E+00
         -2   -1    0    0    0  501 -0.00000000000E+00  0.00000000000E+00  0.40042758916E+02  0.40042758916E+02  0.00000000000E+00 0. -1.
          2   -1    0    0  502    0  0.00000000000E+00 -0.00000000000E+00 -0.88533775640E+03  0.88533775640E+03  0.00000000000E+00 0.  1.
          6    2    1    2  502    0 -0.17226541011E+02 -0.74481120621E+02 -0.44485959581E+03  0.48297381784E+03  0.17181227457E+03 0.  0.
         24    2    3    3    0    0 -0.12972585454E+02 -0.11661564064E+03 -0.38217582823E+03  0.40717963183E+03  0.77261848800E+02 0.  0.
         -6    2    1    2    0  501  0.17226541011E+02  0.74481120621E+02 -0.40043540167E+03  0.44240669747E+03  0.17184581465E+03 0.  0.
        -24    2    5    5    0    0 -0.46621122087E+02  0.48409934354E+02 -0.30230490210E+03  0.32237371957E+03  0.89551719531E+02 0.  0.
          5    1    3    3  502    0 -0.42539555566E+01  0.42134520017E+02 -0.62683767582E+02  0.75794186012E+02  0.47000000000E+01 0. -1.
        -13    1    4    4    0    0 -0.23399742245E+02 -0.83265890649E+02 -0.15645757317E+03  0.17877284101E+03  0.00000000000E+00 0.  1.
         14    1    4    4    0    0  0.10427156791E+02 -0.33349749989E+02 -0.22571825506E+03  0.22840679081E+03  0.00000000000E+00 0. -1.
         -5    1    5    5    0  501  0.63847663098E+02  0.26071186267E+02 -0.98130499574E+02  0.12003297790E+03  0.47000000000E+01 0.  1.
         11    1    6    6    0    0 -0.30115682359E+02 -0.16042471556E+02 -0.44239730484E+02  0.55870108026E+02  0.00000000000E+00 0. -1.
        -12    1    6    6    0    0 -0.16505439729E+02  0.64452405910E+02 -0.25806517161E+03  0.26650361155E+03  0.00000000000E+00 0.  1.
</event>
<event>
12    1  0.2609167E-002  0.1756326E+03  0.7818608E-02  0.1172098E+00
          2   -1    0    0  502    0  0.00000000000E+00  0.00000000000E+00  0.29605730905E+03  0.29605730905E+03  0.00000000000E+00 0. -1.
         -2   -1    0    0    0  501 -0.00000000000E+00 -0.00000000000E+00 -0.11761372098E+03  0.11761372098E+03  0.00000000000E+00 0.  1.
          6    2    1    2  502    0  0.29827463286E+02 -0.14631886237E+02  0.19296023207E+02  0.17656896813E+03  0.17233831359E+03 0.  0.
         24    2    3    3    0    0  0.87039103730E+02 -0.14739013266E+02  0.11399398310E+02  0.11862390826E+03  0.78413272077E+02 0.  0.
         -6    2    1    2    0  501 -0.29827463286E+02  0.14631886237E+02  0.15914756487E+03  0.23710206191E+03  0.17258525631E+03 0.  0.
        -24    2    5    5    0    0  0.37788964625E+02 -0.18840492605E+02  0.48132239169E+02  0.10279318652E+03  0.80416147244E+02 0.  0.
          5    1    3    3  502    0 -0.57211640444E+02  0.10712702919E+00  0.78966248972E+01  0.57945059870E+02  0.47000000000E+01 0. -1.
        -11    1    4    4    0    0  0.77639637619E+02 -0.37437070253E+02 -0.90383831229E+01  0.86666832919E+02  0.00000000000E+00 0.  1.
         12    1    4    4    0    0  0.93994661109E+01  0.22698056988E+02  0.20437781433E+02  0.31957075337E+02  0.00000000000E+00 0. -1.
         -5    1    5    5    0  501 -0.67616427911E+02  0.33472378842E+02  0.11101532570E+03  0.13430887539E+03  0.47000000000E+01 0.  1.
         11    1    6    6    0    0  0.20918878045E+02  0.47910535358E+01  0.65523130846E+02  0.68948055292E+02  0.00000000000E+00 0. -1.
        -12    1    6    6    0    0  0.16870086580E+02 -0.23631546141E+02 -0.17390891677E+02  0.33845131224E+02  0.00000000000E+00 0.  1.
</event>
<event>
12    1  0.2609167E-002  0.1750470E+03  0.7818608E-02  0.1172685E+00
         -2   -1    0    0    0  501 -0.00000000000E+00  0.00000000000E+00  0.24767533460E+03  0.24767533460E+03  0.00000000000E+00 0.  1.
          2   -1    0    0  502    0  0.00000000000E+00 -0.00000000000E+00 -0.12399049029E+03  0.12399049029E+03  0.00000000000E+00 0. -1.
          6    2    1    2  502    0  0.36012629168E+02  0.15297935878E+02  0.70621590784E+02  0.18886108331E+03  0.17073418932E+03 0.  0.
         24    2    3    3    0    0  0.14169048621E+02 -0.54627414331E+02  0.23838434329E+02  0.10181253168E+03  0.81317921280E+02 0.  0.
         -6    2    1    2    0  501 -0.36012629168E+02 -0.15297935878E+02  0.53063253519E+02  0.18280474158E+03  0.17050198934E+03 0.  0.
        -24    2    5    5    0    0 -0.52084598930E+02 -0.42787441058E+02  0.87344795571E+02  0.13578033055E+03  0.79142999016E+02 0.  0.
          5    1    3    3  502    0  0.21843580547E+02  0.69925350209E+02  0.46783156455E+02  0.87048551630E+02  0.47000000000E+01 0. -1.
        -13    1    4    4    0    0 -0.35989695618E+01 -0.44690276153E+02  0.50976042580E+02  0.67887629813E+02  0.00000000000E+00 0.  1.
         14    1    4    4    0    0  0.17768018182E+02 -0.99371381781E+01 -0.27137608251E+02  0.33924901870E+02  0.00000000000E+00 0. -1.
         -5    1    5    5    0  501  0.16071969762E+02  0.27489505180E+02 -0.34281542052E+02  0.47024411028E+02  0.47000000000E+01 0.  1.
         11    1    6    6    0    0 -0.23741444090E+02 -0.60169782531E+02  0.34403683929E+02  0.73264400395E+02  0.00000000000E+00 0. -1.
        -12    1    6    6    0    0 -0.28343154840E+02  0.17382341474E+02  0.52941111642E+02  0.62515930156E+02  0.00000000000E+00 0.  1.
</event>
<event>
12    1  0.2609167E-002  0.2691712E+03  0.7818608E-02  0.1101755E+00
         -2   -1    0    0    0  501 -0.00000000000E+00  0.00000000000E+00  0.37543494228E+03  0.37543494228E+03  0.00000000000E+00 0.  1.
          2   -1    0    0  502    0  0.00000000000E+00 -0.00000000000E+00 -0.35420017367E+03  0.35420017367E+03  0.00000000000E+00 0. -1.
          6    2    1    2  502    0  0.17012854891E+02 -0.20557868919E+03 -0.23547731197E+03  0.35853644558E+03  0.17477638191E+03 0.  0.
         24    2    3    3    0    0 -0.25009870139E+02 -0.93652226508E+02 -0.43055590714E+02  0.13194948373E+03  0.78489803360E+02 0.  0.
         -6    2    1    2    0  501 -0.17012854891E+02  0.20557868919E+03  0.25671208058E+03  0.37109867037E+03  0.17105875059E+03 0.  0.
        -24    2    5    5    0    0 -0.21297991330E+02  0.13582020441E+03  0.25525124517E+03  0.30103560854E+03  0.81046326796E+02 0.  0.
          5    1    3    3  502    0  0.42022725030E+02 -0.11192646268E+03 -0.19242172125E+03  0.22658696184E+03  0.47000000000E+01 0. -1.
        -11    1    4    4    0    0 -0.74752011110E+01 -0.10401922828E+03 -0.34372340060E+02  0.10980590260E+03  0.00000000000E+00 0.  1.
         12    1    4    4    0    0 -0.17534669028E+02  0.10367001772E+02 -0.86832506542E+01  0.22143581137E+02  0.00000000000E+00 0. -1.
         -5    1    5    5    0  501  0.42851364384E+01  0.69758484779E+02  0.14608354123E+01  0.70063061831E+02  0.47000000000E+01 0.  1.
         11    1    6    6    0    0  0.14491539743E+02  0.43293676731E+01  0.47268809152E+01  0.15845868602E+02  0.00000000000E+00 0. -1.
        -12    1    6    6    0    0 -0.35789531073E+02  0.13149083674E+03  0.25052436426E+03  0.28518973994E+03  0.00000000000E+00 0.  1.
</event>
<event>
12    1  0.2609167E-002  0.2054472E+03  0.7818608E-02  0.1145223E+00
         -2   -1    0    0    0  501 -0.00000000000E+00  0.00000000000E+00  0.24481503916E+03  0.24481503916E+03  0.00000000000E+00 0.  1.
          2   -1    0    0  502    0  0.00000000000E+00 -0.00000000000E+00 -0.46471268570E+03  0.46471268570E+03  0.00000000000E+00 0. -1.
          6    2    1    2  502    0 -0.37557548685E+02 -0.10624324045E+03 -0.39158261274E+03  0.44286296962E+03  0.17347181803E+03 0.  0.
         24    2    3    3    0    0  0.29467585729E+01 -0.12578700006E+03 -0.35649193673E+03  0.38562659142E+03  0.76094114666E+02 0.  0.
         -6    2    1    2    0  501  0.37557548685E+02  0.10624324045E+03  0.17168496620E+03  0.26666475524E+03  0.17010634456E+03 0.  0.
        -24    2    5    5    0    0  0.45363719281E+02  0.26789079174E+02  0.23407178066E+02  0.98194305309E+02  0.79490275003E+02 0.  0.
          5    1    3    3  502    0 -0.40504307257E+02  0.19543759611E+02 -0.35090676018E+02  0.57236378200E+02  0.47000000000E+01 0. -1.
        -13    1    4    4    0    0  0.28708640471E+02 -0.13542712231E+02 -0.70370859683E+02  0.77198762845E+02  0.00000000000E+00 0.  1.
         14    1    4    4    0    0 -0.25761881898E+02 -0.11224428783E+03 -0.28612107704E+03  0.30842782857E+03  0.00000000000E+00 0. -1.
         -5    1    5    5    0  501 -0.78061705967E+01  0.79454161276E+02  0.14827778814E+03  0.16847044993E+03  0.47000000000E+01 0.  1.
         13    1    6    6    0    0  0.18271158548E+02  0.48154311659E+02 -0.72833195694E+01  0.52016533045E+02  0.00000000000E+00 0. -1.
        -14    1    6    6    0    0  0.27092560733E+02 -0.21365232485E+02  0.30690497635E+02  0.46177772264E+02  0.00000000000E+00 0.  1.
</event>
<event>
12    1  0.2609167E-002  0.2006202E+03  0.7818608E-02  0.1149217E+00
          2   -1    0    0  502    0  0.00000000000E+00  0.00000000000E+00  0.10132379357E+04  0.10132379357E+04  0.00000000000E+00 0. -1.
         -2   -1    0    0    0  501 -0.00000000000E+00 -0.00000000000E+00 -0.39784090365E+02  0.39784090365E+02  0.00000000000E+00 0.  1.
          6    2    1    2  502    0  0.75766504390E+02  0.67076696495E+02  0.46637149562E+03  0.50774721485E+03  0.17339266382E+03 0.  0.
         24    2    3    3    0    0  0.64034950454E+02  0.96255835331E+02  0.22994946240E+03  0.26919634126E+03  0.78893942572E+02 0.  0.
         -6    2    1    2    0  501 -0.75766504390E+02 -0.67076696495E+02  0.50708234967E+03  0.54527481117E+03  0.17306722377E+03 0.  0.
        -24    2    5    5    0    0 -0.33965419950E+02  0.26976071773E+02  0.30592060760E+03  0.31926288592E+03  0.80374212115E+02 0.  0.
          5    1    3    3  502    0  0.11731553936E+02 -0.29179138837E+02  0.23642203322E+03  0.23855087360E+03  0.47000000000E+01 0. -1.
        -11    1    4    4    0    0  0.84946513966E-01  0.57818581851E+01 -0.61206076962E+01  0.84201507441E+01  0.00000000000E+00 0.  1.
         12    1    4    4    0    0  0.63950003940E+02  0.90473977146E+02  0.23607007009E+03  0.26077619051E+03  0.00000000000E+00 0. -1.
         -5    1    5    5    0  501 -0.41801084440E+02 -0.94052768267E+02  0.20116174207E+03  0.22601192524E+03  0.47000000000E+01 0.  1.
         11    1    6    6    0    0 -0.32982610907E+02  0.19365089205E+01  0.28416054451E+03  0.28607484640E+03  0.00000000000E+00 0. -1.
        -12    1    6    6    0    0 -0.98280904244E+00  0.25039562852E+02  0.21760063090E+02  0.33188039519E+02  0.00000000000E+00 0.  1.
</event>
<event>
12    1  0.2609167E-002  0.3881015E+03  0.7818608E-02  0.1047979E+00
         -4   -1    0    0    0  501 -0.00000000000E+00  0.00000000000E+00  0.22006045454E+03  0.22006045454E+03  0.00000000000E+00 0. -1.
          4   -1    0    0  502    0  0.00000000000E+00 -0.00000000000E+00 -0.69429216600E+03  0.69429216600E+03  0.00000000000E+00 0.  1.
          6    2    1    2  502    0  0.28410271240E+03  0.19603320803E+03 -0.18116584169E+03  0.42584232012E+03  0.17139792756E+03 0.  0.
         24    2    3    3    0    0  0.12085339952E+03  0.16179062327E+03 -0.82081461268E+02  0.23177352508E+03  0.78739130611E+02 0.  0.
         -6    2    1    2    0  501 -0.28410271240E+03 -0.19603320803E+03 -0.29306586977E+03  0.48851030042E+03  0.18333395688E+03 0.  0.
        -24    2    5    5    0    0 -0.68530254653E+02 -0.18919749268E+02 -0.16838899548E+02  0.95872947519E+02  0.62078344153E+02 0.  0.
          5    1    3    3  502    0  0.16324931288E+03  0.34242584756E+02 -0.99084380421E+02  0.19406879505E+03  0.47000000000E+01 0. -1.
        -13    1    4    4    0    0 -0.70007917092E+00  0.24452429625E+02  0.10149630095E+02  0.26484456130E+02  0.00000000000E+00 0.  1.
         14    1    4    4    0    0  0.12155347869E+03  0.13733819364E+03 -0.92231091364E+02  0.20528906895E+03  0.00000000000E+00 0. -1.
         -5    1    5    5    0  501 -0.21557245774E+03 -0.17711345876E+03 -0.27622697023E+03  0.39263735290E+03  0.47000000000E+01 0.  1.
         11    1    6    6    0    0 -0.76987911535E+01  0.16196850237E+02  0.10173246142E+02  0.20618057132E+02  0.00000000000E+00 0. -1.
        -12    1    6    6    0    0 -0.60831463500E+02 -0.35116599505E+02 -0.27012145690E+02  0.75254890387E+02  0.00000000000E+00 0.  1.
</event>
<event>
12    1  0.2609167E-002  0.2614050E+03  0.7818608E-02  0.1106302E+00
         -2   -1    0    0    0  501 -0.00000000000E+00  0.00000000000E+00  0.45009232074E+03  0.45009232074E+03  0.00000000000E+00 0.  1.
          2   -1    0    0  502    0  0.00000000000E+00 -0.00000000000E+00 -0.15734084630E+03  0.15734084630E+03  0.00000000000E+00 0. -1.
          6    2    1    2  502    0  0.16683801469E+03 -0.10731301225E+03  0.20349056449E+03  0.33159308687E+03  0.17086415562E+03 0.  0.
         24    2    3    3    0    0  0.23985735116E+02 -0.33113218736E+02  0.94095901698E+02  0.13690958632E+03  0.90655365900E+02 0.  0.
         -6    2    1    2    0  501 -0.16683801469E+03  0.10731301225E+03  0.89260909946E+02  0.27584008017E+03  0.16961495819E+03 0.  0.
        -24    2    5    5    0    0 -0.18083730672E+03  0.83275535514E+02  0.10968503292E+03  0.24101171150E+03  0.80117989961E+02 0.  0.
          5    1    3    3  502    0  0.14285227957E+03 -0.74199793518E+02  0.10939466279E+03  0.19468350055E+03  0.47000000000E+01 0. -1.
        -11    1    4    4    0    0  0.57281053781E+02 -0.97196351696E+01  0.47490723628E+02  0.75039717888E+02  0.00000000000E+00 0.  1.
         12    1    4    4    0    0 -0.33295318665E+02 -0.23393583567E+02  0.46605178070E+02  0.61869868434E+02  0.00000000000E+00 0. -1.
         -5    1    5    5    0  501  0.13999292036E+02  0.24037476740E+02 -0.20424122969E+02  0.34828368675E+02  0.47000000000E+01 0.  1.
         13    1    6    6    0    0 -0.10881325176E+03  0.11119589297E+02  0.77673666391E+02  0.13415352204E+03  0.00000000000E+00 0. -1.
        -14    1    6    6    0    0 -0.72024054964E+02  0.72155946216E+02  0.32011366524E+02  0.10685818946E+03  0.00000000000E+00 0.  1.
</event>
<event>
12    1  0.2609167E-002  0.2910382E+03  0.7818608E-02  0.1089808E+00
          2   -1    0    0  502    0  0.00000000000E+00  0.00000000000E+00  0.55100092315E+03  0.55100092315E+03  0.00000000000E+00 0. -1.
         -2   -1    0    0    0  501 -0.00000000000E+00 -0.00000000000E+00 -0.15412673794E+03  0.15412673794E+03  0.00000000000E+00 0.  1.
          6    2    1    2  502    0 -0.65135569395E+02  0.22583204151E+03  0.21693463018E+03  0.36364137327E+03  0.17300769119E+03 0.  0.
         24    2    3    3    0    0 -0.10441647231E+03  0.12898271546E+03  0.15492218635E+03  0.24202552528E+03  0.83881645730E+02 0.  0.
         -6    2    1    2    0  501  0.65135569395E+02 -0.22583204151E+03  0.17993955503E+03  0.34148628781E+03  0.17027004412E+03 0.  0.
        -24    2    5    5    0    0  0.10168998508E+03 -0.18823927498E+03  0.18323188655E+03  0.28873810444E+03  0.63410495942E+02 0.  0.
          5    1    3    3  502    0  0.39280902916E+02  0.96849326057E+02  0.62012443832E+02  0.12161584799E+03  0.47000000000E+01 0. -1.
        -13    1    4    4    0    0 -0.21451663241E+01  0.62241412545E+02  0.67474006389E+02  0.91822310537E+02  0.00000000000E+00 0.  1.
         14    1    4    4    0    0 -0.10227130599E+03  0.66741302912E+02  0.87448179957E+02  0.15020321475E+03  0.00000000000E+00 0. -1.
         -5    1    5    5    0  501 -0.36554415688E+02 -0.37592766533E+02 -0.32923315228E+01  0.52748183369E+02  0.47000000000E+01 0.  1.
         11    1    6    6    0    0  0.41412541520E+02 -0.63644598394E+02  0.10553288637E+03  0.13001085957E+03  0.00000000000E+00 0. -1.
        -12    1    6    6    0    0  0.60277443563E+02 -0.12459467659E+03  0.77699000184E+02  0.15872724488E+03  0.00000000000E+00 0.  1.
</event>
<event>
12    1  0.2609167E-002  0.1896879E+03  0.7818608E-02  0.1158743E+00
          2   -1    0    0  502    0  0.00000000000E+00  0.00000000000E+00  0.37839403265E+03  0.37839403265E+03  0.00000000000E+00 0.  1.
         -2   -1    0    0    0  501 -0.00000000000E+00 -0.00000000000E+00 -0.96160464006E+02  0.96160464006E+02  0.00000000000E+00 0. -1.
          6    2    1    2  502    0 -0.32534814167E+02  0.68673648506E+02  0.11863926164E+03  0.22636588543E+03  0.17717690468E+03 0.  0.
         24    2    3    3    0    0 -0.27783721733E+02  0.49248764238E+02  0.15601841171E+03  0.18371392337E+03  0.78814242849E+02 0.  0.
         -6    2    1    2    0  501  0.32534814167E+02 -0.68673648506E+02  0.16359430700E+03  0.24818861123E+03  0.17046966102E+03 0.  0.
        -24    2    5    5    0    0  0.14255575716E+02 -0.14356137494E+02  0.17106286090E+03  0.19020247618E+03  0.80654568638E+02 0.  0.
          5    1    3    3  502    0 -0.47510924345E+01  0.19424884268E+02 -0.37379150063E+02  0.42651962060E+02  0.47000000000E+01 0. -1.
        -13    1    4    4    0    0 -0.44233756035E+02  0.55303953894E+02  0.14873118578E+03  0.16473044076E+03  0.00000000000E+00 0.  1.
         14    1    4    4    0    0  0.16450034302E+02 -0.60551896562E+01  0.72872259290E+01  0.18983482611E+02  0.00000000000E+00 0. -1.
         -5    1    5    5    0  501  0.18279238451E+02 -0.54317511012E+02 -0.74685538973E+01  0.57986135052E+02  0.47000000000E+01 0.  1.
         13    1    6    6    0    0  0.41344858925E+02  0.47222790418E+01  0.13482322715E+03  0.14109925534E+03  0.00000000000E+00 0. -1.
        -14    1    6    6    0    0 -0.27089283209E+02 -0.19078416535E+02  0.36239633756E+02  0.49103220842E+02  0.00000000000E+00 0.  1.
</event>
<event>
12    1  0.2609167E-002  0.1887058E+03  0.7818608E-02  0.1159634E+00
          1   -1    0    0  502    0  0.00000000000E+00  0.00000000000E+00  0.85880672192E+03  0.85880672192E+03  0.00000000000E+00 0.  1.
         -1   -1    0    0    0  501 -0.00000000000E+00 -0.00000000000E+00 -0.42534202772E+02  0.42534202772E+02  0.00000000000E+00 0. -1.
          6    2    1    2  502    0  0.59559746381E+02 -0.51345776410E+02  0.33617727123E+03  0.38540621917E+03  0.17128643827E+03 0.  0.
         24    2    3    3    0    0  0.97250428227E+02 -0.58317775098E+01  0.19603796414E+03  0.23324437445E+03  0.80500928011E+02 0.  0.
         -6    2    1    2    0  501 -0.59559746381E+02  0.51345776410E+02  0.48009524791E+03  0.51593470552E+03  0.17179470641E+03 0.  0.
        -24    2    5    5    0    0 -0.22656309654E+02 -0.29898452475E+02  0.13904858016E+03  0.16337633028E+03  0.77136838303E+02 0.  0.
          5    1    3    3  502    0 -0.37690681846E+02 -0.45513998901E+02  0.14013930710E+03  0.15216184471E+03  0.47000000000E+01 0. -1.
        -13    1    4    4    0    0 -0.64626280712E+01 -0.20628630709E+02  0.33450997519E+02  0.39828070522E+02  0.00000000000E+00 0.  1.
         14    1    4    4    0    0  0.10371305630E+03  0.14796853199E+02  0.16258696662E+03  0.19341630393E+03  0.00000000000E+00 0. -1.
         -5    1    5    5    0  501 -0.36903436727E+02  0.81244228885E+02  0.34104666776E+03  0.35255837525E+03  0.47000000000E+01 0.  1.
         11    1    6    6    0    0 -0.20482591675E+02 -0.52642793093E+02  0.66177098887E+02  0.87006945950E+02  0.00000000000E+00 0. -1.
        -12    1    6    6    0    0 -0.21737179790E+01  0.22744340618E+02  0.72871481269E+02  0.76369384326E+02  0.00000000000E+00 0.  1.
</event>
<event>
12    1  0.2609167E-002  0.1911315E+03  0.7818608E-02  0.1157445E+00
          2   -1    0    0  502    0  0.00000000000E+00  0.00000000000E+00  0.22695787207E+03  0.22695787207E+03  0.00000000000E+00 0. -1.
         -2   -1    0    0    0  501 -0.00000000000E+00 -0.00000000000E+00 -0.16556081230E+03  0.16556081230E+03  0.00000000000E+00 0.  1.
          6    2    1    2  502    0 -0.40852920892E+01  0.83192818192E+02 -0.19525546887E+01  0.19153384010E+03  0.17246351737E+03 0.  0.
         24    2    3    3    0    0  0.69607453963E+01 -0.19663415160E+02  0.23667878075E+02  0.84857149775E+02  0.78774777328E+02 0.  0.
         -6    2    1    2    0  501  0.40852920892E+01 -0.83192818192E+02  0.63349614457E+02  0.20098484427E+03  0.17159253878E+03 0.  0.
        -24    2    5    5    0    0  0.35657009385E+02 -0.42212776133E+02 -0.24196720403E+02  0.99188047032E+02  0.78736564623E+02 0.  0.
          5    1    3    3  502    0 -0.11046037486E+02  0.10285623335E+03 -0.25620432764E+02  0.10667669032E+03  0.47000000000E+01 0. -1.
        -11    1    4    4    0    0 -0.24581797862E+02  0.19375899086E+02  0.91270410426E+01  0.32603575413E+02  0.00000000000E+00 0.  1.
         12    1    4    4    0    0  0.31542543258E+02 -0.39039314246E+02  0.14540837033E+02  0.52253574362E+02  0.00000000000E+00 0. -1.
         -5    1    5    5    0  501 -0.31571717296E+02 -0.40980042059E+02  0.87546334860E+02  0.10179679724E+03  0.47000000000E+01 0.  1.
         11    1    6    6    0    0 -0.24342740699E+02 -0.20918472614E+02 -0.37259397519E+01  0.32311517270E+02  0.00000000000E+00 0. -1.
        -12    1    6    6    0    0  0.59999750084E+02 -0.21294303520E+02 -0.20470780651E+02  0.66876529762E+02  0.00000000000E+00 0.  1.
</event>
<event>
12    1  0.2609167E-002  0.1840656E+03  0.7818608E-02  0.1163925E+00
          3   -1    0    0  502    0  0.00000000000E+00  0.00000000000E+00  0.11803589077E+03  0.11803589077E+03  0.00000000000E+00 0. -1.
         -3   -1    0    0    0  501 -0.00000000000E+00 -0.00000000000E+00 -0.28704539730E+03  0.28704539730E+03  0.00000000000E+00 0.  1.
          6    2    1    2  502    0  0.44473466799E+02  0.47053860542E+02 -0.85739631232E+02  0.20286092482E+03  0.17207357558E+03 0.  0.
         24    2    3    3    0    0  0.33817042495E+02 -0.14603379216E+02 -0.10762974428E+03  0.13640461102E+03  0.75267556144E+02 0.  0.
         -6    2    1    2    0  501 -0.44473466799E+02 -0.47053860542E+02 -0.83269875292E+02  0.20222036326E+03  0.17253187573E+03 0.  0.
        -24    2    5    5    0    0 -0.58937736294E+02  0.16425795581E+02 -0.50738441675E+01  0.10035971768E+03  0.79390588346E+02 0.  0.
          5    1    3    3  502    0  0.10656424304E+02  0.61657239758E+02  0.21890113045E+02  0.66456313791E+02  0.47000000000E+01 0. -1.
        -11    1    4    4    0    0  0.52564247824E+01  0.29542745035E+02 -0.50657130397E+02  0.58877403524E+02  0.00000000000E+00 0.  1.
         12    1    4    4    0    0  0.28560617713E+02 -0.44146124251E+02 -0.56972613880E+02  0.77527207500E+02  0.00000000000E+00 0. -1.
         -5    1    5    5    0  501  0.14464269495E+02 -0.63479656124E+02 -0.78196031125E+02  0.10186064558E+03  0.47000000000E+01 0.  1.
         11    1    6    6    0    0 -0.74562377662E+02 -0.24468407739E+01 -0.10291913425E+02  0.75309087594E+02  0.00000000000E+00 0. -1.
        -12    1    6    6    0    0  0.15624641367E+02  0.18872636355E+02  0.52180692580E+01  0.25050630085E+02  0.00000000000E+00 0.  1.
</event>
<event>
12    1  0.2609167E-002  0.1760028E+03  0.7818608E-02  0.1171729E+00
          2   -1    0    0  502    0  0.00000000000E+00  0.00000000000E+00  0.11618075990E+04  0.11618075990E+04  0.00000000000E+00 0.  1.
         -2   -1    0    0    0  501 -0.00000000000E+00 -0.00000000000E+00 -0.27776807673E+02  0.27776807673E+02  0.00000000000E+00 0. -1.
          6    2    1    2  502    0  0.30152938470E+02 -0.22104489796E+02  0.68224423624E+03  0.70427461712E+03  0.17072706369E+03 0.  0.
         24    2    3    3    0    0 -0.40455266272E+02  0.15617976858E+02  0.28983569778E+03  0.30375613550E+03  0.79890602549E+02 0.  0.
         -6    2    1    2    0  501 -0.30152938470E+02  0.22104489796E+02  0.45178655508E+03  0.48530978954E+03  0.17325326059E+03 0.  0.
        -24    2    5    5    0    0  0.15393148706E+02 -0.90225957991E+01  0.91764352485E+02  0.12105518370E+03  0.76911019052E+02 0.  0.
          5    1    3    3  502    0  0.70608204742E+02 -0.37722466655E+02  0.39240853846E+03  0.40051848162E+03  0.47000000000E+01 0. -1.
        -13    1    4    4    0    0  0.20114495219E+02 -0.10904554987E+02  0.10458458943E+03  0.10705810844E+03  0.00000000000E+00 0.  1.
         14    1    4    4    0    0 -0.60569761491E+02  0.26522531845E+02  0.18525110835E+03  0.19669802706E+03  0.00000000000E+00 0. -1.
         -5    1    5    5    0  501 -0.45546087176E+02  0.31127085595E+02  0.36002220259E+03  0.36425460584E+03  0.47000000000E+01 0.  1.
         11    1    6    6    0    0 -0.21725055057E+02  0.20470913138E+02  0.23738030979E+02  0.38138306421E+02  0.00000000000E+00 0. -1.
        -12    1    6    6    0    0  0.37118203763E+02 -0.29493508937E+02  0.68026321506E+02  0.82916877279E+02  0.00000000000E+00 0.  1.
</event>
<event>
12    1  0.2609167E-002  0.4505310E+03  0.7818608E-02  0.1027564E+00
          2   -1    0    0  502    0  0.00000000000E+00  0.00000000000E+00  0.10504865470E+04  0.10504865470E+04  0.00000000000E+00 0.  1.
         -2   -1    0    0    0  501 -0.00000000000E+00 -0.00000000000E+00 -0.23248030895E+03  0.23248030895E+03  0.00000000000E+00 0. -1.
          6    2    1    2  502    0  0.27729956165E+03  0.30976957476E+03  0.14564246463E+03  0.47379383393E+03  0.17440365028E+03 0.  0.
         24    2    3    3    0    0  0.28958143843E+03  0.26368205201E+03  0.14095261448E+03  0.42563795220E+03  0.88962873093E+02 0.  0.
         -6    2    1    2    0  501 -0.27729956165E+03 -0.30976957476E+03  0.67236377342E+03  0.80917302201E+03  0.17273013464E+03 0.  0.
        -24    2    5    5    0    0 -0.18948318246E+03 -0.29517835898E+03  0.52721394383E+03  0.63883458519E+03  0.84385689631E+02 0.  0.
          5    1    3    3  502    0 -0.12281876785E+02  0.46087522749E+02  0.46898501478E+01  0.48155881727E+02  0.47000000000E+01 0. -1.
        -11    1    4    4    0    0  0.13784978251E+03  0.93647905638E+02  0.20599410076E+02  0.16791911286E+03  0.00000000000E+00 0.  1.
         12    1    4    4    0    0  0.15173165592E+03  0.17003414637E+03  0.12035320440E+03  0.25771883934E+03  0.00000000000E+00 0. -1.
         -5    1    5    5    0  501 -0.87816379183E+02 -0.14591215774E+02  0.14514982959E+03  0.17033843683E+03  0.47000000000E+01 0.  1.
         13    1    6    6    0    0 -0.11544185133E+03 -0.19794257437E+03  0.40891084527E+03  0.46873890725E+03  0.00000000000E+00 0. -1.
        -14    1    6    6    0    0 -0.74041331133E+02 -0.97235784615E+02  0.11830309856E+03  0.17009567794E+03  0.00000000000E+00 0.  1.
</event>
<event>
12    1  0.2609167E-002  0.1987022E+03  0.7818608E-02  0.1150839E+00
         -2   -1    0    0    0  501 -0.00000000000E+00  0.00000000000E+00  0.34223017150E+02  0.34223017150E+02  0.00000000000E+00 0.  1.
          2   -1    0    0  502    0  0.00000000000E+00 -0.00000000000E+00 -0.12440995100E+04  0.12440995100E+04  0.00000000000E+00 0. -1.
          6    2    1    2  502    0 -0.94386103682E+02 -0.31388696542E+02 -0.43206097906E+03  0.47547756111E+03  0.17177961072E+03 0.  0.
         24    2    3    3    0    0 -0.13369792099E+03 -0.29170216334E+02 -0.33129940674E+03  0.36719402086E+03  0.79662515967E+02 0.  0.
         -6    2    1    2    0  501  0.94386103682E+02  0.31388696542E+02 -0.77781551379E+03  0.80284496604E+03  0.17224714556E+03 0.  0.
        -24    2    5    5    0    0  0.10332826613E+03 -0.30408654368E+01 -0.73685949837E+03  0.74839460142E+03  0.80290607514E+02 0.  0.
          5    1    3    3  502    0  0.39311817307E+02 -0.22184802075E+01 -0.10076157231E+03  0.10828354025E+03  0.47000000000E+01 0. -1.
        -11    1    4    4    0    0 -0.25925133016E+02 -0.25024383126E+01 -0.11134636256E+02  0.28325868813E+02  0.00000000000E+00 0.  1.
         12    1    4    4    0    0 -0.10777278797E+03 -0.26667778022E+02 -0.32016477049E+03  0.33886815205E+03  0.00000000000E+00 0. -1.
         -5    1    5    5    0  501 -0.89421624489E+01  0.34429561979E+02 -0.40956015423E+02  0.54450364615E+02  0.47000000000E+01 0.  1.
         13    1    6    6    0    0  0.50205809729E+02  0.27709481433E+02 -0.51559382271E+03  0.51877300307E+03  0.00000000000E+00 0. -1.
        -14    1    6    6    0    0  0.53122456402E+02 -0.30750346870E+02 -0.22126567566E+03  0.22962159835E+03  0.00000000000E+00 0.  1.
</event>
<event>
12    1  0.2609167E-002  0.2422971E+03  0.7818608E-02  0.1118272E+00
          2   -1    0    0  502    0  0.00000000000E+00  0.00000000000E+00  0.81210664617E+03  0.81210664617E+03  0.00000000000E+00 0. -1.
         -2   -1    0    0    0  501 -0.00000000000E+00 -0.00000000000E+00 -0.12074839410E+03  0.12074839410E+03  0.00000000000E+00 0.  1.
          6    2    1    2  502    0  0.16377560845E+02 -0.16257253497E+03  0.63633117608E+03  0.67899667119E+03  0.17152568382E+03 0.  0.
         24    2    3    3    0    0 -0.99787281638E+01 -0.92136407082E+02  0.55373569812E+03  0.56719324968E+03  0.80599420487E+02 0.  0.
         -6    2    1    2    0  501 -0.16377560845E+02  0.16257253497E+03  0.55027075986E+02  0.25385836908E+03  0.18632777258E+03 0.  0.
        -24    2    5    5    0    0  0.57949348216E+02  0.65044271018E+02  0.50415564048E+02  0.13105931484E+03  0.83940042634E+02 0.  0.
          5    1    3    3  502    0  0.26356289009E+02 -0.70436127891E+02  0.82595477968E+02  0.11180342152E+03  0.47000000000E+01 0. -1.
        -11    1    4    4    0    0 -0.23447453662E+02 -0.23462931968E+02  0.60315150741E+02  0.68834654562E+02  0.00000000000E+00 0.  1.
         12    1    4    4    0    0  0.13468725499E+02 -0.68673475114E+02  0.49342054738E+03  0.49835859511E+03  0.00000000000E+00 0. -1.
         -5    1    5    5    0  501 -0.74326909062E+02  0.97528263955E+02  0.46115119375E+01  0.12279905424E+03  0.47000000000E+01 0.  1.
         13    1    6    6    0    0  0.25295099392E+02 -0.17991477099E+02  0.69487306098E+01  0.31809120681E+02  0.00000000000E+00 0. -1.
        -14    1    6    6    0    0  0.32654248824E+02  0.83035748117E+02  0.43466833439E+02  0.99250194160E+02  0.00000000000E+00 0.  1.
</event>
<event>
12    1  0.2609167E-002  0.2252894E+03  0.7818608E-02  0.1130000E+00
          4   -1    0    0  502    0  0.00000000000E+00  0.00000000000E+00  0.38440876183E+03  0.38440876183E+03  0.00000000000E+00 0. -1.
         -4   -1    0    0    0  501 -0.00000000000E+00 -0.00000000000E+00 -0.14519354931E+03  0.14519354931E+03  0.00000000000E+00 0.  1.
          6    2    1    2  502    0 -0.13084064615E+03  0.58785660972E+02  0.19973671494E+03  0.30173079493E+03  0.17484761565E+03 0.  0.
         24    2    3    3    0    0 -0.10368041398E+03  0.82651084156E+01  0.48695566459E+02  0.14009687840E+03  0.80236755192E+02 0.  0.
         -6    2    1    2    0  501  0.13084064615E+03 -0.58785660972E+02  0.39478497576E+02  0.22787151621E+03  0.17260315034E+03 0.  0.
        -24    2    5    5    0    0  0.10472494080E+03 -0.93823374372E+01  0.84259609517E+02  0.15610692585E+03  0.78831142464E+02 0.  0.
          5    1    3    3  502    0 -0.27160232169E+02  0.50520552556E+02  0.15104114848E+03  0.16163391654E+03  0.47000000000E+01 0. -1.
        -11    1    4    4    0    0 -0.74085749446E+01 -0.26431485530E+02  0.17408525703E+01  0.27505289995E+02  0.00000000000E+00 0.  1.
         12    1    4    4    0    0 -0.96271839033E+02  0.34696593945E+02  0.46954713889E+02  0.11259158840E+03  0.00000000000E+00 0. -1.
         -5    1    5    5    0  501  0.26115705347E+02 -0.49403323534E+02 -0.44781111941E+02  0.71764590354E+02  0.47000000000E+01 0.  1.
         11    1    6    6    0    0  0.64557848730E+02  0.26990338542E+02  0.21523554637E+02  0.73208316546E+02  0.00000000000E+00 0. -1.
        -12    1    6    6    0    0  0.40167092070E+02 -0.36372675979E+02  0.62736054880E+02  0.82898609308E+02  0.00000000000E+00 0.  1.
</event>
<event>
12    1  0.2609167E-002  0.1922892E+03  0.7818608E-02  0.1156413E+00
          1   -1    0    0  502    0  0.00000000000E+00  0.00000000000E+00  0.81645018233E+03  0.81645018233E+03  0.00000000000E+00 0.  1.
         -1   -1    0    0    0  501 -0.00000000000E+00 -0.00000000000E+00 -0.58876346984E+02  0.58876346984E+02  0.00000000000E+00 0. -1.
          6    2    1    2  502    0  0.87990097503E+02 -0.22807303748E+02  0.16871716912E+03  0.25590826278E+03  0.16959105353E+03 0.  0.
         24    2    3    3    0    0  0.32714465517E+02 -0.72692954767E+02  0.12820012892E+03  0.17101012254E+03  0.80341066884E+02 0.  0.
         -6    2    1    2    0  501 -0.87990097503E+02  0.22807303748E+02  0.58885666622E+03  0.61941826654E+03  0.16930559709E+03 0.  0.
        -24    2    5    5    0    0  0.23898069679E+02 -0.11216912448E+02  0.12858127406E+03  0.14449497182E+03  0.60404602319E+02 0.  0.
          5    1    3    3  502    0  0.55275631986E+02  0.49885651019E+02  0.40517040205E+02  0.84898140239E+02  0.47000000000E+01 0. -1.
        -11    1    4    4    0    0  0.47652245518E+02 -0.75649615181E+02  0.12755527659E+03  0.15576889730E+03  0.00000000000E+00 0.  1.
         12    1    4    4    0    0 -0.14937780001E+02  0.29566604140E+01  0.64485232807E+00  0.15241225236E+02  0.00000000000E+00 0. -1.
         -5    1    5    5    0  501 -0.11188816718E+03  0.34024216196E+02  0.46027539216E+03  0.47492329472E+03  0.47000000000E+01 0.  1.
         11    1    6    6    0    0  0.56570459552E+01 -0.72761238649E+01 -0.43983754770E+01  0.10212240414E+02  0.00000000000E+00 0. -1.
        -12    1    6    6    0    0  0.18241023723E+02 -0.39407885831E+01  0.13297964954E+03  0.13428273140E+03  0.00000000000E+00 0.  1.
</event>
<event>
12    1  0.2609167E-002  0.2121355E+03  0.7818608E-02  0.1139886E+00
         -2   -1    0    0    0  501 -0.00000000000E+00  0.00000000000E+00  0.40161926177E+03  0.40161926177E+03  0.00000000000E+00 0.  1.
          2   -1    0    0  502    0  0.00000000000E+00 -0.00000000000E+00 -0.12264689214E+03  0.12264689214E+03  0.00000000000E+00 0. -1.
          6    2    1    2  502    0  0.28667330468E+02  0.11643650167E+03  0.64952900506E+02  0.22565920063E+03  0.17978854465E+03 0.  0.
         24    2    3    3    0    0  0.79097740540E-01  0.72342400952E+01  0.76767759149E+02  0.11206297768E+03  0.81317166920E+02 0.  0.
         -6    2    1    2    0  501 -0.28667330468E+02 -0.11643650167E+03  0.21401946912E+03  0.29860695328E+03  0.17024248774E+03 0.  0.
        -24    2    5    5    0    0 -0.10114378125E+02  0.36224094367E+01  0.12353440259E+03  0.14705501024E+03  0.79050647804E+02 0.  0.
          5    1    3    3  502    0  0.28588232727E+02  0.10920226157E+03 -0.11814858642E+02  0.11359622294E+03  0.47000000000E+01 0. -1.
        -11    1    4    4    0    0  0.28189912770E+02  0.33027367303E+02  0.38625780171E+02  0.58115652510E+02  0.00000000000E+00 0.  1.
         12    1    4    4    0    0 -0.28110815029E+02 -0.25793127207E+02  0.38141978978E+02  0.53947325171E+02  0.00000000000E+00 0. -1.
         -5    1    5    5    0  501 -0.18552952343E+02 -0.12005891110E+03  0.90485066527E+02  0.15155194304E+03  0.47000000000E+01 0.  1.
         13    1    6    6    0    0 -0.28083728026E+02  0.17333641606E+02  0.15105038946E+02  0.36294808344E+02  0.00000000000E+00 0. -1.
        -14    1    6    6    0    0  0.17969349902E+02 -0.13711232169E+02  0.10842936365E+03  0.11076020190E+03  0.00000000000E+00 0.  1.
</event>
<event>
12    1  0.2609167E-002  0.2238386E+03  0.7818608E-02  0.1131053E+00
         -1   -1    0    0    0  501 -0.00000000000E+00  0.00000000000E+00  0.12928435031E+03  0.12928435031E+03  0.00000000000E+00 0. -1.
          1   -1    0    0  502    0  0.00000000000E+00 -0.00000000000E+00 -0.43214216172E+03  0.43214216172E+03  0.00000000000E+00 0.  1.
          6    2    1    2  502    0  0.13649721337E+00 -0.14321729712E+03 -0.61425617571E+02  0.23238898641E+03  0.17239582850E+03 0.  0.
         24    2    3    3    0    0 -0.54746638942E+02 -0.12074067026E+03 -0.72912501807E+02  0.17179694157E+03  0.81378450959E+02 0.  0.
         -6    2    1    2    0  501 -0.13649721337E+00  0.14321729712E+03 -0.24143219383E+03  0.32903752562E+03  0.17165365192E+03 0.  0.
        -24    2    5    5    0    0  0.61603754111E+01  0.80321694065E+01 -0.13210092454E+03  0.15499705387E+03  0.80442317674E+02 0.  0.
          5    1    3    3  502    0  0.54883136155E+02 -0.22476626861E+02  0.11486884236E+02  0.60592044847E+02  0.47000000000E+01 0. -1.
        -13    1    4    4    0    0 -0.49474036801E+02 -0.44540200557E+02 -0.68147332890E+02  0.95265779601E+02  0.00000000000E+00 0.  1.
         14    1    4    4    0    0 -0.52726021410E+01 -0.76200469706E+02 -0.47651689170E+01  0.76531161964E+02  0.00000000000E+00 0. -1.
         -5    1    5    5    0  501 -0.62968726245E+01  0.13518512772E+03 -0.10933126929E+03  0.17404047175E+03  0.47000000000E+01 0.  1.
         11    1    6    6    0    0  0.18172119067E+02 -0.11369839354E+02 -0.50975968148E+00  0.21441991821E+02  0.00000000000E+00 0. -1.
        -12    1    6    6    0    0 -0.12011743656E+02  0.19402008760E+02 -0.13159116486E+03  0.13355506205E+03  0.00000000000E+00 0.  1.
</event>
<event>
12    1  0.2609167E-002  0.1776861E+03  0.7818608E-02  0.1170061E+00
         -1   -1    0    0    0  501 -0.00000000000E+00  0.00000000000E+00  0.15726144785E+02  0.15726144785E+02  0.00000000000E+00 0.  1.
          1   -1    0    0  502    0  0.00000000000E+00 -0.00000000000E+00 -0.37606294798E+04  0.37606294798E+04  0.00000000000E+00 0. -1.
          6    2    1    2  502    0 -0.73655515006E+01  0.48575058074E+02 -0.57979045307E+03  0.60622385813E+03  0.17010763971E+03 0.  0.
         24    2    3    3    0    0 -0.60013431669E+02  0.14608083044E+01 -0.25391593255E+03  0.27274545563E+03  0.79454621134E+02 0.  0.
         -6    2    1    2    0  501  0.73655515006E+01 -0.48575058074E+02 -0.31651128819E+04  0.31701317664E+04  0.17141199949E+03 0.  0.
        -24    2    5    5    0    0 -0.14132259090E+01 -0.22084767907E+02 -0.30678112396E+04  0.30687981491E+04  0.74609274150E+02 0.  0.
          5    1    3    3  502    0  0.52647880168E+02  0.47114249770E+02 -0.32587452051E+03  0.33347840251E+03  0.47000000000E+01 0. -1.
        -11    1    4    4    0    0 -0.14493818428E+02  0.37644219099E+02 -0.12435530125E+03  0.13073407725E+03  0.00000000000E+00 0.  1.
         12    1    4    4    0    0 -0.45519613241E+02 -0.36183410795E+02 -0.12956063130E+03  0.14201137838E+03  0.00000000000E+00 0. -1.
         -5    1    5    5    0  501  0.87787774096E+01 -0.26490290167E+02 -0.97301642320E+02  0.10133361734E+03  0.47000000000E+01 0.  1.
         11    1    6    6    0    0  0.49162275546E+01 -0.36644920839E+02 -0.73216575650E+03  0.73309870721E+03  0.00000000000E+00 0. -1.
        -12    1    6    6    0    0 -0.63294534636E+01  0.14560152932E+02 -0.23356454831E+04  0.23356994419E+04  0.00000000000E+00 0.  1.
</event>
<event>
12    1  0.2609167E-002  0.1930410E+03  0.7818608E-02  0.1155747E+00
          2   -1    0    0  502    0  0.00000000000E+00  0.00000000000E+00  0.38228197124E+04  0.38228197124E+04  0.00000000000E+00 0. -1.
         -2   -1    0    0    0  501 -0.00000000000E+00 -0.00000000000E+00 -0.12641833806E+02  0.12641833806E+02  0.00000000000E+00 0.  1.
          6    2    1    2  502    0 -0.24930209797E+02 -0.74202119601E+02  0.95547351095E+03  0.97393814880E+03  0.17175103395E+03 0.  0.
         24    2    3    3    0    0  0.38345723940E+02  0.54407675758E+01  0.41865076817E+03  0.42754307157E+03  0.77618398968E+02 0.  0.
         -6    2    1    2    0  501  0.24930209797E+02  0.74202119601E+02  0.28547043677E+04  0.28615233974E+04  0.18125026152E+03 0.  0.
        -24    2    5    5    0    0 -0.23309653837E+02  0.95904782403E+02  0.24628036638E+04  0.24660409810E+04  0.78836325634E+02 0.  0.
          5    1    3    3  502    0 -0.63275933737E+02 -0.79642887176E+02  0.53682274278E+03  0.54639507724E+03  0.47000000000E+01 0. -1.
        -13    1    4    4    0    0  0.31394459701E+02 -0.27635078803E+02  0.12193827102E+03  0.12891179783E+03  0.00000000000E+00 0.  1.
         14    1    4    4    0    0  0.69512642393E+01  0.33075846379E+02  0.29671249715E+03  0.29863127374E+03  0.00000000000E+00 0. -1.
         -5    1    5    5    0  501  0.48239863634E+02 -0.21702662802E+02  0.39190070384E+03  0.39548241640E+03  0.47000000000E+01 0.  1.
         13    1    6    6    0    0  0.12400115762E+02  0.48610116724E+02  0.54025873925E+03  0.54258290763E+03  0.00000000000E+00 0. -1.
        -14    1    6    6    0    0 -0.35709769600E+02  0.47294665678E+02  0.19225449246E+04  0.19234580734E+04  0.00000000000E+00 0.  1.
</event>
<event>
12    1  0.2609167E-002  0.2301045E+03  0.7818608E-02  0.1126566E+00
         -2   -1    0    0    0  501 -0.00000000000E+00  0.00000000000E+00  0.13396555438E+04  0.13396555438E+04  0.00000000000E+00 0. -1.
          2   -1    0    0  502    0  0.00000000000E+00 -0.00000000000E+00 -0.39565506702E+02  0.39565506702E+02  0.00000000000E+00 0.  1.
          6    2    1    2  502    0  0.14779315641E+03  0.41971425291E+02  0.62704537309E+03  0.66786201929E+03  0.17102444059E+03 0.  0.
         24    2    3    3    0    0  0.73698560687E+02  0.26593274231E+02  0.54448361835E+03  0.55576817472E+03  0.79228614130E+02 0.  0.
         -6    2    1    2    0  501 -0.14779315641E+03 -0.41971425291E+02  0.67304466402E+03  0.71135903122E+03  0.17157544669E+03 0.  0.
        -24    2    5    5    0    0 -0.16552260234E+03  0.23771448734E+01  0.51392674753E+03  0.54516116638E+03  0.75343299622E+02 0.  0.
          5    1    3    3  502    0  0.74094595727E+02  0.15378151060E+02  0.82561754739E+02  0.11209384457E+03  0.47000000000E+01 0. -1.
        -13    1    4    4    0    0  0.24385657041E+02 -0.26191035090E+02  0.12148613737E+03  0.12664719563E+03  0.00000000000E+00 0.  1.
         14    1    4    4    0    0  0.49312903647E+02  0.52784309322E+02  0.42299748098E+03  0.42912097909E+03  0.00000000000E+00 0. -1.
         -5    1    5    5    0  501  0.17729445931E+02 -0.44348570165E+02  0.15911791649E+03  0.16619786484E+03  0.47000000000E+01 0.  1.
         11    1    6    6    0    0 -0.59295159093E+01  0.15147621836E+02  0.19154216185E+02  0.25129536484E+02  0.00000000000E+00 0. -1.
        -12    1    6    6    0    0 -0.15959308644E+03 -0.12770476963E+02  0.49477253135E+03  0.52003162990E+03  0.00000000000E+00 0.  1.
</event>
<event>
12    1  0.2609167E-002  0.2851038E+03  0.7818608E-02  0.1092934E+00
          1   -1    0    0  502    0  0.00000000000E+00  0.00000000000E+00  0.14402150027E+04  0.14402150027E+04  0.00000000000E+00 0.  1.
         -1   -1    0    0    0  501 -0.00000000000E+00 -0.00000000000E+00 -0.60009224455E+02  0.60009224455E+02  0.00000000000E+00 0. -1.
          6    2    1    2  502    0  0.10982114614E+03  0.19800278146E+03  0.50616674370E+03  0.58072835577E+03  0.17255394856E+03 0.  0.
         24    2    3    3    0    0  0.11950214631E+03  0.92131848249E+02  0.37640951091E+03  0.41291475166E+03  0.77752374887E+02 0.  0.
         -6    2    1    2    0  501 -0.10982114614E+03 -0.19800278146E+03  0.87403903452E+03  0.91949587136E+03  0.17396159916E+03 0.  0.
        -24    2    5    5    0    0 -0.83475914271E+02 -0.19225518306E+03  0.54273337210E+03  0.58706145967E+03  0.78430609818E+02 0.  0.
          5    1    3    3  502    0 -0.96810001731E+01  0.10587093321E+03  0.12975723280E+03  0.16781360412E+03  0.47000000000E+01 0. -1.
        -13    1    4    4    0    0  0.99850681177E+02  0.29911573433E+02  0.22016366242E+03  0.24359166449E+03  0.00000000000E+00 0.  1.
         14    1    4    4    0    0  0.19651465135E+02  0.62220274816E+02  0.15624584848E+03  0.16932308717E+03  0.00000000000E+00 0. -1.
         -5    1    5    5    0  501 -0.26345231867E+02 -0.57475984028E+01  0.33130566242E+03  0.33243441170E+03  0.47000000000E+01 0.  1.
         11    1    6    6    0    0 -0.30677659001E+01 -0.83521620329E+01  0.54501864275E+00  0.89144177355E+01  0.00000000000E+00 0. -1.
        -12    1    6    6    0    0 -0.80408148371E+02 -0.18390302102E+03  0.54218835346E+03  0.57814704193E+03  0.00000000000E+00 0.  1.
</event>
<event>
12    1  0.2609167E-002  0.2271759E+03  0.7818608E-02  0.1128643E+00
          2   -1    0    0  502    0  0.00000000000E+00  0.00000000000E+00  0.23094243305E+03  0.23094243305E+03  0.00000000000E+00 0. -1.
         -2   -1    0    0    0  501 -0.00000000000E+00 -0.00000000000E+00 -0.22571442239E+03  0.22571442239E+03  0.00000000000E+00 0.  1.
          6    2    1    2  502    0 -0.11630363440E+03 -0.86561533471E+02  0.25315932843E+02  0.23053609691E+03  0.17744452956E+03 0.  0.
         24    2    3    3    0    0 -0.66318090485E+02 -0.61118438057E+02  0.84315796743E+02  0.14899482120E+03  0.83407137390E+02 0.  0.
         -6    2    1    2    0  501  0.11630363440E+03  0.86561533471E+02 -0.20087922181E+02  0.22612075854E+03  0.17235903914E+03 0.  0.
        -24    2    5    5    0    0  0.13880016403E+03  0.94960233146E+02  0.10302774748E+02  0.18710388447E+03  0.81355915603E+02 0.  0.
          5    1    3    3  502    0 -0.49985543911E+02 -0.25443095414E+02 -0.58999863899E+02  0.81541275711E+02  0.47000000000E+01 0. -1.
        -13    1    4    4    0    0 -0.63649928241E+02 -0.47650645741E+02  0.18330073944E+02  0.81595888471E+02  0.00000000000E+00 0.  1.
         14    1    4    4    0    0 -0.26681622441E+01 -0.13467792316E+02  0.65985722798E+02  0.67398932728E+02  0.00000000000E+00 0. -1.
         -5    1    5    5    0  501 -0.22496529636E+02 -0.83986996751E+01 -0.30390696929E+02  0.39016874064E+02  0.47000000000E+01 0.  1.
         13    1    6    6    0    0  0.98136140015E+02  0.10120744423E+03 -0.97997382654E+01  0.14131413098E+03  0.00000000000E+00 0. -1.
        -14    1    6    6    0    0  0.40664024017E+02 -0.62472110849E+01  0.20102513013E+02  0.45789753494E+02  0.00000000000E+00 0.  1.
</event>
<event>
12    1  0.2609167E-002  0.1775805E+03  0.7818608E-02  0.1170165E+00
          1   -1    0    0  502    0  0.00000000000E+00  0.00000000000E+00  0.11134645597E+03  0.11134645597E+03  0.00000000000E+00 0. -1.
         -1   -1    0    0    0  501 -0.00000000000E+00 -0.00000000000E+00 -0.29989271173E+03  0.29989271173E+03  0.00000000000E+00 0.  1.
          6    2    1    2  502    0  0.27916289007E+02  0.31242387800E+02 -0.45984206531E+02  0.18382579891E+03  0.17297968409E+03 0.  0.
         24    2    3    3    0    0 -0.49920666504E+02  0.89770517468E+01 -0.36266283880E+02  0.10215043633E+03  0.80912346976E+02 0.  0.
         -6    2    1    2    0  501 -0.27916289007E+02 -0.31242387800E+02 -0.14256204923E+03  0.22741336878E+03  0.17215544265E+03 0.  0.
        -24    2    5    5    0    0 -0.85958478956E+01  0.35725417694E+02 -0.13166766142E+03  0.15671157175E+03  0.76628647297E+02 0.  0.
          5    1    3    3  502    0  0.77836955511E+02  0.22265336053E+02 -0.97179226509E+01  0.81675362586E+02  0.47000000000E+01 0. -1.
        -13    1    4    4    0    0 -0.26835256079E+02  0.37546085270E+01 -0.61711836557E+02  0.67398655960E+02  0.00000000000E+00 0.  1.
         14    1    4    4    0    0 -0.23085410425E+02  0.52224432198E+01  0.25445552677E+02  0.34751780368E+02  0.00000000000E+00 0. -1.
         -5    1    5    5    0  501 -0.19320441112E+02 -0.66967805495E+02 -0.10894387811E+02  0.70701797030E+02  0.47000000000E+01 0.  1.
         13    1    6    6    0    0 -0.31013657856E+02  0.48409880301E+02 -0.75310642525E+02  0.94747329048E+02  0.00000000000E+00 0. -1.
        -14    1    6    6    0    0  0.22417809960E+02 -0.12684462606E+02 -0.56357018899E+02  0.61964242707E+02  0.00000000000E+00 0.  1.
</event>
<event>
12    1  0.2609167E-002  0.1784023E+03  0.7818608E-02  0.1169358E+00
          2   -1    0    0  502    0  0.00000000000E+00  0.00000000000E+00  0.33098302361E+03  0.33098302361E+03  0.00000000000E+00 0. -1.
         -2   -1    0    0    0  501 -0.00000000000E+00 -0.00000000000E+00 -0.11016268386E+03  0.11016268386E+03  0.00000000000E+00 0.  1.
          6    2    1    2  502    0  0.28977497990E+02 -0.49848854956E+02  0.18770569192E+03  0.25733405489E+03  0.16632133146E+03 0.  0.
         24    2    3    3    0    0 -0.36994471032E+02 -0.60948724363E+02  0.87640500472E+02  0.13687393561E+03  0.77267580779E+02 0.  0.
         -6    2    1    2    0  501 -0.28977497990E+02  0.49848854956E+02  0.33114647829E+02  0.18381165258E+03  0.17136376511E+03 0.  0.
        -24    2    5    5    0    0  0.92488167776E+01  0.27234831875E+02  0.82542117162E+02  0.11719476354E+03  0.78064939737E+02 0.  0.
          5    1    3    3  502    0  0.65971969021E+02  0.11099869407E+02  0.10006519145E+03  0.12046011928E+03  0.47000000000E+01 0. -1.
        -13    1    4    4    0    0  0.87532872922E+01  0.14424137765E+02  0.12004234030E+02  0.20706941429E+02  0.00000000000E+00 0.  1.
         14    1    4    4    0    0 -0.45747758324E+02 -0.75372862128E+02  0.75636266441E+02  0.11616699419E+03  0.00000000000E+00 0. -1.
         -5    1    5    5    0  501 -0.38226314767E+02  0.22614023082E+02 -0.49427469334E+02  0.66616889040E+02  0.47000000000E+01 0.  1.
         13    1    6    6    0    0  0.83461754625E+01  0.40903211988E+02  0.94134413461E+01  0.42794208414E+02  0.00000000000E+00 0. -1.
        -14    1    6    6    0    0  0.90264131506E+00 -0.13668380113E+02  0.73128675816E+02  0.74400555125E+02  0.00000000000E+00 0.  1.
</event>
<event>
12    1  0.2609167E-002  0.2984903E+03  0.7818608E-02  0.1085998E+00
         -2   -1    0    0    0  501 -0.00000000000E+00  0.00000000000E+00  0.38314341611E+02  0.38314341611E+02  0.00000000000E+00 0.  1.
          2   -1    0    0  502    0  0.00000000000E+00 -0.00000000000E+00 -0.25129768882E+04  0.25129768882E+04  0.00000000000E+00 0. -1.
          6    2    1    2  502    0  0.79034399966E+02 -0.23132488469E+03 -0.88737949349E+03  0.93611664921E+03  0.17062935504E+03 0.  0.
         24    2    3    3    0    0  0.10711248113E+03 -0.19756527239E+03 -0.60318447996E+03  0.64851104116E+03  0.78929925715E+02 0.  0.
         -6    2    1    2    0  501 -0.79034399966E+02  0.23132488469E+03 -0.15872830531E+04  0.16151745806E+04  0.17194125894E+03 0.  0.
        -24    2    5    5    0    0 -0.75338613314E+02  0.61332806937E+02 -0.77509393450E+03  0.78536483150E+03  0.81176914201E+02 0.  0.
          5    1    3    3  502    0 -0.28078081164E+02 -0.33759612299E+02 -0.28419501353E+03  0.28760560805E+03  0.47000000000E+01 0. -1.
        -11    1    4    4    0    0 -0.11408217441E+02 -0.11331117499E+02 -0.26210226706E+02  0.30749270445E+02  0.00000000000E+00 0.  1.
         12    1    4    4    0    0  0.11852069857E+03 -0.18623415489E+03 -0.57697425326E+03  0.61776177072E+03  0.00000000000E+00 0. -1.
         -5    1    5    5    0  501 -0.36957866512E+01  0.16999207775E+03 -0.81218911861E+03  0.82980974912E+03  0.47000000000E+01 0.  1.
         13    1    6    6    0    0 -0.65517738554E+02  0.78998359646E+02 -0.70442657101E+03  0.71186382746E+03  0.00000000000E+00 0. -1.
        -14    1    6    6    0    0 -0.98208747608E+01 -0.17665552709E+02 -0.70667363490E+02  0.73501004049E+02  0.00000000000E+00 0.  1.
</event>
<event>
12    1  0.2609167E-002  0.1826774E+03  0.7818608E-02  0.1165237E+00
          2   -1    0    0  502    0  0.00000000000E+00  0.00000000000E+00  0.58464513023E+03  0.58464513023E+03  0.00000000000E+00 0.  1.
         -2   -1    0    0    0  501 -0.00000000000E+00 -0.00000000000E+00 -0.60995136319E+02  0.60995136319E+02  0.00000000000E+00 0. -1.
          6    2    1    2  502    0  0.45017720361E+02 -0.44859663953E+02  0.18005625554E+03  0.25651276654E+03  0.17128794366E+03 0.  0.
         24    2    3    3    0    0  0.48512117119E+02 -0.88502206288E+02  0.88688754864E+02  0.15508795454E+03  0.77462974247E+02 0.  0.
         -6    2    1    2    0  501 -0.45017720361E+02  0.44859663953E+02  0.34359373837E+03  0.38912750000E+03  0.17124418126E+03 0.  0.
        -24    2    5    5    0    0 -0.97155864984E+02  0.37568767257E+02  0.24977661352E+03  0.28144608929E+03  0.77284346010E+02 0.  0.
          5    1    3    3  502    0 -0.34943967583E+01  0.43642542335E+02  0.91367500676E+02  0.10142481200E+03  0.47000000000E+01 0. -1.
        -11    1    4    4    0    0 -0.18485341954E+02 -0.12184269998E+02  0.31612532082E+02  0.38594254588E+02  0.00000000000E+00 0.  1.
         12    1    4    4    0    0  0.66997459073E+02 -0.76317936289E+02  0.57076222782E+02  0.11649369995E+03  0.00000000000E+00 0. -1.
         -5    1    5    5    0  501  0.52138144623E+02  0.72908966957E+01  0.93817124843E+02  0.10768141071E+03  0.47000000000E+01 0.  1.
         11    1    6    6    0    0 -0.66053954089E+01  0.38269545119E+02  0.84230323574E+02  0.92752017453E+02  0.00000000000E+00 0. -1.
        -12    1    6    6    0    0 -0.90550469575E+02 -0.70077786150E+00  0.16554628995E+03  0.18869407184E+03  0.00000000000E+00 0.  1.
</event>
<event>
12    1  0.2609167E-002  0.3438005E+03  0.7818608E-02  0.1065189E+00
         -1   -1    0    0    0  501 -0.00000000000E+00  0.00000000000E+00  0.15403927986E+03  0.15403927986E+03  0.00000000000E+00 0. -1.
          1   -1    0    0  502    0  0.00000000000E+00 -0.00000000000E+00 -0.85334727942E+03  0.85334727942E+03  0.00000000000E+00 0.  1.
          6    2    1    2  502    0  0.19728206301E+03  0.22376431213E+03 -0.50911925907E+03  0.61405387561E+03  0.16990898278E+03 0.  0.
         24    2    3    3    0    0  0.96655718285E+02  0.35371654454E+02 -0.23042929696E+03  0.26290200006E+03  0.73663552211E+02 0.  0.
         -6    2    1    2    0  501 -0.19728206301E+03 -0.22376431213E+03 -0.19018874050E+03  0.39333268368E+03  0.17189579188E+03 0.  0.
        -24    2    5    5    0    0 -0.11508477517E+03 -0.94402408463E+02 -0.29429825829E+02  0.17116964693E+03  0.79225079258E+02 0.  0.
          5    1    3    3  502    0  0.10062634473E+03  0.18839265768E+03 -0.27868996211E+03  0.35115187554E+03  0.47000000000E+01 0. -1.
        -11    1    4    4    0    0  0.86854913409E+02  0.21661721186E+02 -0.22913480486E+03  0.24599952225E+03  0.00000000000E+00 0.  1.
         12    1    4    4    0    0  0.98008048761E+01  0.13709933268E+02 -0.12944920961E+01  0.16902477813E+02  0.00000000000E+00 0. -1.
         -5    1    5    5    0  501 -0.82197287838E+02 -0.12936190367E+03 -0.16075891467E+03  0.22216303674E+03  0.47000000000E+01 0.  1.
         11    1    6    6    0    0 -0.67482709724E+02 -0.97193068155E+02 -0.71543530056E+01  0.11853941697E+03  0.00000000000E+00 0. -1.
        -12    1    6    6    0    0 -0.47602065448E+02  0.27906596921E+01 -0.22275472823E+02  0.52630229963E+02  0.00000000000E+00 0.  1.
</event>
<event>
12    1  0.2609167E-002  0.2407524E+03  0.7818608E-02  0.1119293E+00
          1   -1    0    0  502    0  0.00000000000E+00  0.00000000000E+00  0.38220732710E+03  0.38220732710E+03  0.00000000000E+00 0.  1.
         -1   -1    0    0    0  501 -0.00000000000E+00 -0.00000000000E+00 -0.15289962118E+03  0.15289962118E+03  0.00000000000E+00 0. -1.
          6    2    1    2  502    0 -0.18146054735E+02 -0.16751730895E+03  0.90453964130E+02  0.25716224653E+03  0.17192781425E+03 0.  0.
         24    2    3    3    0    0 -0.22431971078E+01 -0.19685661017E+02  0.16508690644E+01  0.83913359939E+02  0.81524042003E+02 0.  0.
         -6    2    1    2    0  501  0.18146054735E+02  0.16751730895E+03  0.13885374179E+03  0.27794470176E+03  0.17199292871E+03 0.  0.
        -24    2    5    5    0    0 -0.32466856310E+02  0.16945424721E+03  0.11644140499E+03  0.22235854039E+03  0.78204098574E+02 0.  0.
          5    1    3    3  502    0 -0.15902857627E+02 -0.14783164793E+03  0.88803095065E+02  0.17324888659E+03  0.47000000000E+01 0. -1.
        -11    1    4    4    0    0  0.65774894218E+01  0.23657030706E+02  0.24018405585E+02  0.34348249966E+02  0.00000000000E+00 0.  1.
         12    1    4    4    0    0 -0.88206865296E+01 -0.43342691722E+02 -0.22367536521E+02  0.49565109972E+02  0.00000000000E+00 0. -1.
         -5    1    5    5    0  501  0.50612911045E+02 -0.19369382597E+01  0.22412336795E+02  0.55586161361E+02  0.47000000000E+01 0.  1.
         11    1    6    6    0    0  0.15968676385E+02  0.62643275633E+02  0.12918708187E+02  0.65924742159E+02  0.00000000000E+00 0. -1.
        -12    1    6    6    0    0 -0.48435532694E+02  0.10681097158E+03  0.10352269681E+03  0.15643379823E+03  0.00000000000E+00 0.  1.
</event>
<event>
12    1  0.2609167E-002  0.4381630E+03  0.7818608E-02  0.1031312E+00
          1   -1    0    0  502    0  0.00000000000E+00  0.00000000000E+00  0.31566729846E+03  0.31566729846E+03  0.00000000000E+00 0. -1.
         -1   -1    0    0    0  501 -0.00000000000E+00 -0.00000000000E+00 -0.67499587838E+03  0.67499587838E+03  0.00000000000E+00 0.  1.
          6    2    1    2  502    0  0.36996810864E+03 -0.15223369060E+03 -0.25180732761E+02  0.44239433535E+03  0.18715549867E+03 0.  0.
         24    2    3    3    0    0  0.18085437197E+03 -0.11614000317E+03  0.42709148903E+02  0.23819373373E+03  0.93356195247E+02 0.  0.
         -6    2    1    2    0  501 -0.36996810864E+03  0.15223369060E+03 -0.33414784716E+03  0.54826884148E+03  0.16997776563E+03 0.  0.
        -24    2    5    5    0    0 -0.22750268364E+03  0.12149854752E+03 -0.28911562558E+03  0.39565482731E+03  0.80221750819E+02 0.  0.
          5    1    3    3  502    0  0.18911373667E+03 -0.36093687432E+02 -0.67889881664E+02  0.20420060162E+03  0.47000000000E+01 0. -1.
        -11    1    4    4    0    0  0.43457757530E+01  0.10410727210E+02  0.15700734186E+02  0.19333444129E+02  0.00000000000E+00 0.  1.
         12    1    4    4    0    0  0.17650859622E+03 -0.12655073038E+03  0.27008414717E+02  0.21886028960E+03  0.00000000000E+00 0. -1.
         -5    1    5    5    0  501 -0.14246542500E+03  0.30735143083E+02 -0.45032221575E+02  0.15261401417E+03  0.47000000000E+01 0.  1.
         13    1    6    6    0    0 -0.16634057139E+03  0.76064636907E+02 -0.25068857531E+03  0.31032205283E+03  0.00000000000E+00 0. -1.
        -14    1    6    6    0    0 -0.61162112253E+02  0.45433910614E+02 -0.38427050270E+02  0.85332774485E+02  0.00000000000E+00 0.  1.
</event>
<event>
12    1  0.2609167E-002  0.1837715E+03  0.7818608E-02  0.1164202E+00
          1   -1    0    0  502    0  0.00000000000E+00  0.00000000000E+00  0.15003002029E+04  0.15003002029E+04  0.00000000000E+00 0. -1.
         -1   -1    0    0    0  501 -0.00000000000E+00 -0.00000000000E+00 -0.27061463873E+02  0.27061463873E+02  0.00000000000E+00 0.  1.
          6    2    1    2  502    0 -0.62513883318E+02  0.20617743358E+02  0.42343139145E+03  0.46159088394E+03  0.17157774890E+03 0.  0.
         24    2    3    3    0    0 -0.99904534440E+02  0.45332891319E+02  0.34640181072E+03  0.37234658083E+03  0.81312820298E+02 0.  0.
         -6    2    1    2    0  501  0.62513883318E+02 -0.20617743358E+02  0.10498073476E+04  0.10657707829E+04  0.17157743902E+03 0.  0.
        -24    2    5    5    0    0  0.13592634246E+02 -0.35371056315E+01  0.21350037493E+03  0.22784687264E+03  0.78323153996E+02 0.  0.
          5    1    3    3  502    0  0.37390651122E+02 -0.24715147961E+02  0.77029580728E+02  0.89244303107E+02  0.47000000000E+01 0. -1.
        -13    1    4    4    0    0 -0.41660287617E+02  0.53695913636E+02  0.11500064557E+03  0.13358135793E+03  0.00000000000E+00 0.  1.
         14    1    4    4    0    0 -0.58244246823E+02 -0.83630223166E+01  0.23140116515E+03  0.23876522289E+03  0.00000000000E+00 0. -1.
         -5    1    5    5    0  501  0.48921249072E+02 -0.17080637727E+02  0.83630697268E+03  0.83792391024E+03  0.47000000000E+01 0.  1.
         11    1    6    6    0    0 -0.30533320996E+01  0.21277488505E+02  0.18599847107E+03  0.18723644302E+03  0.00000000000E+00 0. -1.
        -12    1    6    6    0    0  0.16645966345E+02 -0.24814594137E+02  0.27501903865E+02  0.40610429620E+02  0.00000000000E+00 0.  1.
</event>
<event>
12    1  0.2609167E-002  0.1729765E+03  0.7818608E-02  0.1174779E+00
          1   -1    0    0  502    0  0.00000000000E+00  0.00000000000E+00  0.50713666687E+03  0.50713666687E+03  0.00000000000E+00 0. -1.
         -1   -1    0    0    0  501 -0.00000000000E+00 -0.00000000000E+00 -0.10922792594E+03  0.10922792594E+03  0.00000000000E+00 0.  1.
          6    2    1    2  502    0  0.14648316874E+02 -0.24667216479E+01 -0.10491154415E+02  0.17255074181E+03  0.17158973243E+03 0.  0.
         24    2    3    3    0    0 -0.42652153619E+02 -0.44138355535E+02 -0.39384571120E+01  0.10124227926E+03  0.80418200843E+02 0.  0.
         -6    2    1    2    0  501 -0.14648316874E+02  0.24667216479E+01  0.40839989534E+03  0.44381385100E+03  0.17308842228E+03 0.  0.
        -24    2    5    5    0    0  0.78811327915E+01  0.19540072229E+02  0.13957462312E+03  0.17346557121E+03  0.10082312384E+03 0.  0.
          5    1    3    3  502    0  0.57300470493E+02  0.41671633887E+02 -0.65526973027E+01  0.71308462552E+02  0.47000000000E+01 0. -1.
        -11    1    4    4    0    0  0.63920283764E+01 -0.44551221439E+02 -0.20526376669E+02  0.49467175962E+02  0.00000000000E+00 0.  1.
         12    1    4    4    0    0 -0.49044181995E+02  0.41286590392E+00  0.16587919557E+02  0.51775103294E+02  0.00000000000E+00 0. -1.
         -5    1    5    5    0  501 -0.22529449666E+02 -0.17073350582E+02  0.26882527222E+03  0.27034827979E+03  0.47000000000E+01 0.  1.
         13    1    6    6    0    0  0.31467475226E+02 -0.20770073280E+02  0.11430728561E+03  0.12036508416E+03  0.00000000000E+00 0. -1.
        -14    1    6    6    0    0 -0.23586342435E+02  0.40310145509E+02  0.25267337506E+02  0.53100487051E+02  0.00000000000E+00 0.  1.
</event>
<event>
12    1  0.2609167E-002  0.2492379E+03  0.7818608E-02  0.1113787E+00
         -1   -1    0    0    0  501 -0.00000000000E+00  0.00000000000E+00  0.39851629664E+03  0.39851629664E+03  0.00000000000E+00 0.  1.
          1   -1    0    0  502    0  0.00000000000E+00 -0.00000000000E+00 -0.17083516094E+03  0.17083516094E+03  0.00000000000E+00 0. -1.
          6    2    1    2  502    0 -0.17240549182E+03 -0.54425830909E+02  0.19788374783E+03  0.31788115883E+03  0.17089361838E+03 0.  0.
         24    2    3    3    0    0 -0.60042941508E+02 -0.71267955959E+02  0.51382125327E+02  0.13242546254E+03  0.78816901459E+02 0.  0.
         -6    2    1    2    0  501  0.17240549182E+03  0.54425830909E+02  0.29797387868E+02  0.25147029874E+03  0.17223124613E+03 0.  0.
        -24    2    5    5    0    0  0.11361387466E+03  0.54229169419E+02 -0.44559691025E+02  0.15656214258E+03  0.81714277170E+02 0.  0.
          5    1    3    3  502    0 -0.11236255031E+03  0.16842125049E+02  0.14650162251E+03  0.18545569629E+03  0.47000000000E+01 0. -1.
        -11    1    4    4    0    0 -0.53491592025E+02 -0.62150700677E+02  0.71886159725E+02  0.10904897969E+03  0.00000000000E+00 0.  1.
         12    1    4    4    0    0 -0.65513494831E+01 -0.91172552821E+01 -0.20504034398E+02  0.23376482852E+02  0.00000000000E+00 0. -1.
         -5    1    5    5    0  501  0.58791617163E+02  0.19666149000E+00  0.74357078893E+02  0.94908156161E+02  0.47000000000E+01 0.  1.
         11    1    6    6    0    0  0.70416402180E+01 -0.16187362176E+02 -0.19662009759E+02  0.26423663995E+02  0.00000000000E+00 0. -1.
        -12    1    6    6    0    0  0.10657223444E+03  0.70416531595E+02 -0.24897681267E+02  0.13013847858E+03  0.00000000000E+00 0.  1.
</event>
<event>
12    1  0.2609167E-002  0.2229698E+03  0.7818608E-02  0.1131688E+00
         -2   -1    0    0    0  501 -0.00000000000E+00  0.00000000000E+00  0.14007048343E+04  0.14007048343E+04  0.00000000000E+00 0. -1.
          2   -1    0    0  502    0  0.00000000000E+00 -0.00000000000E+00 -0.35512793516E+02  0.35512793516E+02  0.00000000000E+00 0.  1.
          6    2    1    2  502    0  0.29941063543E+02  0.14338939091E+03  0.65975465432E+03  0.69551869303E+03  0.16435651415E+03 0.  0.
         24    2    3    3    0    0  0.12916375641E+02  0.11532400745E+03  0.27214436895E+03  0.30649256400E+03  0.80054199012E+02 0.  0.
         -6    2    1    2    0  501 -0.29941063543E+02 -0.14338939091E+03  0.70543738642E+03  0.74069893474E+03  0.17186046975E+03 0.  0.
        -24    2    5    5    0    0 -0.85973558190E+02 -0.10048425188E+03  0.52072906269E+03  0.54291181114E+03  0.78140516723E+02 0.  0.
          5    1    3    3  502    0  0.17024687902E+02  0.28065383460E+02  0.38761028537E+03  0.38902612903E+03  0.47000000000E+01 0. -1.
        -13    1    4    4    0    0  0.44567178990E+02  0.69996533523E+02  0.13294522105E+03  0.15671687832E+03  0.00000000000E+00 0.  1.
         14    1    4    4    0    0 -0.31650803349E+02  0.45327473922E+02  0.13919914790E+03  0.14977568568E+03  0.00000000000E+00 0. -1.
         -5    1    5    5    0  501  0.56032494647E+02 -0.42905139021E+02  0.18470832373E+03  0.19778712361E+03  0.47000000000E+01 0.  1.
         13    1    6    6    0    0 -0.25920030399E+02 -0.87425850580E+02  0.34018342859E+03  0.35219297610E+03  0.00000000000E+00 0. -1.
        -14    1    6    6    0    0 -0.60053527791E+02 -0.13058401304E+02  0.18054563410E+03  0.19071883504E+03  0.00000000000E+00 0.  1.
</event>
<event>
12    1  0.2609167E-002  0.1812750E+03  0.7818608E-02  0.1166575E+00
          2   -1    0    0  502    0  0.00000000000E+00  0.00000000000E+00  0.51004113147E+02  0.51004113147E+02  0.00000000000E+00 0. -1.
         -2   -1    0    0    0  501 -0.00000000000E+00 -0.00000000000E+00 -0.67714332225E+03  0.67714332225E+03  0.00000000000E+00 0.  1.
          6    2    1    2  502    0  0.58778957495E+02  0.37993664097E+01 -0.23180272750E+03  0.29386927597E+03  0.17075492923E+03 0.  0.
         24    2    3    3    0    0 -0.31972223172E+02 -0.83939013347E+01 -0.84510159804E+02  0.12037102506E+03  0.79085624044E+02 0.  0.
         -6    2    1    2    0  501 -0.58778957495E+02 -0.37993664097E+01 -0.39433648160E+03  0.43427815942E+03  0.17212454212E+03 0.  0.
        -24    2    5    5    0    0 -0.58896327240E+02  0.60872140174E+02 -0.26257114439E+03  0.28742240833E+03  0.80584366537E+02 0.  0.
          5    1    3    3  502    0  0.90751180666E+02  0.12193267744E+02 -0.14729256770E+03  0.17349825091E+03  0.47000000000E+01 0. -1.
        -13    1    4    4    0    0 -0.30199260997E+01 -0.19741804231E+01 -0.90117808637E+02  0.90190003745E+02  0.00000000000E+00 0.  1.
         14    1    4    4    0    0 -0.28952297072E+02 -0.64197209115E+01  0.56076488332E+01  0.30181021317E+02  0.00000000000E+00 0. -1.
         -5    1    5    5    0  501  0.11736974538E+00 -0.64671506584E+02 -0.13176533721E+03  0.14685575109E+03  0.47000000000E+01 0.  1.
         13    1    6    6    0    0  0.13191028108E+02 -0.59374568357E+01 -0.14024112478E+02  0.20147762829E+02  0.00000000000E+00 0. -1.
        -14    1    6    6    0    0 -0.72087355348E+02  0.66809597010E+02 -0.24854703191E+03  0.26727464550E+03  0.00000000000E+00 0.  1.
</event>
<event>
12    1  0.2609167E-002  0.2415544E+03  0.7818608E-02  0.1118762E+00
         -2   -1    0    0    0  501 -0.00000000000E+00  0.00000000000E+00  0.83824568056E+02  0.83824568056E+02  0.00000000000E+00 0.  1.
          2   -1    0    0  502    0  0.00000000000E+00 -0.00000000000E+00 -0.15212153763E+04  0.15212153763E+04  0.00000000000E+00 0. -1.
          6    2    1    2  502    0 -0.11995799082E+03  0.12129443044E+03 -0.12623485969E+03  0.27162924624E+03  0.16954335492E+03 0.  0.
         24    2    3    3    0    0 -0.41644231858E+02  0.13393424813E+03 -0.69792334344E+02  0.17415792481E+03  0.76074883977E+02 0.  0.
         -6    2    1    2    0  501  0.11995799082E+03 -0.12129443044E+03 -0.13111559486E+04  0.13334106982E+04  0.17248741981E+03 0.  0.
        -24    2    5    5    0    0  0.11812778549E+03 -0.56717620754E+02 -0.11406199617E+04  0.11509877643E+04  0.81165720145E+02 0.  0.
          5    1    3    3  502    0 -0.78313758965E+02 -0.12639817692E+02 -0.56442525345E+02  0.97471321433E+02  0.47000000000E+01 0. -1.
        -11    1    4    4    0    0 -0.61590011210E+02  0.92275070338E+02 -0.34998057788E+02  0.11633091651E+03  0.00000000000E+00 0.  1.
         12    1    4    4    0    0  0.19945779351E+02  0.41659177792E+02 -0.34794276556E+02  0.57827008303E+02  0.00000000000E+00 0. -1.
         -5    1    5    5    0  501  0.18302053304E+01 -0.64576809684E+02 -0.17053598685E+03  0.18242293390E+03  0.47000000000E+01 0.  1.
         11    1    6    6    0    0 -0.51092012070E+01  0.10761968724E+02 -0.52528477777E+02  0.53862462675E+02  0.00000000000E+00 0. -1.
        -12    1    6    6    0    0  0.12323698670E+03 -0.67479589478E+02 -0.10880914840E+04  0.10971253016E+04  0.00000000000E+00 0.  1.
</event>
<event>
12    1  0.2609167E-002  0.1920872E+03  0.7818608E-02  0.1156592E+00
         -1   -1    0    0    0  501 -0.00000000000E+00  0.00000000000E+00  0.49177528479E+02  0.49177528479E+02  0.00000000000E+00 0. -1.
          1   -1    0    0  502    0  0.00000000000E+00 -0.00000000000E+00 -0.80319997421E+03  0.80319997421E+03  0.00000000000E+00 0.  1.
          6    2    1    2  502    0 -0.26494300980E+02  0.82226905173E+02 -0.48564256159E+03  0.52210124575E+03  0.17110757221E+03 0.  0.
         24    2    3    3    0    0 -0.36110918677E+02 -0.12346484172E+02 -0.15887558614E+03  0.18175531651E+03  0.79605961385E+02 0.  0.
         -6    2    1    2    0  501  0.26494300980E+02 -0.82226905173E+02 -0.26837988414E+03  0.33027625694E+03  0.17202160262E+03 0.  0.
        -24    2    5    5    0    0  0.11713304201E+02  0.22075807737E+02 -0.79931273434E+02  0.11433065577E+03  0.77832818229E+02 0.  0.
          5    1    3    3  502    0  0.96166176964E+01  0.94573389345E+02 -0.32676697545E+03  0.34034592924E+03  0.47000000000E+01 0. -1.
        -11    1    4    4    0    0 -0.73765837583E+01 -0.12192878109E+02 -0.15139311104E+03  0.15206233701E+03  0.00000000000E+00 0.  1.
         12    1    4    4    0    0 -0.28734334919E+02 -0.15360606250E+00 -0.74824750969E+01  0.29692979500E+02  0.00000000000E+00 0. -1.
         -5    1    5    5    0  501  0.14780996779E+02 -0.10430271291E+03 -0.18844861071E+03  0.21594560117E+03  0.47000000000E+01 0.  1.
         13    1    6    6    0    0 -0.24855717766E+02  0.10678197427E+01 -0.10712072367E+01  0.24901695316E+02  0.00000000000E+00 0. -1.
        -14    1    6    6    0    0  0.36569021968E+02  0.21007987994E+02 -0.78860066197E+02  0.89428960453E+02  0.00000000000E+00 0.  1.
</event>
<event>
12    1  0.2609167E-002  0.3042332E+03  0.7818608E-02  0.1083143E+00
          1   -1    0    0  502    0  0.00000000000E+00  0.00000000000E+00  0.15384947870E+04  0.15384947870E+04  0.00000000000E+00 0.  1.
         -1   -1    0    0    0  501 -0.00000000000E+00 -0.00000000000E+00 -0.67807505327E+02  0.67807505327E+02  0.00000000000E+00 0. -1.
          6    2    1    2  502    0 -0.24218908027E+03  0.65424447257E+02  0.10048058298E+04  0.10498214280E+04  0.17191383326E+03 0.  0.
         24    2    3    3    0    0 -0.12298576749E+03  0.47154833900E+02  0.77517963192E+03  0.79041154128E+03  0.80609338594E+02 0.  0.
         -6    2    1    2    0  501  0.24218908027E+03 -0.65424447257E+02  0.46588145185E+03  0.55648086436E+03  0.17230646049E+03 0.  0.
        -24    2    5    5    0    0  0.49309757423E+02 -0.27857559815E+02  0.22738289267E+03  0.24742203996E+03  0.79417820174E+02 0.  0.
          5    1    3    3  502    0 -0.11920331278E+03  0.18269613357E+02  0.22962619790E+03  0.25940988669E+03  0.47000000000E+01 0. -1.
        -13    1    4    4    0    0 -0.11110129879E+03  0.38158990572E+02  0.45613211609E+03  0.47101604483E+03  0.00000000000E+00 0.  1.
         14    1    4    4    0    0 -0.11884468699E+02  0.89958433283E+01  0.31904751583E+03  0.31939549645E+03  0.00000000000E+00 0. -1.
         -5    1    5    5    0  501  0.19287932284E+03 -0.37566887442E+02  0.23849855918E+03  0.30905882441E+03  0.47000000000E+01 0.  1.
         13    1    6    6    0    0  0.20895185322E+02 -0.36405530483E+02  0.40947644298E+02  0.58640267674E+02  0.00000000000E+00 0. -1.
        -14    1    6    6    0    0  0.28414572101E+02  0.85479706679E+01  0.18643524837E+03  0.18878177228E+03  0.00000000000E+00 0.  1.
</event>
<event>
12    1  0.2609167E-002  0.1716047E+03  0.7818608E-02  0.1176185E+00
         -1   -1    0    0    0  501 -0.00000000000E+00  0.00000000000E+00  0.29259442328E+02  0.29259442328E+02  0.00000000000E+00 0.  1.
          1   -1    0    0  502    0  0.00000000000E+00 -0.00000000000E+00 -0.10721455783E+04  0.10721455783E+04  0.00000000000E+00 0. -1.
          6    2    1    2  502    0  0.15326320284E+02  0.97372433078E+01 -0.65680350401E+03  0.67876676644E+03  0.17030493340E+03 0.  0.
         24    2    3    3    0    0  0.66320918377E+02 -0.24327909035E+01 -0.30653892193E+03  0.32456918567E+03  0.83514447478E+02 0.  0.
         -6    2    1    2    0  501 -0.15326320284E+02 -0.97372433078E+01 -0.38608263195E+03  0.42263825418E+03  0.17097831792E+03 0.  0.
        -24    2    5    5    0    0 -0.29985576351E+02 -0.34006620571E+02 -0.38337273598E+03  0.39377079850E+03  0.77622174837E+02 0.  0.
          5    1    3    3  502    0 -0.50994598093E+02  0.12170034211E+02 -0.35026458208E+03  0.35419758077E+03  0.47000000000E+01 0. -1.
        -13    1    4    4    0    0  0.32843928145E+02  0.20316520732E+02 -0.42419169595E+02  0.57366110028E+02  0.00000000000E+00 0.  1.
         14    1    4    4    0    0  0.33476990232E+02 -0.22749311635E+02 -0.26411975234E+03  0.26720307564E+03  0.00000000000E+00 0. -1.
         -5    1    5    5    0  501  0.14659256067E+02  0.24269377263E+02 -0.27098959704E+01  0.28867455679E+02  0.47000000000E+01 0.  1.
         13    1    6    6    0    0 -0.44190866201E+02 -0.54054423252E+01 -0.31704628708E+03  0.32015683596E+03  0.00000000000E+00 0. -1.
        -14    1    6    6    0    0  0.14205289850E+02 -0.28601178246E+02 -0.66326448902E+02  0.73613962539E+02  0.00000000000E+00 0.  1.
</event>
<event>
12    1  0.2609167E-002  0.1784234E+03  0.7818608E-02  0.1169338E+00
          4   -1    0    0  502    0  0.00000000000E+00  0.00000000000E+00  0.33079674806E+02  0.33079674806E+02  0.00000000000E+00 0.  1.
         -4   -1    0    0    0  501 -0.00000000000E+00 -0.00000000000E+00 -0.96251026264E+03  0.96251026264E+03  0.00000000000E+00 0. -1.
          6    2    1    2  502    0  0.35205601937E+02 -0.47794671169E+02 -0.46142998054E+03  0.49400148395E+03  0.16612066157E+03 0.  0.
         24    2    3    3    0    0  0.34755463882E+02 -0.66163550638E+02 -0.17282970278E+03  0.20477868284E+03  0.80490030934E+02 0.  0.
         -6    2    1    2    0  501 -0.35205601937E+02  0.47794671169E+02 -0.46800060729E+03  0.50158845349E+03  0.17041902258E+03 0.  0.
        -24    2    5    5    0    0 -0.44069938949E+02 -0.54447691272E+01 -0.41795018970E+03  0.42783108929E+03  0.79907914897E+02 0.  0.
          5    1    3    3  502    0  0.45013805549E+00  0.18368879469E+02 -0.28860027776E+03  0.28922280111E+03  0.47000000000E+01 0. -1.
        -11    1    4    4    0    0 -0.13214596642E+02  0.12035214655E+02 -0.33252515816E+02  0.37751844515E+02  0.00000000000E+00 0.  1.
         12    1    4    4    0    0  0.47970060523E+02 -0.78198765292E+02 -0.13957718696E+03  0.16702683832E+03  0.00000000000E+00 0. -1.
         -5    1    5    5    0  501  0.88643370119E+01  0.53239440296E+02 -0.50050417591E+02  0.73757364207E+02  0.47000000000E+01 0.  1.
         13    1    6    6    0    0 -0.30865220918E+02  0.35866473292E+02 -0.24484677084E+03  0.24937723825E+03  0.00000000000E+00 0. -1.
        -14    1    6    6    0    0 -0.13204718031E+02 -0.41311242419E+02 -0.17310341886E+03  0.17845385103E+03  0.00000000000E+00 0.  1.
</event>
<event>
12    1  0.2609167E-002  0.2460436E+03  0.7818608E-02  0.1115831E+00
          2   -1    0    0  502    0  0.00000000000E+00  0.00000000000E+00  0.15104855948E+04  0.15104855948E+04  0.00000000000E+00 0.  1.
         -2   -1    0    0    0  501 -0.00000000000E+00 -0.00000000000E+00 -0.44893825525E+02  0.44893825525E+02  0.00000000000E+00 0. -1.
          6    2    1    2  502    0  0.73722120829E+01  0.17488141425E+03  0.48050155062E+03  0.54024491229E+03  0.17419806701E+03 0.  0.
         24    2    3    3    0    0 -0.14670557838E+02  0.64584853848E+02  0.36142760527E+03  0.37637938997E+03  0.81517499552E+02 0.  0.
         -6    2    1    2    0  501 -0.73722120829E+01 -0.17488141425E+03  0.98509021862E+03  0.10151345080E+04  0.17163179175E+03 0.  0.
        -24    2    5    5    0    0  0.26175775927E+02 -0.21787599471E+02  0.28707330973E+03  0.29972352212E+03  0.79140595226E+02 0.  0.
          5    1    3    3  502    0  0.22042769921E+02  0.11029656041E+03  0.11907394535E+03  0.16386552232E+03  0.47000000000E+01 0. -1.
        -11    1    4    4    0    0 -0.21468171009E+02  0.80680514661E+02  0.33025238792E+03  0.34064184643E+03  0.00000000000E+00 0.  1.
         12    1    4    4    0    0  0.67976131714E+01 -0.16095660813E+02  0.31175217350E+02  0.35737543545E+02  0.00000000000E+00 0. -1.
         -5    1    5    5    0  501 -0.33547988010E+02 -0.15309381478E+03  0.69801690889E+03  0.71541098588E+03  0.47000000000E+01 0.  1.
         11    1    6    6    0    0  0.52650884660E+02 -0.11176276566E+02  0.22595835708E+03  0.23228044246E+03  0.00000000000E+00 0. -1.
        -12    1    6    6    0    0 -0.26475108734E+02 -0.10611322905E+02  0.61114952651E+02  0.67443079658E+02  0.00000000000E+00 0.  1.
</event>
<event>
12    1  0.2609167E-002  0.1867673E+03  0.7818608E-02  0.1161410E+00
         -2   -1    0    0    0  501 -0.00000000000E+00  0.00000000000E+00  0.25184749200E+02  0.25184749200E+02  0.00000000000E+00 0. -1.
          2   -1    0    0  502    0  0.00000000000E+00 -0.00000000000E+00 -0.14997911145E+04  0.14997911145E+04  0.00000000000E+00 0.  1.
          6    2    1    2  502    0  0.42426593239E+02 -0.45470372664E+02 -0.54727237595E+03  0.58005892276E+03  0.18191682107E+03 0.  0.
         24    2    3    3    0    0  0.95787939183E+02 -0.33458450761E+02 -0.29879538946E+03  0.32558962731E+03  0.80219221078E+02 0.  0.
         -6    2    1    2    0  501 -0.42426593239E+02  0.45470372664E+02 -0.92733398932E+03  0.94491694091E+03  0.17044684471E+03 0.  0.
        -24    2    5    5    0    0 -0.85113036064E+02  0.49659715135E+02 -0.80457312226E+03  0.81479390885E+03  0.82709664633E+02 0.  0.
          5    1    3    3  502    0 -0.53361345944E+02 -0.12011921904E+02 -0.24847698650E+03  0.25446929545E+03  0.47000000000E+01 0. -1.
        -11    1    4    4    0    0  0.81138149169E+02  0.61206404990E+01 -0.23844855499E+03  0.25194954826E+03  0.00000000000E+00 0.  1.
         12    1    4    4    0    0  0.14649790015E+02 -0.39579091260E+02 -0.60346834462E+02  0.73640079047E+02  0.00000000000E+00 0. -1.
         -5    1    5    5    0  501  0.42686442825E+02 -0.41893424713E+01 -0.12276086705E+03  0.13012303206E+03  0.47000000000E+01 0.  1.
         11    1    6    6    0    0  0.16239146618E+02  0.51297231099E+01 -0.78161369132E+02  0.79995147144E+02  0.00000000000E+00 0. -1.
        -12    1    6    6    0    0 -0.10135218268E+03  0.44529992025E+02 -0.72641175313E+03  0.73479876171E+03  0.00000000000E+00 0.  1.
</event>
<event>
12    1  0.2609167E-002  0.2819207E+03  0.7818608E-02  0.1094645E+00
         -4   -1    0    0    0  501 -0.00000000000E+00  0.00000000000E+00  0.10996281176E+03  0.10996281176E+03  0.00000000000E+00 0.  1.
          4   -1    0    0  502    0  0.00000000000E+00 -0.00000000000E+00 -0.77432329343E+03  0.77432329343E+03  0.00000000000E+00 0. -1.
          6    2    1    2  502    0  0.10113525590E+03 -0.19878613318E+03 -0.21801469843E+03  0.35631602518E+03  0.17229751693E+03 0.  0.
         24    2    3    3    0    0  0.84214226052E+02 -0.58039596653E+02 -0.58149467895E+02  0.14259917810E+03  0.80576264049E+02 0.  0.
         -6    2    1    2    0  501 -0.10113525590E+03  0.19878613318E+03 -0.44634578325E+03  0.52797008001E+03  0.17257920048E+03 0.  0.
        -24    2    5    5    0    0 -0.29574701696E+02  0.19112577826E+03 -0.34521208846E+03  0.40375370357E+03  0.80261703383E+02 0.  0.
          5    1    3    3  502    0  0.16921029851E+02 -0.14074653652E+03 -0.15986523053E+03  0.21371684708E+03  0.47000000000E+01 0. -1.
        -13    1    4    4    0    0  0.65639871921E+02 -0.72774541198E+02 -0.65381947933E+02  0.11781139906E+03  0.00000000000E+00 0.  1.
         14    1    4    4    0    0  0.18574354132E+02  0.14734944545E+02  0.72324800387E+01  0.24787779039E+02  0.00000000000E+00 0. -1.
         -5    1    5    5    0  501 -0.71560554208E+02  0.76603549163E+01 -0.10113369478E+03  0.12421637644E+03  0.47000000000E+01 0.  1.
         13    1    6    6    0    0 -0.36029570729E+02  0.33799267853E+02 -0.57795107722E+02  0.76031539185E+02  0.00000000000E+00 0. -1.
        -14    1    6    6    0    0  0.64548690324E+01  0.15732651041E+03 -0.28741698074E+03  0.32772216438E+03  0.00000000000E+00 0.  1.
</event>
<event>
12    1  0.2609167E-002  0.2209662E+03  0.7818608E-02  0.1133165E+00
         -1   -1    0    0    0  501 -0.00000000000E+00  0.00000000000E+00  0.12674975940E+03  0.12674975940E+03  0.00000000000E+00 0.  1.
          1   -1    0    0  502    0  0.00000000000E+00 -0.00000000000E+00 -0.38522819062E+03  0.38522819062E+03  0.00000000000E+00 0. -1.
          6    2    1    2  502    0 -0.10720110825E+03  0.86354218911E+02 -0.13081765833E+03  0.25709167318E+03  0.17330245225E+03 0.  0.
         24    2    3    3    0    0 -0.12218138680E+03  0.66244743800E+02 -0.15420213502E+03  0.22248353130E+03  0.80024782988E+02 0.  0.
         -6    2    1    2    0  501  0.10720110825E+03 -0.86354218911E+02 -0.12766077288E+03  0.25488627684E+03  0.17239667182E+03 0.  0.
        -24    2    5    5    0    0  0.45603412201E+02  0.85175256991E+01 -0.10212300272E+03  0.13882942961E+03  0.81806377456E+02 0.  0.
          5    1    3    3  502    0  0.14980278550E+02  0.20109475111E+02  0.23384476691E+02  0.34608141886E+02  0.47000000000E+01 0. -1.
        -11    1    4    4    0    0 -0.44501457168E+02  0.49181149586E+02 -0.25234097148E+02  0.70964250321E+02  0.00000000000E+00 0.  1.
         12    1    4    4    0    0 -0.77679929633E+02  0.17063594214E+02 -0.12896803787E+03  0.15151928098E+03  0.00000000000E+00 0. -1.
         -5    1    5    5    0  501  0.61597696050E+02 -0.94871744610E+02 -0.25537770164E+02  0.11605684723E+03  0.47000000000E+01 0.  1.
         13    1    6    6    0    0  0.69167301846E+02  0.11547206179E+02 -0.79744478448E+02  0.10619150370E+03  0.00000000000E+00 0. -1.
        -14    1    6    6    0    0 -0.23563889645E+02 -0.30296804802E+01 -0.22378524271E+02  0.32637925908E+02  0.00000000000E+00 0.  1.
</event>
<event>
12    1  0.2609167E-002  0.1729957E+03  0.7818608E-02  0.1174759E+00
         -2   -1    0    0    0  501 -0.00000000000E+00  0.00000000000E+00  0.97670856115E+02  0.97670856115E+02  0.00000000000E+00 0. -1.
          2   -1    0    0  502    0  0.00000000000E+00 -0.00000000000E+00 -0.37847290555E+03  0.37847290555E+03  0.00000000000E+00 0.  1.
          6    2    1    2  502    0 -0.13256418647E+02  0.99771967839E+01 -0.36606387468E+02  0.17695648604E+03  0.17233192756E+03 0.  0.
         24    2    3    3    0    0  0.29837982502E+02  0.34591754347E+02  0.27504928294E+02  0.95744697097E+02  0.79521263025E+02 0.  0.
         -6    2    1    2    0  501  0.13256418647E+02 -0.99771967839E+01 -0.24419566197E+03  0.29918727563E+03  0.17206460264E+03 0.  0.
        -24    2    5    5    0    0 -0.46291078018E+02 -0.26120766586E+02 -0.93405657447E+02  0.13619575846E+03  0.83663070875E+02 0.  0.
          5    1    3    3  502    0 -0.43094401149E+02 -0.24614557563E+02 -0.64111315762E+02  0.81211788942E+02  0.47000000000E+01 0. -1.
        -11    1    4    4    0    0  0.73971793651E+01  0.52821477852E+02 -0.33735267968E+01  0.53443497902E+02  0.00000000000E+00 0.  1.
         12    1    4    4    0    0  0.22440803137E+02 -0.18229723505E+02  0.30878455091E+02  0.42301199195E+02  0.00000000000E+00 0. -1.
         -5    1    5    5    0  501  0.59547496665E+02  0.16143569802E+02 -0.15079000452E+03  0.16299151717E+03  0.47000000000E+01 0.  1.
         13    1    6    6    0    0 -0.11318170775E+02  0.24305905016E+02 -0.30696836892E+01  0.26987051826E+02  0.00000000000E+00 0. -1.
        -14    1    6    6    0    0 -0.34972907243E+02 -0.50426671602E+02 -0.90335973757E+02  0.10920870663E+03  0.00000000000E+00 0.  1.
</event>
<event>
12    1  0.2609167E-002  0.1952984E+03  0.7818608E-02  0.1153768E+00
          2   -1    0    0  502    0  0.00000000000E+00  0.00000000000E+00  0.13987807103E+03  0.13987807103E+03  0.00000000000E+00 0. -1.
         -2   -1    0    0    0  501 -0.00000000000E+00 -0.00000000000E+00 -0.32573216462E+03  0.32573216462E+03  0.00000000000E+00 0.  1.
          6    2    1    2  502    0 -0.92052353979E+02  0.11218830375E+02  0.91032416098E+00  0.19559892890E+03  0.17221676535E+03 0.  0.
         24    2    3    3    0    0 -0.52528848648E+02  0.46856986591E+02 -0.44323693085E+02  0.12559612918E+03  0.94100694813E+02 0.  0.
         -6    2    1    2    0  501  0.92052353979E+02 -0.11218830375E+02 -0.18676441776E+03  0.27001130674E+03  0.17153909176E+03 0.  0.
        -24    2    5    5    0    0  0.81833677691E+02  0.31098802480E+01 -0.39245636653E+02  0.12137209903E+03  0.80526668043E+02 0.  0.
          5    1    3    3  502    0 -0.39523505331E+02 -0.35638156217E+02  0.45234017246E+02  0.70002799718E+02  0.47000000000E+01 0. -1.
        -13    1    4    4    0    0 -0.12562231148E+02 -0.17393309432E+02  0.17655495921E+02  0.27785848928E+02  0.00000000000E+00 0.  1.
         14    1    4    4    0    0 -0.39966617499E+02  0.64250296024E+02 -0.61979189006E+02  0.97810280254E+02  0.00000000000E+00 0. -1.
         -5    1    5    5    0  501  0.10218676287E+02 -0.14328710623E+02 -0.14751878110E+03  0.14863920772E+03  0.47000000000E+01 0.  1.
         11    1    6    6    0    0  0.59645046809E+01 -0.82752976838E+01  0.21315469426E+02  0.23630596791E+02  0.00000000000E+00 0. -1.
        -12    1    6    6    0    0  0.75869173010E+02  0.11385177932E+02 -0.60561106079E+02  0.97741502236E+02  0.00000000000E+00 0.  1.
</event>
<event>
12    1  0.2609167E-002  0.1825246E+03  0.7818608E-02  0.1165382E+00
          2   -1    0    0  502    0  0.00000000000E+00  0.00000000000E+00  0.94397009853E+03  0.94397009853E+03  0.00000000000E+00 0. -1.
         -2   -1    0    0    0  501 -0.00000000000E+00 -0.00000000000E+00 -0.38977768193E+02  0.38977768193E+02  0.00000000000E+00 0.  1.
          6    2    1    2  502    0  0.24040690445E+02 -0.80880315077E+01  0.62232061741E+03  0.65126131508E+03  0.19030233476E+03 0.  0.
         24    2    3    3    0    0 -0.23228995360E+02  0.62830593701E+01  0.11976244238E+03  0.14625858168E+03  0.80432997276E+02 0.  0.
         -6    2    1    2    0  501 -0.24040690445E+02  0.80880315077E+01  0.28267171293E+03  0.33168655164E+03  0.17166624654E+03 0.  0.
        -24    2    5    5    0    0  0.42188190398E+02  0.40455616839E+02  0.16469670346E+03  0.19249561050E+03  0.80703504186E+02 0.  0.
          5    1    3    3  502    0  0.47269685805E+02 -0.14371090878E+02  0.50255817503E+03  0.50500273340E+03  0.47000000000E+01 0. -1.
        -11    1    4    4    0    0 -0.27304703933E+02 -0.33480101165E+02  0.52217304569E+02  0.67772493884E+02  0.00000000000E+00 0.  1.
         12    1    4    4    0    0  0.40757085732E+01  0.39763160535E+02  0.67545137809E+02  0.78486087797E+02  0.00000000000E+00 0. -1.
         -5    1    5    5    0  501 -0.66228880842E+02 -0.32367585331E+02  0.11797500947E+03  0.13919094115E+03  0.47000000000E+01 0.  1.
         13    1    6    6    0    0  0.27290023916E+02  0.41237129356E+01  0.14674674573E+03  0.14931964973E+03  0.00000000000E+00 0. -1.
        -14    1    6    6    0    0  0.14898166482E+02  0.36331903903E+02  0.17949957731E+02  0.43175960769E+02  0.00000000000E+00 0.  1.
</event>
<event>
12    1  0.2609167E-002  0.1845535E+03  0.7818608E-02  0.1163468E+00
          1   -1    0    0  502    0  0.00000000000E+00  0.00000000000E+00  0.12312944847E+04  0.12312944847E+04  0.00000000000E+00 0.  1.
         -1   -1    0    0    0  501 -0.00000000000E+00 -0.00000000000E+00 -0.28816784712E+02  0.28816784712E+02  0.00000000000E+00 0. -1.
          6    2    1    2  502    0 -0.64144490563E+02  0.86239388532E+01  0.72536499579E+03  0.74831862354E+03  0.17215544495E+03 0.  0.
         24    2    3    3    0    0 -0.43774227270E+02  0.62585925662E+02  0.60648337269E+03  0.61609996389E+03  0.76966896126E+02 0.  0.
         -6    2    1    2    0  501  0.64144490563E+02 -0.86239388532E+01  0.47711270418E+03  0.51179264585E+03  0.17351164765E+03 0.  0.
        -24    2    5    5    0    0 -0.96352075378E+01  0.33173154844E+02  0.33468120625E+03  0.34596363001E+03  0.80535880494E+02 0.  0.
          5    1    3    3  502    0 -0.20370263293E+02 -0.53961986808E+02  0.11888162310E+03  0.13221865964E+03  0.47000000000E+01 0. -1.
        -11    1    4    4    0    0 -0.48536877761E+02  0.61274259343E+01  0.21220090776E+03  0.21776730495E+03  0.00000000000E+00 0.  1.
         12    1    4    4    0    0  0.47626504911E+01  0.56458499727E+02  0.39428246492E+03  0.39833265894E+03  0.00000000000E+00 0. -1.
         -5    1    5    5    0  501  0.73779698100E+02 -0.41797093697E+02  0.14243149793E+03  0.16582901584E+03  0.47000000000E+01 0.  1.
         11    1    6    6    0    0  0.17280045222E+02  0.48772488166E+02  0.14983101156E+03  0.15851399809E+03  0.00000000000E+00 0. -1.
        -12    1    6    6    0    0 -0.26915252759E+02 -0.15599333323E+02  0.18485019469E+03  0.18744963192E+03  0.00000000000E+00 0.  1.
</event>
<event>
12    1  0.2609167E-002  0.2525957E+03  0.7818608E-02  0.1111675E+00
         -1   -1    0    0    0  501 -0.00000000000E+00  0.00000000000E+00  0.70635938153E+02  0.70635938153E+02  0.00000000000E+00 0. -1.
          1   -1    0    0  502    0  0.00000000000E+00 -0.00000000000E+00 -0.90445416801E+03  0.90445416801E+03  0.00000000000E+00 0.  1.
          6    2    1    2  502    0 -0.14870303873E+03 -0.10854154024E+03 -0.39968193026E+03  0.47290150512E+03  0.17319448167E+03 0.  0.
         24    2    3    3    0    0 -0.70497782637E+02 -0.12933681320E+03 -0.22090072889E+03  0.27660246431E+03  0.77548969260E+02 0.  0.
         -6    2    1    2    0  501  0.14870303873E+03  0.10854154024E+03 -0.43413629960E+03  0.50218860105E+03  0.17269975308E+03 0.  0.
        -24    2    5    5    0    0  0.14071718313E+03  0.55269198765E+02 -0.20415128562E+03  0.26593256852E+03  0.78653503523E+02 0.  0.
          5    1    3    3  502    0 -0.78205256088E+02  0.20795272965E+02 -0.17878120137E+03  0.19629904080E+03  0.47000000000E+01 0. -1.
        -11    1    4    4    0    0 -0.87260701420E+01 -0.49494783814E+02 -0.24799525615E+02  0.56043682923E+02  0.00000000000E+00 0.  1.
         12    1    4    4    0    0 -0.61771712495E+02 -0.79842029386E+02 -0.19610120328E+03  0.22055878139E+03  0.00000000000E+00 0. -1.
         -5    1    5    5    0  501  0.79858555975E+01  0.53272341470E+02 -0.22998501397E+03  0.23625603253E+03  0.47000000000E+01 0.  1.
         11    1    6    6    0    0  0.12372576741E+03  0.14328626158E+02 -0.16542528744E+03  0.20707221149E+03  0.00000000000E+00 0. -1.
        -12    1    6    6    0    0  0.16991415722E+02  0.40940572607E+02 -0.38725998179E+02  0.58860357021E+02  0.00000000000E+00 0.  1.
</event>
<event>
12    1  0.2609167E-002  0.3191942E+03  0.7818608E-02  0.1076021E+00
          4   -1    0    0  502    0  0.00000000000E+00  0.00000000000E+00  0.42234052375E+03  0.42234052375E+03  0.00000000000E+00 0.  1.
         -4   -1    0    0    0  501 -0.00000000000E+00 -0.00000000000E+00 -0.28328354717E+03  0.28328354717E+03  0.00000000000E+00 0. -1.
          6    2    1    2  502    0  0.35002708380E+02 -0.26540817523E+03  0.20548268266E+03  0.37976397742E+03  0.17415756257E+03 0.  0.
         24    2    3    3    0    0 -0.24404329951E+02 -0.20662968148E+03  0.97879340732E+02  0.24343834988E+03  0.79940404435E+02 0.  0.
         -6    2    1    2    0  501 -0.35002708380E+02  0.26540817523E+03 -0.66425706083E+02  0.32586009349E+03  0.17351004879E+03 0.  0.
        -24    2    5    5    0    0 -0.14929684575E+02  0.28054450293E+03 -0.54260746391E+02  0.29753853024E+03  0.81589428065E+02 0.  0.
          5    1    3    3  502    0  0.59407038331E+02 -0.58778493752E+02  0.10760334193E+03  0.13632562754E+03  0.47000000000E+01 0. -1.
        -11    1    4    4    0    0 -0.23646860245E+01 -0.47691940015E+01  0.28287698852E+02  0.28784211953E+02  0.00000000000E+00 0.  1.
         12    1    4    4    0    0 -0.22039643926E+02 -0.20186048748E+03  0.69591641880E+02  0.21465413792E+03  0.00000000000E+00 0. -1.
         -5    1    5    5    0  501 -0.20073023805E+02 -0.15136327700E+02 -0.12164959692E+02  0.28321563255E+02  0.47000000000E+01 0.  1.
         13    1    6    6    0    0  0.11670319982E+02  0.14804637927E+02  0.12034633825E+02  0.22365287477E+02  0.00000000000E+00 0. -1.
        -14    1    6    6    0    0 -0.26600004557E+02  0.26573986500E+03 -0.66295380216E+02  0.27517324276E+03  0.00000000000E+00 0.  1.
</event>
<event>
12    1  0.2609167E-002  0.2425260E+03  0.7818608E-02  0.1118121E+00
          2   -1    0    0  502    0  0.00000000000E+00  0.00000000000E+00  0.66278887542E+03  0.66278887542E+03  0.00000000000E+00 0. -1.
         -2   -1    0    0    0  501 -0.00000000000E+00 -0.00000000000E+00 -0.92830325678E+02  0.92830325678E+02  0.00000000000E+00 0.  1.
          6    2    1    2  502    0  0.16503780041E+03 -0.43713215081E+02  0.20538567604E+03  0.31758292808E+03  0.17183515224E+03 0.  0.
         24    2    3    3    0    0  0.67896774611E+02 -0.95970074547E+00  0.24653720943E+02  0.10793948917E+03  0.80201211579E+02 0.  0.
         -6    2    1    2    0  501 -0.16503780041E+03  0.43713215081E+02  0.36457287370E+03  0.43803627302E+03  0.17266752880E+03 0.  0.
        -24    2    5    5    0    0 -0.86250124240E+02  0.85096021893E+02  0.29341104207E+03  0.32399184791E+03  0.64809420851E+02 0.  0.
          5    1    3    3  502    0  0.97141025804E+02 -0.42753514336E+02  0.18073195510E+03  0.20964343891E+03  0.47000000000E+01 0. -1.
        -13    1    4    4    0    0  0.44943273860E+02 -0.27209655712E+02  0.43583436983E+02  0.68262575460E+02  0.00000000000E+00 0.  1.
         14    1    4    4    0    0  0.22953500751E+02  0.26249954967E+02 -0.18929716040E+02  0.39676913714E+02  0.00000000000E+00 0. -1.
         -5    1    5    5    0  501 -0.78787676175E+02 -0.41382806812E+02  0.71161831626E+02  0.11404442510E+03  0.47000000000E+01 0.  1.
         13    1    6    6    0    0 -0.57390621910E+02  0.61943885812E+02  0.26260255057E+03  0.27584565981E+03  0.00000000000E+00 0. -1.
        -14    1    6    6    0    0 -0.28859502330E+02  0.23152136082E+02  0.30808491505E+02  0.48146188101E+02  0.00000000000E+00 0.  1.
</event>
<event>
12    1  0.2609167E-002  0.1886479E+03  0.7818608E-02  0.1159687E+00
         -2   -1    0    0    0  501 -0.00000000000E+00  0.00000000000E+00  0.55909189965E+02  0.55909189965E+02  0.00000000000E+00 0.  1.
          2   -1    0    0  502    0  0.00000000000E+00 -0.00000000000E+00 -0.75100040204E+03  0.75100040204E+03  0.00000000000E+00 0. -1.
          6    2    1    2  502    0  0.34253872980E+02  0.67671033282E+02 -0.50507083132E+03  0.53915449687E+03  0.17273775003E+03 0.  0.
         24    2    3    3    0    0 -0.71303894918E+01  0.78355176311E+02 -0.16243490342E+03  0.19383105836E+03  0.70675350925E+02 0.  0.
         -6    2    1    2    0  501 -0.34253872980E+02 -0.67671033282E+02 -0.19002038075E+03  0.26775509514E+03  0.17272043686E+03 0.  0.
        -24    2    5    5    0    0  0.26090132047E+02 -0.29023096432E+02 -0.33417490556E+02  0.95471557953E+02  0.80467723878E+02 0.  0.
          5    1    3    3  502    0  0.41384262472E+02 -0.10684143029E+02 -0.34263592790E+03  0.34532343851E+03  0.47000000000E+01 0. -1.
        -13    1    4    4    0    0 -0.31852474715E+02  0.62747519859E+02 -0.80951331347E+02  0.10726112735E+03  0.00000000000E+00 0.  1.
         14    1    4    4    0    0  0.24722085223E+02  0.15607656452E+02 -0.81483572072E+02  0.86569931011E+02  0.00000000000E+00 0. -1.
         -5    1    5    5    0  501 -0.60344005027E+02 -0.38647936850E+02 -0.15660289020E+03  0.17228353718E+03  0.47000000000E+01 0.  1.
         13    1    6    6    0    0 -0.15044316653E+02 -0.69525783246E+01 -0.44505722504E+02  0.47491358630E+02  0.00000000000E+00 0. -1.
        -14    1    6    6    0    0  0.41134448700E+02 -0.22070518108E+02  0.11088231948E+02  0.47980199323E+02  0.00000000000E+00 0.  1.
</event>
<event>
12    1  0.2609167E-002  0.1742373E+03  0.7818608E-02  0.1173500E+00
         -2   -1    0    0    0  501 -0.00000000000E+00  0.00000000000E+00  0.54460590876E+02  0.54460590876E+02  0.00000000000E+00 0.  1.
          2   -1    0    0  502    0  0.00000000000E+00 -0.00000000000E+00 -0.77047933244E+03  0.77047933244E+03  0.00000000000E+00 0. -1.
          6    2    1    2  502    0  0.72388157677E+01  0.28795429788E+02 -0.57573461687E+03  0.60168622499E+03  0.17226255266E+03 0.  0.
         24    2    3    3    0    0 -0.49507852079E+02 -0.23841693026E+02 -0.32148305233E+03  0.33587275829E+03  0.80247760590E+02 0.  0.
         -6    2    1    2    0  501 -0.72388157677E+01 -0.28795429788E+02 -0.14028412470E+03  0.22325369833E+03  0.17111692186E+03 0.  0.
        -24    2    5    5    0    0 -0.13150473961E+02 -0.76706926322E+02 -0.13394921553E+03  0.17433866713E+03  0.79966811903E+02 0.  0.
          5    1    3    3  502    0  0.56746667847E+02  0.52637122814E+02 -0.25425156454E+03  0.26581346670E+03  0.47000000000E+01 0. -1.
        -11    1    4    4    0    0 -0.18070977229E+02 -0.43877224658E+02 -0.25738276452E+03  0.26172057339E+03  0.00000000000E+00 0.  1.
         12    1    4    4    0    0 -0.31436874850E+02  0.20035531632E+02 -0.64100287807E+02  0.74152184898E+02  0.00000000000E+00 0. -1.
         -5    1    5    5    0  501  0.59116581932E+01  0.47911496534E+02 -0.63349091691E+01  0.48915031196E+02  0.47000000000E+01 0.  1.
         13    1    6    6    0    0 -0.82379017034E+01 -0.31686181257E+02 -0.12362776824E+03  0.12788941389E+03  0.00000000000E+00 0. -1.
        -14    1    6    6    0    0 -0.49125722575E+01 -0.45020745064E+02 -0.10321447294E+02  0.46449253240E+02  0.00000000000E+00 0.  1.
</event>
<event>
12    1  0.2609167E-002  0.1851560E+03  0.7818608E-02  0.1162904E+00
          2   -1    0    0  502    0  0.00000000000E+00  0.00000000000E+00  0.74776681118E+03  0.74776681118E+03  0.00000000000E+00 0. -1.
         -2   -1    0    0    0  501 -0.00000000000E+00 -0.00000000000E+00 -0.48243196283E+02  0.48243196283E+02  0.00000000000E+00 0.  1.
          6    2    1    2  502    0 -0.64724118373E+02  0.22087212892E+02  0.26025813593E+03  0.31914186165E+03  0.17158139195E+03 0.  0.
         24    2    3    3    0    0 -0.53514648720E+02  0.79022555722E+02  0.20038450408E+03  0.23563002258E+03  0.79114955133E+02 0.  0.
         -6    2    1    2    0  501  0.64724118373E+02 -0.22087212892E+02  0.43926547897E+03  0.47686814582E+03  0.17254567805E+03 0.  0.
        -24    2    5    5    0    0  0.45999403019E+02 -0.76619027621E+02  0.22375387705E+03  0.25372766464E+03  0.79533073838E+02 0.  0.
          5    1    3    3  502    0 -0.11209469652E+02 -0.56935342830E+02  0.59873631855E+02  0.83511839068E+02  0.47000000000E+01 0. -1.
        -11    1    4    4    0    0 -0.13074131362E+02 -0.14956876004E+02  0.19625184062E+02  0.27924700538E+02  0.00000000000E+00 0.  1.
         12    1    4    4    0    0 -0.40440517358E+02  0.93979431726E+02  0.18075932002E+03  0.20770532204E+03  0.00000000000E+00 0. -1.
         -5    1    5    5    0  501  0.18724715354E+02  0.54531814729E+02  0.21551160191E+03  0.22314048118E+03  0.47000000000E+01 0.  1.
         13    1    6    6    0    0  0.96183516019E+01 -0.12568702402E+02  0.14512254545E+03  0.14598300643E+03  0.00000000000E+00 0. -1.
        -14    1    6    6    0    0  0.36381051417E+02 -0.64050325219E+02  0.78631331600E+02  0.10774465821E+03  0.00000000000E+00 0.  1.
</event>
<event>
12    1  0.2609167E-002  0.1788521E+03  0.7818608E-02  0.1168919E+00
         -1   -1    0    0    0  501 -0.00000000000E+00  0.00000000000E+00  0.71165177856E+02  0.71165177856E+02  0.00000000000E+00 0.  1.
          1   -1    0    0  502    0  0.00000000000E+00 -0.00000000000E+00 -0.55841680448E+03  0.55841680448E+03  0.00000000000E+00 0. -1.
          6    2    1    2  502    0  0.86717060045E+01 -0.46408913282E+02 -0.10476482323E+03  0.20740998837E+03  0.17266803228E+03 0.  0.
         24    2    3    3    0    0  0.33813647981E+01 -0.42904934684E+01  0.14249987438E+02  0.80964094187E+02  0.79512769059E+02 0.  0.
         -6    2    1    2    0  501 -0.86717060045E+01  0.46408913282E+02 -0.38248680339E+03  0.42217199397E+03  0.17234863504E+03 0.  0.
        -24    2    5    5    0    0  0.55223711242E+02 -0.16169507213E+01 -0.23301364871E+03  0.25260365397E+03  0.80380176035E+02 0.  0.
          5    1    3    3  502    0  0.52903412064E+01 -0.42118419814E+02 -0.11901481067E+03  0.12644589418E+03  0.47000000000E+01 0. -1.
        -13    1    4    4    0    0 -0.19865730265E+02 -0.34576676550E+02 -0.90290041983E+00  0.39887454536E+02  0.00000000000E+00 0.  1.
         14    1    4    4    0    0  0.23247095063E+02  0.30286183082E+02  0.15152887858E+02  0.41076639651E+02  0.00000000000E+00 0. -1.
         -5    1    5    5    0  501 -0.63895417246E+02  0.48025864003E+02 -0.14947315469E+03  0.16956834000E+03  0.47000000000E+01 0.  1.
         11    1    6    6    0    0  0.87994753967E+01 -0.20951030327E+02 -0.17218834953E+03  0.17368132932E+03  0.00000000000E+00 0. -1.
        -12    1    6    6    0    0  0.46424235845E+02  0.19334079606E+02 -0.60825299179E+02  0.78922324650E+02  0.00000000000E+00 0.  1.
</event>
<event>
12    1  0.2609167E-002  0.1753839E+03  0.7818608E-02  0.1172347E+00
          1   -1    0    0  502    0  0.00000000000E+00  0.00000000000E+00  0.17593515934E+04  0.17593515934E+04  0.00000000000E+00 0.  1.
         -1   -1    0    0    0  501 -0.00000000000E+00 -0.00000000000E+00 -0.17507632552E+02  0.17507632552E+02  0.00000000000E+00 0. -1.
          6    2    1    2  502    0 -0.32245823726E+01 -0.36128484606E+02  0.89757019197E+03  0.91432042749E+03  0.17039345434E+03 0.  0.
         24    2    3    3    0    0  0.47308000805E+02  0.19873530916E+02  0.46856851909E+03  0.47871246953E+03  0.83523453176E+02 0.  0.
         -6    2    1    2    0  501  0.32245823726E+01  0.36128484606E+02  0.84427376887E+03  0.86253879845E+03  0.17279848582E+03 0.  0.
        -24    2    5    5    0    0  0.63902348861E+02  0.21147937366E+02  0.38733421169E+03  0.40132078378E+03  0.80621551119E+02 0.  0.
          5    1    3    3  502    0 -0.50532583178E+02 -0.56002015521E+02  0.42900167288E+03  0.43560795796E+03  0.47000000000E+01 0. -1.
        -13    1    4    4    0    0  0.58453610508E+02 -0.14866485247E+02  0.25389456780E+03  0.26096031982E+03  0.00000000000E+00 0.  1.
         14    1    4    4    0    0 -0.11145609703E+02  0.34740016163E+02  0.21467395129E+03  0.21775214970E+03  0.00000000000E+00 0. -1.
         -5    1    5    5    0  501 -0.60677766488E+02  0.14980547239E+02  0.45693955717E+03  0.46121801466E+03  0.47000000000E+01 0.  1.
         13    1    6    6    0    0  0.43028677054E+02 -0.21780465999E+02  0.27604891100E+03  0.28023000734E+03  0.00000000000E+00 0. -1.
        -14    1    6    6    0    0  0.20873671807E+02  0.42928403365E+02  0.11128530069E+03  0.12109077644E+03  0.00000000000E+00 0.  1.
</event>
<event>
12    1  0.2609167E-002  0.2286783E+03  0.7818608E-02  0.1127573E+00
          2   -1    0    0  502    0  0.00000000000E+00  0.00000000000E+00  0.11112846286E+03  0.11112846286E+03  0.00000000000E+00 0. -1.
         -2   -1    0    0    0  501 -0.00000000000E+00 -0.00000000000E+00 -0.48987594007E+03  0.48987594007E+03  0.00000000000E+00 0.  1.
          6    2    1    2  502    0  0.18288767127E+02  0.14984889249E+03 -0.12999197621E+03  0.26333984050E+03  0.17222307665E+03 0.  0.
         24    2    3    3    0    0 -0.19509531994E+02  0.86621530271E+02 -0.14550647348E+03  0.18791305232E+03  0.79090265274E+02 0.  0.
         -6    2    1    2    0  501 -0.18288767127E+02 -0.14984889249E+03 -0.24875550101E+03  0.33766456243E+03  0.17131517113E+03 0.  0.
        -24    2    5    5    0    0  0.12827036955E+02 -0.17095784816E+03 -0.19304768168E+03  0.27029073660E+03  0.79990975513E+02 0.  0.
          5    1    3    3  502    0  0.37798299121E+02  0.63227362216E+02  0.15514497273E+02  0.75426788178E+02  0.47000000000E+01 0. -1.
        -11    1    4    4    0    0 -0.11996401127E+02  0.10150334372E+03 -0.12648604626E+03  0.16262091601E+03  0.00000000000E+00 0.  1.
         12    1    4    4    0    0 -0.75131308669E+01 -0.14881813452E+02 -0.19020427223E+02  0.25292136304E+02  0.00000000000E+00 0. -1.
         -5    1    5    5    0  501 -0.31115804082E+02  0.21108955673E+02 -0.55707819327E+02  0.67373825834E+02  0.47000000000E+01 0.  1.
         13    1    6    6    0    0 -0.24790167625E+02 -0.22683046327E+02 -0.19110080836E+02  0.38655765302E+02  0.00000000000E+00 0. -1.
        -14    1    6    6    0    0  0.37617204580E+02 -0.14827480183E+03 -0.17393760085E+03  0.23163497130E+03  0.00000000000E+00 0.  1.
</event>
<event>
12    1  0.2609167E-002  0.1731716E+03  0.7818608E-02  0.1174580E+00
          2   -1    0    0  502    0  0.00000000000E+00  0.00000000000E+00  0.20987595042E+03  0.20987595042E+03  0.00000000000E+00 0. -1.
         -2   -1    0    0    0  501 -0.00000000000E+00 -0.00000000000E+00 -0.14571153779E+03  0.14571153779E+03  0.00000000000E+00 0.  1.
          6    2    1    2  502    0  0.19927612216E+02 -0.97698329298E+01  0.73812044351E+01  0.17362537232E+03  0.17204280971E+03 0.  0.
         24    2    3    3    0    0 -0.37201776181E+02 -0.41362965024E+02  0.32122782831E+02  0.10365302982E+03  0.81346237694E+02 0.  0.
         -6    2    1    2    0  501 -0.19927612216E+02  0.97698329298E+01  0.56783208190E+02  0.18196211589E+03  0.17144480022E+03 0.  0.
        -24    2    5    5    0    0  0.20190025089E+02  0.69713083419E+02  0.42832195192E+02  0.10834595689E+03  0.68093305958E+02 0.  0.
          5    1    3    3  502    0  0.57129388398E+02  0.31593132094E+02 -0.24741578396E+02  0.69972342506E+02  0.47000000000E+01 0. -1.
        -13    1    4    4    0    0  0.16421013713E+02 -0.40344656625E+02  0.59101146300E+01  0.43957598484E+02  0.00000000000E+00 0.  1.
         14    1    4    4    0    0 -0.53622789894E+02 -0.10183083996E+01  0.26212668201E+02  0.59695431335E+02  0.00000000000E+00 0. -1.
         -5    1    5    5    0  501 -0.40117637306E+02 -0.59943250489E+02  0.13951012998E+02  0.73616159000E+02  0.47000000000E+01 0.  1.
         11    1    6    6    0    0  0.45497683071E+02  0.48296919037E+02  0.29435326128E+02  0.72588359793E+02  0.00000000000E+00 0. -1.
        -12    1    6    6    0    0 -0.25307657981E+02  0.21416164382E+02  0.13396869064E+02  0.35757597096E+02  0.00000000000E+00 0.  1.
</event>
<event>
12    1  0.2609167E-002  0.1921358E+03  0.7818608E-02  0.1156549E+00
          2   -1    0    0  502    0  0.00000000000E+00  0.00000000000E+00  0.14169384671E+04  0.14169384671E+04  0.00000000000E+00 0. -1.
         -2   -1    0    0    0  501 -0.00000000000E+00 -0.00000000000E+00 -0.26972066873E+02  0.26972066873E+02  0.00000000000E+00 0.  1.
          6    2    1    2  502    0 -0.17700583202E+02 -0.59967223580E+02  0.53158127293E+03  0.56192968588E+03  0.17110506593E+03 0.  0.
         24    2    3    3    0    0  0.51977543600E+02 -0.52461887822E+01  0.16931128448E+03  0.18895372481E+03  0.65635444156E+02 0.  0.
         -6    2    1    2    0  501  0.17700583202E+02  0.59967223580E+02  0.85838512731E+03  0.88198084812E+03  0.19275842680E+03 0.  0.
        -24    2    5    5    0    0 -0.42629807132E+02 -0.26343377370E+02  0.37643947046E+03  0.38864224027E+03  0.82612602024E+02 0.  0.
          5    1    3    3  502    0 -0.69678126803E+02 -0.54721034798E+02  0.36226998845E+03  0.37297596107E+03  0.47000000000E+01 0. -1.
        -11    1    4    4    0    0  0.17899748076E+02 -0.22995390373E+02  0.21456471501E+02  0.36187969394E+02  0.00000000000E+00 0.  1.
         12    1    4    4    0    0  0.34077795524E+02  0.17749201590E+02  0.14785481298E+03  0.15276575541E+03  0.00000000000E+00 0. -1.
         -5    1    5    5    0  501  0.60330390335E+02  0.86310600950E+02  0.48194565686E+03  0.49333860785E+03  0.47000000000E+01 0.  1.
         13    1    6    6    0    0 -0.25040910063E+01 -0.45455624906E+02  0.11931775632E+03  0.12770752241E+03  0.00000000000E+00 0. -1.
        -14    1    6    6    0    0 -0.40125716126E+02  0.19112247536E+02  0.25712171414E+03  0.26093471785E+03  0.00000000000E+00 0.  1.
</event>
<event>
12    1  0.2609167E-002  0.1862401E+03  0.7818608E-02  0.1161897E+00
          3   -1    0    0  502    0  0.00000000000E+00  0.00000000000E+00  0.51308777578E+03  0.51308777578E+03  0.00000000000E+00 0.  1.
         -3   -1    0    0    0  501 -0.00000000000E+00 -0.00000000000E+00 -0.71773281448E+02  0.71773281448E+02  0.00000000000E+00 0. -1.
          6    2    1    2  502    0  0.11317698061E+02  0.55637228898E+02  0.28275018685E+03  0.33494591495E+03  0.17034525601E+03 0.  0.
         24    2    3    3    0    0  0.67221400517E+02  0.28597134311E+02  0.97106085327E+02  0.13913423732E+03  0.67766004819E+02 0.  0.
         -6    2    1    2    0  501 -0.11317698061E+02 -0.55637228898E+02  0.15856430748E+03  0.24991514228E+03  0.18463842289E+03 0.  0.
        -24    2    5    5    0    0  0.33053786589E+02 -0.62882427090E+02  0.25745811675E+02  0.10961487722E+03  0.79409206302E+02 0.  0.
          5    1    3    3  502    0 -0.55903702456E+02  0.27040094587E+02  0.18564410153E+03  0.19581167763E+03  0.47000000000E+01 0. -1.
        -13    1    4    4    0    0  0.59922971464E+01 -0.58920542023E+01  0.58210096438E+02  0.58813597536E+02  0.00000000000E+00 0.  1.
         14    1    4    4    0    0  0.61229103371E+02  0.34489188513E+02  0.38895988889E+02  0.80320639786E+02  0.00000000000E+00 0. -1.
         -5    1    5    5    0  501 -0.44371484651E+02  0.72451981923E+01  0.13281849581E+03  0.14030026506E+03  0.47000000000E+01 0.  1.
         13    1    6    6    0    0  0.29774129635E+02 -0.76228459627E+02  0.38881550667E+02  0.90603817993E+02  0.00000000000E+00 0. -1.
        -14    1    6    6    0    0  0.32796569544E+01  0.13346032537E+02 -0.13135738992E+02  0.19011059231E+02  0.00000000000E+00 0.  1.
</event>
<event>
12    1  0.2609167E-002  0.1963959E+03  0.7818608E-02  0.1152816E+00
          2   -1    0    0  502    0  0.00000000000E+00  0.00000000000E+00  0.12211673453E+04  0.12211673453E+04  0.00000000000E+00 0.  1.
         -2   -1    0    0    0  501 -0.00000000000E+00 -0.00000000000E+00 -0.32682349836E+02  0.32682349836E+02  0.00000000000E+00 0. -1.
          6    2    1    2  502    0 -0.63672407004E+02  0.44573057187E+02  0.68294837151E+03  0.70851040586E+03  0.17183592239E+03 0.  0.
         24    2    3    3    0    0 -0.10929342326E+03  0.36160825929E+02  0.46439829433E+03  0.48504168546E+03  0.79668081221E+02 0.  0.
         -6    2    1    2    0  501  0.63672407004E+02 -0.44573057187E+02  0.50553662391E+03  0.54533928923E+03  0.18917380745E+03 0.  0.
        -24    2    5    5    0    0  0.16986146339E+02 -0.95552229187E+02  0.33458893322E+03  0.36088418395E+03  0.94174743540E+02 0.  0.
          5    1    3    3  502    0  0.45621016254E+02  0.84122312576E+01  0.21855007719E+03  0.22346872040E+03  0.47000000000E+01 0. -1.
        -11    1    4    4    0    0 -0.77344293568E+02 -0.77164638546E+01  0.34851024464E+03  0.35707292558E+03  0.00000000000E+00 0.  1.
         12    1    4    4    0    0 -0.31949129690E+02  0.43877289784E+02  0.11588804969E+03  0.12796875989E+03  0.00000000000E+00 0. -1.
         -5    1    5    5    0  501  0.46686260666E+02  0.50979172000E+02  0.17094769069E+03  0.18445510528E+03  0.47000000000E+01 0.  1.
         11    1    6    6    0    0  0.20926082036E+01  0.18030154169E+02  0.25918277847E+02  0.31642101621E+02  0.00000000000E+00 0. -1.
        -12    1    6    6    0    0  0.14893538135E+02 -0.11358238336E+03  0.30867065537E+03  0.32924208232E+03  0.00000000000E+00 0.  1.
</event>
<event>
12    1  0.2609167E-002  0.2359807E+03  0.7818608E-02  0.1122500E+00
         -1   -1    0    0    0  501 -0.00000000000E+00  0.00000000000E+00  0.20674401502E+03  0.20674401502E+03  0.00000000000E+00 0. -1.
          1   -1    0    0  502    0  0.00000000000E+00 -0.00000000000E+00 -0.27079175754E+03  0.27079175754E+03  0.00000000000E+00 0.  1.
          6    2    1    2  502    0 -0.13520524654E+03  0.87976021308E+02 -0.14558226254E+02  0.23598038708E+03  0.17162331462E+03 0.  0.
         24    2    3    3    0    0 -0.22000577298E+02  0.41706138156E+01  0.29787201748E+02  0.88239903643E+02  0.79984897236E+02 0.  0.
         -6    2    1    2    0  501  0.13520524654E+03 -0.87976021308E+02 -0.49489516266E+02  0.24155538547E+03  0.17285703056E+03 0.  0.
        -24    2    5    5    0    0  0.70823788019E+02  0.17773431158E+02 -0.45073775741E+02  0.11758156702E+03  0.80385793761E+02 0.  0.
          5    1    3    3  502    0 -0.11320466924E+03  0.83805407492E+02 -0.44345428002E+02  0.14774048344E+03  0.47000000000E+01 0. -1.
        -13    1    4    4    0    0 -0.27307265633E+02 -0.33772361568E+02  0.23607282624E+02  0.49432407944E+02  0.00000000000E+00 0.  1.
         14    1    4    4    0    0  0.53066883342E+01  0.37942975384E+02  0.61799191244E+01  0.38807495699E+02  0.00000000000E+00 0. -1.
         -5    1    5    5    0  501  0.64381458520E+02 -0.10574945247E+03 -0.44157405255E+01  0.12397381845E+03  0.47000000000E+01 0.  1.
         11    1    6    6    0    0 -0.39326639539E+01  0.27087397468E+02  0.40160538265E+01  0.27664447142E+02  0.00000000000E+00 0. -1.
        -12    1    6    6    0    0  0.74756451972E+02 -0.93139663099E+01 -0.49089829567E+02  0.89917119876E+02  0.00000000000E+00 0.  1.
</event>
<event>
12    1  0.2609167E-002  0.2123327E+03  0.7818608E-02  0.1139732E+00
         -4   -1    0    0    0  501 -0.00000000000E+00  0.00000000000E+00  0.16514958131E+03  0.16514958131E+03  0.00000000000E+00 0.  1.
          4   -1    0    0  502    0  0.00000000000E+00 -0.00000000000E+00 -0.27710160613E+03  0.27710160613E+03  0.00000000000E+00 0. -1.
          6    2    1    2  502    0 -0.95322029199E+02  0.88310676153E+02 -0.29506434437E+02  0.21590030381E+03  0.16987420857E+03 0.  0.
         24    2    3    3    0    0 -0.12454227510E+02  0.35918981029E+02 -0.67647208062E+02  0.11059707077E+03  0.78805369892E+02 0.  0.
         -6    2    1    2    0  501  0.95322029199E+02 -0.88310676153E+02 -0.82445590380E+02  0.22635088363E+03  0.16598910318E+03 0.  0.
        -24    2    5    5    0    0  0.10151967072E+03 -0.10061203672E+03 -0.25300684803E+02  0.16738170130E+03  0.83351567496E+02 0.  0.
          5    1    3    3  502    0 -0.82867801689E+02  0.52391695125E+02  0.38140773626E+02  0.10530323303E+03  0.47000000000E+01 0. -1.
        -11    1    4    4    0    0 -0.85725889039E+01 -0.24010347835E+02 -0.10105042414E+02  0.27424404567E+02  0.00000000000E+00 0.  1.
         12    1    4    4    0    0 -0.38816386060E+01  0.59929328863E+02 -0.57542165649E+02  0.83172666206E+02  0.00000000000E+00 0. -1.
         -5    1    5    5    0  501 -0.61976415159E+01  0.12301360562E+02 -0.57144905576E+02  0.58969182336E+02  0.47000000000E+01 0.  1.
         11    1    6    6    0    0  0.77927532796E+02 -0.29173947129E+02 -0.37318820912E+02  0.91194922847E+02  0.00000000000E+00 0. -1.
        -12    1    6    6    0    0  0.23592137919E+02 -0.71438089586E+02  0.12018136109E+02  0.76186778452E+02  0.00000000000E+00 0.  1.
</event>
<event>
12    1  0.2609167E-002  0.2139695E+03  0.7818608E-02  0.1138461E+00
          2   -1    0    0  502    0  0.00000000000E+00  0.00000000000E+00  0.12064717180E+04  0.12064717180E+04  0.00000000000E+00 0.  1.
         -2   -1    0    0    0  501 -0.00000000000E+00 -0.00000000000E+00 -0.87950583418E+02  0.87950583418E+02  0.00000000000E+00 0. -1.
          6    2    1    2  502    0 -0.11564621187E+03 -0.44400839323E+02  0.10479410598E+04  0.10696829105E+04  0.17520155046E+03 0.  0.
         24    2    3    3    0    0 -0.13163715398E+03 -0.24956180540E+02  0.10189309272E+04  0.10309855879E+04  0.82218590902E+02 0.  0.
         -6    2    1    2    0  501  0.11564621187E+03  0.44400839323E+02  0.70580074720E+02  0.22473939089E+03  0.17372612359E+03 0.  0.
        -24    2    5    5    0    0  0.12851809836E+03  0.51122206373E+02  0.10224493726E+02  0.16248388194E+03  0.84652761487E+02 0.  0.
          5    1    3    3  502    0  0.15990942109E+02 -0.19444658784E+02  0.29010132606E+02  0.38697322628E+02  0.47000000000E+01 0. -1.
        -13    1    4    4    0    0 -0.52580533588E+02 -0.28169175817E+02  0.69405267015E+03  0.69661131481E+03  0.00000000000E+00 0.  1.
         14    1    4    4    0    0 -0.79056620388E+02  0.32129952779E+01  0.32487825709E+03  0.33437427307E+03  0.00000000000E+00 0. -1.
         -5    1    5    5    0  501 -0.12871886495E+02 -0.67213670500E+01  0.60355580994E+02  0.62255508946E+02  0.47000000000E+01 0.  1.
         11    1    6    6    0    0  0.78365831305E+02  0.73129251972E+02  0.10640859224E+02  0.10771406081E+03  0.00000000000E+00 0. -1.
        -12    1    6    6    0    0  0.50152267058E+02 -0.22007045599E+02 -0.41636549840E+00  0.54769821136E+02  0.00000000000E+00 0.  1.
</event>
<event>
12    1  0.2609167E-002  0.1813927E+03  0.7818608E-02  0.1166462E+00
          2   -1    0    0  502    0  0.00000000000E+00  0.00000000000E+00  0.59866316833E+03  0.59866316833E+03  0.00000000000E+00 0.  1.
         -2   -1    0    0    0  501 -0.00000000000E+00 -0.00000000000E+00 -0.54969928740E+02  0.54969928740E+02  0.00000000000E+00 0. -1.
          6    2    1    2  502    0  0.18526244285E+02 -0.60069863974E+02  0.27511249429E+03  0.33079499684E+03  0.17258862979E+03 0.  0.
         24    2    3    3    0    0 -0.15721150779E+01  0.13135899053E+02  0.57366352443E+02  0.10014699646E+03  0.81015425184E+02 0.  0.
         -6    2    1    2    0  501 -0.18526244285E+02  0.60069863974E+02  0.26858074529E+03  0.32283810023E+03  0.16774150330E+03 0.  0.
        -24    2    5    5    0    0 -0.14072769962E+02  0.89691626617E+02  0.11702330995E+03  0.16827734044E+03  0.79876013269E+02 0.  0.
          5    1    3    3  502    0  0.20098359362E+02 -0.73205763027E+02  0.21774614185E+03  0.23064800038E+03  0.47000000000E+01 0. -1.
        -13    1    4    4    0    0 -0.30017734639E+02 -0.43064240838E+01  0.59425751540E+02  0.66716037258E+02  0.00000000000E+00 0.  1.
         14    1    4    4    0    0  0.28445619561E+02  0.17442323136E+02 -0.20593990971E+01  0.33430959203E+02  0.00000000000E+00 0. -1.
         -5    1    5    5    0  501 -0.44534743221E+01 -0.29621762643E+02  0.15155743535E+03  0.15456075978E+03  0.47000000000E+01 0.  1.
         13    1    6    6    0    0  0.13718619512E+02  0.48154968967E+02  0.11290278622E+02  0.51328081485E+02  0.00000000000E+00 0. -1.
        -14    1    6    6    0    0 -0.27791389475E+02  0.41536657650E+02  0.10573303132E+03  0.11694925896E+03  0.00000000000E+00 0.  1.
</event>
<event>
12    1  0.2609167E-002  0.3536914E+03  0.7818608E-02  0.1061110E+00
          2   -1    0    0  502    0  0.00000000000E+00  0.00000000000E+00  0.49453782915E+03  0.49453782915E+03  0.00000000000E+00 0.  1.
         -2   -1    0    0    0  501 -0.00000000000E+00 -0.00000000000E+00 -0.30582976952E+03  0.30582976952E+03  0.00000000000E+00 0. -1.
          6    2    1    2  502    0  0.24425735895E+03 -0.18887833273E+03 -0.71959472519E+02  0.36127847811E+03  0.17322612703E+03 0.  0.
         24    2    3    3    0    0  0.25718905497E+03 -0.19157037149E+03 -0.85362904082E+02  0.34188214309E+03  0.82165425467E+02 0.  0.
         -6    2    1    2    0  501 -0.24425735895E+03  0.18887833273E+03  0.26066753215E+03  0.43908912056E+03  0.17179933497E+03 0.  0.
        -24    2    5    5    0    0 -0.95808440672E+02  0.36812885245E+02  0.15294243792E+03  0.20078727922E+03  0.79935576277E+02 0.  0.
          5    1    3    3  502    0 -0.12931696018E+02  0.26920387614E+01  0.13403431563E+02  0.19396335022E+02  0.47000000000E+01 0. -1.
        -11    1    4    4    0    0  0.56261961718E+02 -0.43717570561E+02 -0.56144900705E+02  0.90713197426E+02  0.00000000000E+00 0.  1.
         12    1    4    4    0    0  0.20092709325E+03 -0.14785280093E+03 -0.29218003377E+02  0.25116894567E+03  0.00000000000E+00 0. -1.
         -5    1    5    5    0  501 -0.14844891828E+03  0.15206544749E+03  0.10772509423E+03  0.23830184134E+03  0.47000000000E+01 0.  1.
         13    1    6    6    0    0 -0.88552374135E+01  0.15527127163E+02  0.88995796131E+02  0.90773116266E+02  0.00000000000E+00 0. -1.
        -14    1    6    6    0    0 -0.86953203258E+02  0.21285758082E+02  0.63946641791E+02  0.11001416295E+03  0.00000000000E+00 0.  1.
</event>
<event>
12    1  0.2609167E-002  0.2448782E+03  0.7818608E-02  0.1116585E+00
         -1   -1    0    0    0  501 -0.00000000000E+00  0.00000000000E+00  0.46660536472E+03  0.46660536472E+03  0.00000000000E+00 0. -1.
          1   -1    0    0  502    0  0.00000000000E+00 -0.00000000000E+00 -0.12270166684E+04  0.12270166684E+04  0.00000000000E+00 0.  1.
          6    2    1    2  502    0  0.17246829365E+03 -0.31340791729E+02 -0.11815427383E+04  0.12067757927E+04  0.17186335832E+03 0.  0.
         24    2    3    3    0    0  0.93188430214E+02  0.27563650694E+02 -0.89076994217E+03  0.89965051039E+03  0.80349938360E+02 0.  0.
         -6    2    1    2    0  501 -0.17246829365E+03  0.31340791729E+02  0.42113143457E+03  0.48684624045E+03  0.17011766256E+03 0.  0.
        -24    2    5    5    0    0 -0.17787015623E+03  0.40500518112E+02  0.42900525441E+03  0.47280459718E+03  0.78870744624E+02 0.  0.
          5    1    3    3  502    0  0.79279863433E+02 -0.58904442423E+02 -0.29077279612E+03  0.30712528233E+03  0.47000000000E+01 0. -1.
        -13    1    4    4    0    0 -0.42707481753E+01 -0.41030526447E+01 -0.30002532490E+03  0.30008377149E+03  0.00000000000E+00 0.  1.
         14    1    4    4    0    0  0.97459178389E+02  0.31666703339E+02 -0.59074461728E+03  0.59956673890E+03  0.00000000000E+00 0. -1.
         -5    1    5    5    0  501  0.54018625836E+01 -0.91597263828E+01 -0.78738198400E+01  0.14041643268E+02  0.47000000000E+01 0.  1.
         11    1    6    6    0    0 -0.78833045206E+02 -0.19834800147E+02  0.20574852898E+03  0.22122505620E+03  0.00000000000E+00 0. -1.
        -12    1    6    6    0    0 -0.99037111024E+02  0.60335318258E+02  0.22325672543E+03  0.25157954098E+03  0.00000000000E+00 0.  1.
</event>
<event>
12    1  0.2609167E-002  0.2088828E+03  0.7818608E-02  0.1142454E+00
         -2   -1    0    0    0  501 -0.00000000000E+00  0.00000000000E+00  0.50476345720E+02  0.50476345720E+02  0.00000000000E+00 0. -1.
          2   -1    0    0  502    0  0.00000000000E+00 -0.00000000000E+00 -0.92331607323E+03  0.92331607323E+03  0.00000000000E+00 0.  1.
          6    2    1    2  502    0  0.10501414412E+03  0.31063750477E+02 -0.30351928782E+03  0.36545836505E+03  0.17158942698E+03 0.  0.
         24    2    3    3    0    0  0.13828509804E+03  0.48375629484E+02 -0.24807032622E+03  0.29835147367E+03  0.77535444921E+02 0.  0.
         -6    2    1    2    0  501 -0.10501414412E+03 -0.31063750477E+02 -0.56932043969E+03  0.60833405390E+03  0.18425968366E+03 0.  0.
        -24    2    5    5    0    0  0.92560267829E+01  0.22358231280E+01 -0.34822718542E+03  0.35719494773E+03  0.78964454565E+02 0.  0.
          5    1    3    3  502    0 -0.33270953921E+02 -0.17311879007E+02 -0.55448961594E+02  0.67106891386E+02  0.47000000000E+01 0. -1.
        -11    1    4    4    0    0  0.44567858332E+02  0.32849562674E+02 -0.15809642209E+03  0.16751079500E+03  0.00000000000E+00 0.  1.
         12    1    4    4    0    0  0.93717239706E+02  0.15526066810E+02 -0.89973904135E+02  0.13084067867E+03  0.00000000000E+00 0. -1.
         -5    1    5    5    0  501 -0.11427017090E+03 -0.33299573605E+02 -0.22109325428E+03  0.25113910617E+03  0.47000000000E+01 0.  1.
         13    1    6    6    0    0 -0.29895253522E+02 -0.66732331501E+00 -0.68718688263E+02  0.74942842354E+02  0.00000000000E+00 0. -1.
        -14    1    6    6    0    0  0.39151280305E+02  0.29031464430E+01 -0.27950849715E+03  0.28225210538E+03  0.00000000000E+00 0.  1.
</event>
<event>
12    1  0.2609167E-002  0.1970665E+03  0.7818608E-02  0.1152238E+00
         -2   -1    0    0    0  501 -0.00000000000E+00  0.00000000000E+00  0.54717146275E+03  0.54717146275E+03  0.00000000000E+00 0.  1.
          2   -1    0    0  502    0  0.00000000000E+00 -0.00000000000E+00 -0.76400772530E+02  0.76400772530E+02  0.00000000000E+00 0. -1.
          6    2    1    2  502    0  0.59081618530E+02  0.75065551328E+02  0.15081847534E+03  0.24708590323E+03  0.17082083135E+03 0.  0.
         24    2    3    3    0    0  0.99234277883E+02  0.84641163081E+02  0.10607614317E+03  0.18602941560E+03  0.79644377845E+02 0.  0.
         -6    2    1    2    0  501 -0.59081618530E+02 -0.75065551328E+02  0.31995221487E+03  0.37648633205E+03  0.17391683005E+03 0.  0.
        -24    2    5    5    0    0 -0.42508006320E+02  0.25645468321E+02  0.12441272608E+03  0.15586181896E+03  0.79685378529E+02 0.  0.
          5    1    3    3  502    0 -0.40152659353E+02 -0.95756117530E+01  0.44742332174E+02  0.61056487632E+02  0.47000000000E+01 0. -1.
        -13    1    4    4    0    0  0.18737736742E+02 -0.13845162299E+02  0.29386626200E+02  0.37501534592E+02  0.00000000000E+00 0.  1.
         14    1    4    4    0    0  0.80496541140E+02  0.98486325380E+02  0.76689516969E+02  0.14852788100E+03  0.00000000000E+00 0. -1.
         -5    1    5    5    0  501 -0.16573612210E+02 -0.10071101965E+03  0.19553948879E+03  0.22062451309E+03  0.47000000000E+01 0.  1.
         11    1    6    6    0    0 -0.12147195047E+02  0.50345353678E+02  0.51100768005E+02  0.72756425662E+02  0.00000000000E+00 0. -1.
        -12    1    6    6    0    0 -0.30360811273E+02 -0.24699885357E+02  0.73311958080E+02  0.83105393299E+02  0.00000000000E+00 0.  1.
</event>
<event>
12    1  0.2609167E-002  0.2636367E+03  0.7818608E-02  0.1104978E+00
          1   -1    0    0  502    0  0.00000000000E+00  0.00000000000E+00  0.42387067036E+03  0.42387067036E+03  0.00000000000E+00 0. -1.
         -1   -1    0    0    0  501 -0.00000000000E+00 -0.00000000000E+00 -0.18159255702E+03  0.18159255702E+03  0.00000000000E+00 0.  1.
          6    2    1    2  502    0  0.19543681373E+03  0.40798338386E+02  0.26990610358E+02  0.26535859708E+03  0.17270390680E+03 0.  0.
         24    2    3    3    0    0  0.17843123224E+03 -0.69152679923E+01  0.59482486415E+02  0.20499643969E+03  0.81239451782E+02 0.  0.
         -6    2    1    2    0  501 -0.19543681373E+03 -0.40798338386E+02  0.21528750299E+03  0.34010463029E+03  0.17164614189E+03 0.  0.
        -24    2    5    5    0    0 -0.94842314769E+02  0.23741574954E+02  0.54316858570E+02  0.13955964282E+03  0.83473622945E+02 0.  0.
          5    1    3    3  502    0  0.17005581490E+02  0.47713606378E+02 -0.32491876057E+02  0.60362157393E+02  0.47000000000E+01 0. -1.
        -13    1    4    4    0    0 -0.29863505879E+01 -0.13280092650E+02  0.98580298601E+01  0.16806543468E+02  0.00000000000E+00 0.  1.
         14    1    4    4    0    0  0.18141758283E+03  0.63648246575E+01  0.49624456555E+02  0.18818989622E+03  0.00000000000E+00 0. -1.
         -5    1    5    5    0  501 -0.10059449896E+03 -0.64539913340E+02  0.16097064442E+03  0.20054498747E+03  0.47000000000E+01 0.  1.
         13    1    6    6    0    0 -0.69962624001E+02 -0.10978088682E+02  0.64344885085E+02  0.95684645711E+02  0.00000000000E+00 0. -1.
        -14    1    6    6    0    0 -0.24879690768E+02  0.34719663635E+02 -0.10028026515E+02  0.43874997111E+02  0.00000000000E+00 0.  1.
</event>
<event>
12    1  0.2609167E-002  0.1790866E+03  0.7818608E-02  0.1168690E+00
          4   -1    0    0  502    0  0.00000000000E+00  0.00000000000E+00  0.24700489503E+03  0.24700489503E+03  0.00000000000E+00 0. -1.
         -4   -1    0    0    0  501 -0.00000000000E+00 -0.00000000000E+00 -0.42099634656E+03  0.42099634656E+03  0.00000000000E+00 0.  1.
          6    2    1    2  502    0  0.15422223549E+02  0.19788768642E+02 -0.36523429126E+03  0.40832756515E+03  0.18084765026E+03 0.  0.
         24    2    3    3    0    0 -0.24627231280E+02 -0.46120174964E+02 -0.12294792500E+03  0.15401924646E+03  0.76630052579E+02 0.  0.
         -6    2    1    2    0  501 -0.15422223549E+02 -0.19788768642E+02  0.19124283973E+03  0.25967367645E+03  0.17385958170E+03 0.  0.
        -24    2    5    5    0    0 -0.70203075799E+02 -0.41713672525E+02  0.14566024429E+03  0.18496419787E+03  0.79538326597E+02 0.  0.
          5    1    3    3  502    0  0.40049454829E+02  0.65908943607E+02 -0.24228636626E+03  0.25430831869E+03  0.47000000000E+01 0. -1.
        -13    1    4    4    0    0  0.78577017141E+01 -0.27469774155E+02 -0.11112552488E+03  0.11473976751E+03  0.00000000000E+00 0.  1.
         14    1    4    4    0    0 -0.32484932994E+02 -0.18650400809E+02 -0.11822400124E+02  0.39279478951E+02  0.00000000000E+00 0. -1.
         -5    1    5    5    0  501  0.54780852250E+02  0.21924903883E+02  0.45582595439E+02  0.74709478585E+02  0.47000000000E+01 0.  1.
         13    1    6    6    0    0 -0.54344821038E+02 -0.32119442297E+02  0.15262450758E+03  0.16516433774E+03  0.00000000000E+00 0. -1.
        -14    1    6    6    0    0 -0.15858254761E+02 -0.95942302283E+01 -0.69642632904E+01  0.19799860124E+02  0.00000000000E+00 0.  1.
</event>
<event>
12    1  0.2609167E-002  0.2260933E+03  0.7818608E-02  0.1129420E+00
          1   -1    0    0  502    0  0.00000000000E+00  0.00000000000E+00  0.48690580969E+03  0.48690580969E+03  0.00000000000E+00 0.  1.
         -1   -1    0    0    0  501 -0.00000000000E+00 -0.00000000000E+00 -0.14733323290E+03  0.14733323290E+03  0.00000000000E+00 0. -1.
          6    2    1    2  502    0  0.13480253997E+03  0.57858721732E+02  0.33976667864E+03  0.40808167533E+03  0.17195901070E+03 0.  0.
         24    2    3    3    0    0  0.10443376656E+03  0.79382357580E+02  0.33867466770E+03  0.37054753372E+03  0.73464099461E+02 0.  0.
         -6    2    1    2    0  501 -0.13480253997E+03 -0.57858721732E+02 -0.19410185663E+00  0.22615736726E+03  0.17212716412E+03 0.  0.
        -24    2    5    5    0    0 -0.20595054146E+02 -0.43090859828E+02 -0.45550872842E+02  0.10229952036E+03  0.78162212059E+02 0.  0.
          5    1    3    3  502    0  0.30368773411E+02 -0.21523635848E+02  0.10920109411E+01  0.37534141611E+02  0.47000000000E+01 0. -1.
        -11    1    4    4    0    0  0.22345721147E+02  0.15465409549E+00  0.13725702841E+03  0.13906418309E+03  0.00000000000E+00 0.  1.
         12    1    4    4    0    0  0.82088045410E+02  0.79227703485E+02  0.20141763929E+03  0.23148335062E+03  0.00000000000E+00 0. -1.
         -5    1    5    5    0  501 -0.11420748582E+03 -0.14767861903E+02  0.45356770985E+02  0.12385784689E+03  0.47000000000E+01 0.  1.
         11    1    6    6    0    0 -0.45271108406E+02 -0.48295123520E+02 -0.35840906070E+02  0.75275910888E+02  0.00000000000E+00 0. -1.
        -12    1    6    6    0    0  0.24676054260E+02  0.52042636914E+01 -0.97099667722E+01  0.27023609476E+02  0.00000000000E+00 0.  1.
</event>
<event>
12    1  0.2609167E-002  0.2043667E+03  0.7818608E-02  0.1146106E+00
         -1   -1    0    0    0  501 -0.00000000000E+00  0.00000000000E+00  0.53928304111E+02  0.53928304111E+02  0.00000000000E+00 0.  1.
          1   -1    0    0  502    0  0.00000000000E+00 -0.00000000000E+00 -0.11359444957E+04  0.11359444957E+04  0.00000000000E+00 0. -1.
          6    2    1    2  502    0  0.72456454926E+02 -0.84337490248E+02 -0.20446375251E+03  0.28871942701E+03  0.17085295233E+03 0.  0.
         24    2    3    3    0    0  0.10931363408E+03 -0.60771842953E+02 -0.12056324000E+03  0.19398201419E+03  0.86318245447E+02 0.  0.
         -6    2    1    2    0  501 -0.72456454926E+02  0.84337490248E+02 -0.87755243909E+03  0.90115337282E+03  0.17209406690E+03 0.  0.
        -24    2    5    5    0    0 -0.14614409097E+02  0.11419432259E+03 -0.58634101365E+03  0.60271859433E+03  0.78866947443E+02 0.  0.
          5    1    3    3  502    0 -0.36857179156E+02 -0.23565647294E+02 -0.83900512516E+02  0.94737412822E+02  0.47000000000E+01 0. -1.
        -13    1    4    4    0    0  0.24526159963E+02  0.10905604375E+02  0.39811888563E+01  0.27135117358E+02  0.00000000000E+00 0.  1.
         14    1    4    4    0    0  0.84787474118E+02 -0.71677447328E+02 -0.12454442885E+03  0.16684689683E+03  0.00000000000E+00 0. -1.
         -5    1    5    5    0  501 -0.57842045829E+02 -0.29856832341E+02 -0.29121142544E+03  0.29843477849E+03  0.47000000000E+01 0.  1.
         13    1    6    6    0    0  0.16294452138E+02  0.57672744687E+02 -0.42145585121E+03  0.42569553577E+03  0.00000000000E+00 0. -1.
        -14    1    6    6    0    0 -0.30908861235E+02  0.56521577902E+02 -0.16488516244E+03  0.17702305856E+03  0.00000000000E+00 0.  1.
</event>
<event>
12    1  0.2609167E-002  0.2449871E+03  0.7818608E-02  0.1116514E+00
          4   -1    0    0  502    0  0.00000000000E+00  0.00000000000E+00  0.10964246183E+04  0.10964246183E+04  0.00000000000E+00 0. -1.
         -4   -1    0    0    0  501 -0.00000000000E+00 -0.00000000000E+00 -0.11872977452E+03  0.11872977452E+03  0.00000000000E+00 0.  1.
          6    2    1    2  502    0 -0.72045728804E+02  0.15844533337E+03  0.42362285887E+02  0.24814725564E+03  0.17171775246E+03 0.  0.
         24    2    3    3    0    0 -0.15034718902E+02  0.12509408881E+03  0.81757128143E+02  0.17109789250E+03  0.81949295225E+02 0.  0.
         -6    2    1    2    0  501  0.72045728804E+02 -0.15844533337E+03  0.93533255792E+03  0.96700713721E+03  0.17309043532E+03 0.  0.
        -24    2    5    5    0    0  0.32495030053E+02 -0.24765102933E+02  0.21073764039E+03  0.22910840006E+03  0.80069148848E+02 0.  0.
          5    1    3    3  502    0 -0.57011009901E+02  0.33351244570E+02 -0.39394842256E+02  0.77049363143E+02  0.47000000000E+01 0. -1.
        -11    1    4    4    0    0  0.14742568800E+02 -0.59253142511E+01  0.10041837451E+02  0.18796041689E+02  0.00000000000E+00 0.  1.
         12    1    4    4    0    0 -0.29777287702E+02  0.13101940306E+03  0.71715290692E+02  0.15230185081E+03  0.00000000000E+00 0. -1.
         -5    1    5    5    0  501  0.39550698751E+02 -0.13368023044E+03  0.72459491753E+03  0.73789873715E+03  0.47000000000E+01 0.  1.
         11    1    6    6    0    0  0.43859549811E+02 -0.42976935993E+02  0.18828326821E+03  0.19804359677E+03  0.00000000000E+00 0. -1.
        -12    1    6    6    0    0 -0.11364519758E+02  0.18211833060E+02  0.22454372187E+02  0.31064803283E+02  0.00000000000E+00 0.  1.
</event>
<event>
12    1  0.2609167E-002  0.2345099E+03  0.7818608E-02  0.1123505E+00
         -2   -1    0    0    0  501 -0.00000000000E+00  0.00000000000E+00  0.27183136686E+02  0.27183136686E+02  0.00000000000E+00 0. -1.
          2   -1    0    0  502    0  0.00000000000E+00 -0.00000000000E+00 -0.27623036358E+04  0.27623036358E+04  0.00000000000E+00 0.  1.
          6    2    1    2  502    0 -0.14228627908E+03  0.81099781145E+02 -0.20996445657E+04  0.21129821329E+04  0.17135819808E+03 0.  0.
         24    2    3    3    0    0 -0.23003405150E+02  0.23788884426E+02 -0.47271385887E+03  0.48067132988E+03  0.80569642730E+02 0.  0.
         -6    2    1    2    0  501  0.14228627908E+03 -0.81099781145E+02 -0.63547593339E+03  0.67650463954E+03  0.16433595373E+03 0.  0.
        -24    2    5    5    0    0  0.99835036496E+02 -0.39948488194E+02 -0.22558777299E+03  0.26234774784E+03  0.79834712083E+02 0.  0.
          5    1    3    3  502    0 -0.11928287393E+03  0.57310896719E+02 -0.16269307068E+04  0.16323108030E+04  0.47000000000E+01 0. -1.
        -13    1    4    4    0    0 -0.24652661621E+02  0.46738864705E+02 -0.41784916559E+03  0.42117716033E+03  0.00000000000E+00 0.  1.
         14    1    4    4    0    0  0.16492564712E+01 -0.22949980279E+02 -0.54864693277E+02  0.59494169547E+02  0.00000000000E+00 0. -1.
         -5    1    5    5    0  501  0.42451242584E+02 -0.41151292951E+02 -0.40988816040E+03  0.41415689170E+03  0.47000000000E+01 0.  1.
         11    1    6    6    0    0  0.97999324036E+02 -0.31635593516E+02 -0.23054329366E+03  0.25249730403E+03  0.00000000000E+00 0. -1.
        -12    1    6    6    0    0  0.18357124602E+01 -0.83128946786E+01  0.49555206725E+01  0.98504438129E+01  0.00000000000E+00 0.  1.
</event>
<event>
12    1  0.2609167E-002  0.2612392E+03  0.7818608E-02  0.1106401E+00
         -2   -1    0    0    0  501 -0.00000000000E+00  0.00000000000E+00  0.14158570408E+03  0.14158570408E+03  0.00000000000E+00 0.  1.
          2   -1    0    0  502    0  0.00000000000E+00 -0.00000000000E+00 -0.79490076034E+03  0.79490076034E+03  0.00000000000E+00 0. -1.
          6    2    1    2  502    0 -0.15518377944E+03 -0.12669938491E+03 -0.35000659083E+02  0.26630729102E+03  0.17192960064E+03 0.  0.
         24    2    3    3    0    0 -0.10056019326E+03 -0.10737752779E+02  0.17186048083E+02  0.12782848867E+03  0.76269984039E+02 0.  0.
         -6    2    1    2    0  501  0.15518377944E+03  0.12669938491E+03 -0.61831439718E+03  0.67017917341E+03  0.16337898022E+03 0.  0.
        -24    2    5    5    0    0  0.18154690400E+03  0.10658192100E+03 -0.54165007477E+03  0.58651774251E+03  0.79367969219E+02 0.  0.
          5    1    3    3  502    0 -0.54623586182E+02 -0.11596163213E+03 -0.52186707166E+02  0.13847880235E+03  0.47000000000E+01 0. -1.
        -13    1    4    4    0    0 -0.44885227638E+02 -0.26818355441E+02  0.39707713739E+02  0.65655238779E+02  0.00000000000E+00 0.  1.
         14    1    4    4    0    0 -0.55674965619E+02  0.16080602662E+02 -0.22521665656E+02  0.62173249895E+02  0.00000000000E+00 0. -1.
         -5    1    5    5    0  501 -0.26363124563E+02  0.20117463910E+02 -0.76664322404E+02  0.83661430902E+02  0.47000000000E+01 0.  1.
         11    1    6    6    0    0  0.28777315185E+02  0.12954178884E+02 -0.18188802848E+03  0.18460552409E+03  0.00000000000E+00 0. -1.
        -12    1    6    6    0    0  0.15276958882E+03  0.93627742117E+02 -0.35976204629E+03  0.40191221842E+03  0.00000000000E+00 0.  1.
</event>
<event>
12    1  0.2609167E-002  0.1706816E+03  0.7818608E-02  0.1177139E+00
         -1   -1    0    0    0  501 -0.00000000000E+00  0.00000000000E+00  0.34889318760E+03  0.34889318760E+03  0.00000000000E+00 0. -1.
          1   -1    0    0  502    0  0.00000000000E+00 -0.00000000000E+00 -0.92363819771E+02  0.92363819771E+02  0.00000000000E+00 0.  1.
          6    2    1    2  502    0 -0.39072306730E+01 -0.12172801686E+02  0.61027862361E+02  0.18277383411E+03  0.17180928642E+03 0.  0.
         24    2    3    3    0    0  0.43007235192E+02  0.43114006163E+01 -0.17268188191E+02  0.89902646089E+02  0.76916090620E+02 0.  0.
         -6    2    1    2    0  501  0.39072306730E+01  0.12172801686E+02  0.19550150547E+03  0.25848317326E+03  0.16860981189E+03 0.  0.
        -24    2    5    5    0    0 -0.44517774385E+02  0.39953744365E+02  0.78699958766E+02  0.12893992487E+03  0.82786996508E+02 0.  0.
          5    1    3    3  502    0 -0.46914465865E+02 -0.16484202302E+02  0.78296050551E+02  0.92871188024E+02  0.47000000000E+01 0. -1.
        -13    1    4    4    0    0  0.56038371810E+02 -0.54815440152E+01  0.10906397493E+02  0.57352383962E+02  0.00000000000E+00 0.  1.
         14    1    4    4    0    0 -0.13031136618E+02  0.97929446315E+01 -0.28174585683E+02  0.32550262127E+02  0.00000000000E+00 0. -1.
         -5    1    5    5    0  501  0.48425005058E+02 -0.27780942679E+02  0.11680154670E+03  0.12954324839E+03  0.47000000000E+01 0.  1.
         13    1    6    6    0    0 -0.23373428530E+02  0.55379286326E+02  0.17856723297E+02  0.62706021099E+02  0.00000000000E+00 0. -1.
        -14    1    6    6    0    0 -0.21144345855E+02 -0.15425541960E+02  0.60843235469E+02  0.66233903771E+02  0.00000000000E+00 0.  1.
</event>
<event>
12    1  0.2609167E-002  0.2030383E+03  0.7818608E-02  0.1147201E+00
         -2   -1    0    0    0  501 -0.00000000000E+00  0.00000000000E+00  0.43215303803E+02  0.43215303803E+02  0.00000000000E+00 0.  1.
          2   -1    0    0  502    0  0.00000000000E+00 -0.00000000000E+00 -0.97434741886E+03  0.97434741886E+03  0.00000000000E+00 0. -1.
          6    2    1    2  502    0 -0.80821816345E+02 -0.58328027959E+02 -0.38433280924E+03  0.43299845704E+03  0.17274730301E+03 0.  0.
         24    2    3    3    0    0 -0.27117895340E+02 -0.79715873894E+02 -0.34175468440E+03  0.36105029653E+03  0.80442846312E+02 0.  0.
         -6    2    1    2    0  501  0.80821816345E+02  0.58328027959E+02 -0.54679930582E+03  0.58456426562E+03  0.18108444152E+03 0.  0.
        -24    2    5    5    0    0  0.80679068578E+02 -0.30949872443E+02 -0.31663402607E+03  0.33764583805E+03  0.79250228852E+02 0.  0.
          5    1    3    3  502    0 -0.53703921005E+02  0.21387845936E+02 -0.42578124849E+02  0.71948160510E+02  0.47000000000E+01 0. -1.
        -13    1    4    4    0    0 -0.38172145182E+02 -0.47094681749E+02 -0.10064061248E+03  0.11748852964E+03  0.00000000000E+00 0.  1.
         14    1    4    4    0    0  0.11054249842E+02 -0.32621192146E+02 -0.24111407192E+03  0.24356176689E+03  0.00000000000E+00 0. -1.
         -5    1    5    5    0  501  0.14274776743E+00  0.89277900401E+02 -0.23016527974E+03  0.24691842758E+03  0.47000000000E+01 0.  1.
         11    1    6    6    0    0  0.88488181191E+02 -0.10309124364E+02 -0.20002264230E+03  0.21896459460E+03  0.00000000000E+00 0. -1.
        -12    1    6    6    0    0 -0.78091126127E+01 -0.20640748079E+02 -0.11661138377E+03  0.11868124344E+03  0.00000000000E+00 0.  1.
</event>
<event>
12    1  0.2609167E-002  0.1820817E+03  0.7818608E-02  0.1165803E+00
         -1   -1    0    0    0  501 -0.00000000000E+00  0.00000000000E+00  0.35859681908E+02  0.35859681908E+02  0.00000000000E+00 0. -1.
          1   -1    0    0  502    0  0.00000000000E+00 -0.00000000000E+00 -0.12708951597E+04  0.12708951597E+04  0.00000000000E+00 0.  1.
          6    2    1    2  502    0  0.51666191680E+02  0.36672961382E+02 -0.27462776567E+03  0.32910213543E+03  0.16992205393E+03 0.  0.
         24    2    3    3    0    0 -0.33916814954E+02  0.34095578991E+02 -0.12796689099E+03  0.15921218256E+03  0.81609650432E+02 0.  0.
         -6    2    1    2    0  501 -0.51666191680E+02 -0.36672961382E+02 -0.96040771209E+03  0.97765270614E+03  0.17148626454E+03 0.  0.
        -24    2    5    5    0    0 -0.86407924564E+02 -0.22233951803E+02 -0.44778286760E+03  0.46362761513E+03  0.80500875495E+02 0.  0.
          5    1    3    3  502    0  0.85583006634E+02  0.25773823903E+01 -0.14666087468E+03  0.16988995287E+03  0.47000000000E+01 0. -1.
        -13    1    4    4    0    0 -0.33874401478E+02  0.14117149045E+02 -0.79574614756E+01  0.37551167303E+02  0.00000000000E+00 0.  1.
         14    1    4    4    0    0 -0.42413475586E-01  0.19978429947E+02 -0.12000942951E+03  0.12166101526E+03  0.00000000000E+00 0. -1.
         -5    1    5    5    0  501  0.34741732884E+02 -0.14439009579E+02 -0.51262484449E+03  0.51402509101E+03  0.47000000000E+01 0.  1.
         13    1    6    6    0    0 -0.77155185925E+02 -0.62986074944E+00 -0.42092702321E+03  0.42794027423E+03  0.00000000000E+00 0. -1.
        -14    1    6    6    0    0 -0.92527386388E+01 -0.21604091053E+02 -0.26855844384E+02  0.35687340895E+02  0.00000000000E+00 0.  1.
</event>
<event>
12    1  0.2609167E-002  0.2017785E+03  0.7818608E-02  0.1148247E+00
         -2   -1    0    0    0  501 -0.00000000000E+00  0.00000000000E+00  0.82696106602E+02  0.82696106602E+02  0.00000000000E+00 0. -1.
          2   -1    0    0  502    0  0.00000000000E+00 -0.00000000000E+00 -0.96947533669E+03  0.96947533669E+03  0.00000000000E+00 0.  1.
          6    2    1    2  502    0 -0.81146054439E+02  0.58510309450E+02 -0.80885817915E+03  0.83289190377E+03  0.17160778226E+03 0.  0.
         24    2    3    3    0    0 -0.42248371664E+02 -0.29395321318E+02 -0.29553440406E+03  0.31062394791E+03  0.80607959970E+02 0.  0.
         -6    2    1    2    0  501  0.81146054439E+02 -0.58510309450E+02 -0.77921050938E+02  0.21927953952E+03  0.17889574564E+03 0.  0.
        -24    2    5    5    0    0  0.11314272287E+03 -0.14411639952E+02 -0.85798536984E+02  0.16402898089E+03  0.80840253076E+02 0.  0.
          5    1    3    3  502    0 -0.38897682775E+02  0.87905630769E+02 -0.51332377509E+03  0.52226795586E+03  0.47000000000E+01 0. -1.
        -11    1    4    4    0    0  0.16682529627E+02  0.18318356509E+01 -0.15803309403E+02  0.23052266802E+02  0.00000000000E+00 0.  1.
         12    1    4    4    0    0 -0.58930901291E+02 -0.31227156969E+02 -0.27973109466E+03  0.28757168111E+03  0.00000000000E+00 0. -1.
         -5    1    5    5    0  501 -0.31996668435E+02 -0.44098669499E+02  0.78774860457E+01  0.55250558630E+02  0.47000000000E+01 0.  1.
         11    1    6    6    0    0  0.32059445503E+02 -0.19392990780E+02  0.96491832480E+01  0.38691121394E+02  0.00000000000E+00 0. -1.
        -12    1    6    6    0    0  0.81083277371E+02  0.49813508280E+01 -0.95447720232E+02  0.12533785949E+03  0.00000000000E+00 0.  1.
</event>
<event>
12    1  0.2609167E-002  0.2150981E+03  0.7818608E-02  0.1137591E+00
         -2   -1    0    0    0  501 -0.00000000000E+00  0.00000000000E+00  0.32773398867E+02  0.32773398867E+02  0.00000000000E+00 0.  1.
          2   -1    0    0  502    0  0.00000000000E+00 -0.00000000000E+00 -0.14150154390E+04  0.14150154390E+04  0.00000000000E+00 0. -1.
          6    2    1    2  502    0 -0.12725447360E+03  0.20330143187E+02 -0.72570283670E+03  0.75688289722E+03  0.17210490154E+03 0.  0.
         24    2    3    3    0    0 -0.12854236395E+02 -0.25943292782E+02 -0.43188725468E+03  0.43816934026E+03  0.68025613991E+02 0.  0.
         -6    2    1    2    0  501  0.12725447360E+03 -0.20330143187E+02 -0.65653920346E+03  0.69090594068E+03  0.17233768424E+03 0.  0.
        -24    2    5    5    0    0  0.93465772105E+02 -0.36486228659E+02 -0.63443442996E+03  0.64716343894E+03  0.79034013894E+02 0.  0.
          5    1    3    3  502    0 -0.11440023720E+03  0.46273435969E+02 -0.29381558202E+03  0.31871355695E+03  0.47000000000E+01 0. -1.
        -11    1    4    4    0    0 -0.29722361614E+02  0.12229081777E+02 -0.19652966645E+03  0.19914035004E+03  0.00000000000E+00 0.  1.
         12    1    4    4    0    0  0.16868125219E+02 -0.38172374559E+02 -0.23535758823E+03  0.23902899022E+03  0.00000000000E+00 0. -1.
         -5    1    5    5    0  501  0.33788701493E+02  0.16156085472E+02 -0.22104773505E+02  0.43742501736E+02  0.47000000000E+01 0.  1.
         13    1    6    6    0    0  0.50846253989E+02  0.11281586098E+02 -0.15598917974E+03  0.16445437034E+03  0.00000000000E+00 0. -1.
        -14    1    6    6    0    0  0.42619518116E+02 -0.47767814758E+02 -0.47844525022E+03  0.48270906860E+03  0.00000000000E+00 0.  1.
</event>
<event>
12    1  0.2609167E-002  0.2227845E+03  0.7818608E-02  0.1131824E+00
         -1   -1    0    0    0  501 -0.00000000000E+00  0.00000000000E+00  0.10454300341E+03  0.10454300341E+03  0.00000000000E+00 0. -1.
          1   -1    0    0  502    0  0.00000000000E+00 -0.00000000000E+00 -0.84997271920E+03  0.84997271920E+03  0.00000000000E+00 0.  1.
          6    2    1    2  502    0  0.37015589204E+02  0.14038282499E+03 -0.69086522972E+03  0.72624880291E+03  0.17048479902E+03 0.  0.
         24    2    3    3    0    0 -0.18431282008E+02  0.14539194305E+03 -0.47715113776E+03  0.50535233419E+03  0.78925560785E+02 0.  0.
         -6    2    1    2    0  501 -0.37015589204E+02 -0.14038282499E+03 -0.54564486074E+02  0.22826691969E+03  0.16748436372E+03 0.  0.
        -24    2    5    5    0    0  0.22262042409E+02 -0.85456609255E+02  0.16931154309E+02  0.12026486704E+03  0.79865785289E+02 0.  0.
          5    1    3    3  502    0  0.55446871212E+02 -0.50091180642E+01 -0.21371409196E+03  0.22089646872E+03  0.47000000000E+01 0. -1.
        -13    1    4    4    0    0  0.20600658307E+02  0.18221259058E+02 -0.14440570561E+03  0.14700139189E+03  0.00000000000E+00 0.  1.
         14    1    4    4    0    0 -0.39031940315E+02  0.12717068399E+03 -0.33274543214E+03  0.35835094230E+03  0.00000000000E+00 0. -1.
         -5    1    5    5    0  501 -0.59277631613E+02 -0.54926215731E+02 -0.71495640383E+02  0.10800205266E+03  0.47000000000E+01 0.  1.
         13    1    6    6    0    0 -0.10036135073E+02  0.11458734752E+02  0.92498180809E+01  0.17820935549E+02  0.00000000000E+00 0. -1.
        -14    1    6    6    0    0  0.32298177481E+02 -0.96915344007E+02  0.76813362279E+01  0.10244393149E+03  0.00000000000E+00 0.  1.
</event>
<event>
12    1  0.2609167E-002  0.1916581E+03  0.7818608E-02  0.1156974E+00
          2   -1    0    0  502    0  0.00000000000E+00  0.00000000000E+00  0.26736845466E+04  0.26736845466E+04  0.00000000000E+00 0. -1.
         -2   -1    0    0    0  501 -0.00000000000E+00 -0.00000000000E+00 -0.20859333167E+02  0.20859333167E+02  0.00000000000E+00 0.  1.
          6    2    1    2  502    0 -0.83954803880E+02 -0.43624017826E+01  0.21166461337E+04  0.21253667300E+04  0.17298971654E+03 0.  0.
         24    2    3    3    0    0 -0.40370620541E+02  0.64029658644E+02  0.12769270102E+04  0.12817273809E+04  0.80950017862E+02 0.  0.
         -6    2    1    2    0  501  0.83954803880E+02  0.43624017826E+01  0.53617907980E+03  0.56917714983E+03  0.17148522571E+03 0.  0.
        -24    2    5    5    0    0  0.42808181608E+02  0.66789310665E+02  0.25325877938E+03  0.27650643066E+03  0.77604409851E+02 0.  0.
          5    1    3    3  502    0 -0.43584183339E+02 -0.68392060427E+02  0.83971912343E+03  0.84363934903E+03  0.47000000000E+01 0. -1.
        -13    1    4    4    0    0  0.41062016967E+01 -0.16908730472E+02  0.27635499195E+03  0.27690223480E+03  0.00000000000E+00 0.  1.
         14    1    4    4    0    0 -0.44476822238E+02  0.80938389116E+02  0.10005720183E+04  0.10048251461E+04  0.00000000000E+00 0. -1.
         -5    1    5    5    0  501  0.41146622272E+02 -0.62426908882E+02  0.28292030042E+03  0.29267071918E+03  0.47000000000E+01 0.  1.
         11    1    6    6    0    0  0.33666454950E+02  0.53162358853E+02  0.25234422189E+03  0.26007166880E+03  0.00000000000E+00 0. -1.
        -12    1    6    6    0    0  0.91417266583E+01  0.13626951812E+02  0.91455748911E+00  0.16434761860E+02  0.00000000000E+00 0.  1.
</event>
<event>
12    1  0.2609167E-002  0.1976501E+03  0.7818608E-02  0.1151737E+00
         -2   -1    0    0    0  501 -0.00000000000E+00  0.00000000000E+00  0.37247501530E+02  0.37247501530E+02  0.00000000000E+00 0.  1.
          2   -1    0    0  502    0  0.00000000000E+00 -0.00000000000E+00 -0.13001919123E+04  0.13001919123E+04  0.00000000000E+00 0. -1.
          6    2    1    2  502    0  0.91691987582E+02  0.32349077697E+02 -0.33893640341E+03  0.39264990234E+03  0.17274888376E+03 0.  0.
         24    2    3    3    0    0  0.59006570163E+02 -0.47128430163E+02 -0.15558335898E+03  0.19010252599E+03  0.78929871042E+02 0.  0.
         -6    2    1    2    0  501 -0.91691987582E+02 -0.32349077697E+02 -0.92400800739E+03  0.94478951152E+03  0.17141335985E+03 0.  0.
        -24    2    5    5    0    0 -0.46714726406E+02 -0.46785750380E+02 -0.85356360477E+03  0.85984320258E+03  0.79927051352E+02 0.  0.
          5    1    3    3  502    0  0.32685417418E+02  0.79477507860E+02 -0.18335304442E+03  0.20254737635E+03  0.47000000000E+01 0. -1.
        -11    1    4    4    0    0  0.48915706757E+02 -0.18529187645E+00 -0.34534112776E+02  0.59878089865E+02  0.00000000000E+00 0.  1.
         12    1    4    4    0    0  0.10090863406E+02 -0.46943138286E+02 -0.12104924621E+03  0.13022443612E+03  0.00000000000E+00 0. -1.
         -5    1    5    5    0  501 -0.44977261176E+02  0.14436672683E+02 -0.70444402620E+02  0.84946308934E+02  0.47000000000E+01 0.  1.
         13    1    6    6    0    0  0.50197565280E+01  0.18953273346E+02 -0.19649422572E+03  0.19747001106E+03  0.00000000000E+00 0. -1.
        -14    1    6    6    0    0 -0.51734482934E+02 -0.65739023726E+02 -0.65706937905E+03  0.66237319153E+03  0.00000000000E+00 0.  1.
</event>
<event>
12    1  0.2609167E-002  0.1788611E+03  0.7818608E-02  0.1168910E+00
         -2   -1    0    0    0  501 -0.00000000000E+00  0.00000000000E+00  0.56391567120E+02  0.56391567120E+02  0.00000000000E+00 0. -1.
          2   -1    0    0  502    0  0.00000000000E+00 -0.00000000000E+00 -0.57487667299E+03  0.57487667299E+03  0.00000000000E+00 0.  1.
          6    2    1    2  502    0 -0.21752174385E+02 -0.42365526597E+02 -0.22248800950E+03  0.28523196184E+03  0.17201268194E+03 0.  0.
         24    2    3    3    0    0 -0.33967796070E+02 -0.96258825118E+02 -0.16647934043E+03  0.20641083491E+03  0.66861718467E+02 0.  0.
         -6    2    1    2    0  501  0.21752174385E+02  0.42365526597E+02 -0.29599709636E+03  0.34603627827E+03  0.17279707720E+03 0.  0.
        -24    2    5    5    0    0 -0.22753797442E+02  0.20847897055E+02 -0.57636989875E+02  0.10255851691E+03  0.79018078184E+02 0.  0.
          5    1    3    3  502    0  0.12215621684E+02  0.53893298521E+02 -0.56008669074E+02  0.78821126927E+02  0.47000000000E+01 0. -1.
        -11    1    4    4    0    0 -0.22416087577E+02 -0.29238373706E+02 -0.11601417161E+03  0.12172366859E+03  0.00000000000E+00 0.  1.
         12    1    4    4    0    0 -0.11551708492E+02 -0.67020451412E+02 -0.50465168817E+02  0.84687166326E+02  0.00000000000E+00 0. -1.
         -5    1    5    5    0  501  0.44505971827E+02  0.21517629542E+02 -0.23836010649E+03  0.24347776136E+03  0.47000000000E+01 0.  1.
         11    1    6    6    0    0  0.15138604405E+02  0.32015580400E+02 -0.35649247600E+01  0.35593305835E+02  0.00000000000E+00 0. -1.
        -12    1    6    6    0    0 -0.37892401847E+02 -0.11167683345E+02 -0.54072065115E+02  0.66965211078E+02  0.00000000000E+00 0.  1.
</event>
<event>
12    1  0.2609167E-002  0.1950028E+03  0.7818608E-02  0.1154025E+00
          2   -1    0    0  502    0  0.00000000000E+00  0.00000000000E+00  0.17538790751E+03  0.17538790751E+03  0.00000000000E+00 0. -1.
         -2   -1    0    0    0  501 -0.00000000000E+00 -0.00000000000E+00 -0.29633866559E+03  0.29633866559E+03  0.00000000000E+00 0.  1.
          6    2    1    2  502    0 -0.93575851549E+02  0.73226627037E+01 -0.18244914105E+03  0.26637847112E+03  0.16988154527E+03 0.  0.
         24    2    3    3    0    0 -0.17836399814E+02 -0.49054286773E+02 -0.88409615489E+02  0.13303550224E+03  0.84603336438E+02 0.  0.
         -6    2    1    2    0  501  0.93575851549E+02 -0.73226627037E+01  0.61498382968E+02  0.20534810198E+03  0.17197595906E+03 0.  0.
        -24    2    5    5    0    0  0.11010198827E+03 -0.53943592759E+02  0.43411616157E+02  0.15247234716E+03  0.79566885134E+02 0.  0.
          5    1    3    3  502    0 -0.75739451736E+02  0.56376949477E+02 -0.94039525564E+02  0.13334296888E+03  0.47000000000E+01 0. -1.
        -11    1    4    4    0    0 -0.46068584509E+02 -0.51512549507E+01 -0.50327248444E+02  0.68422816678E+02  0.00000000000E+00 0.  1.
         12    1    4    4    0    0  0.28232184695E+02 -0.43903031822E+02 -0.38082367045E+02  0.64612685563E+02  0.00000000000E+00 0. -1.
         -5    1    5    5    0  501 -0.16526136717E+02  0.46620930055E+02  0.18086766812E+02  0.52875754819E+02  0.47000000000E+01 0.  1.
         13    1    6    6    0    0  0.49568214273E+02 -0.37195613939E+02  0.61298960623E+02  0.87166989945E+02  0.00000000000E+00 0. -1.
        -14    1    6    6    0    0  0.60533773993E+02 -0.16747978820E+02 -0.17887344467E+02  0.65305357211E+02  0.00000000000E+00 0.  1.
</event>
<event>
12    1  0.2609167E-002  0.2326994E+03  0.7818608E-02  0.1124754E+00
         -2   -1    0    0    0  501 -0.00000000000E+00  0.00000000000E+00  0.25001204393E+02  0.25001204393E+02  0.00000000000E+00 0.  1.
          2   -1    0    0  502    0  0.00000000000E+00 -0.00000000000E+00 -0.22505145615E+04  0.22505145615E+04  0.00000000000E+00 0. -1.
          6    2    1    2  502    0  0.15281657254E+03 -0.27816012861E+02 -0.89328042933E+03  0.92315737228E+03  0.17361731813E+03 0.  0.
         24    2    3    3    0    0  0.30753694556E+02 -0.22203231989E+02 -0.19960805194E+03  0.21878935296E+03  0.81158076171E+02 0.  0.
         -6    2    1    2    0  501 -0.15281657254E+03  0.27816012861E+02 -0.13322329278E+04  0.13523583937E+04  0.17292199256E+03 0.  0.
        -24    2    5    5    0    0 -0.17041691943E+03  0.49148114637E+02 -0.93288263148E+03  0.95202405843E+03  0.67987793803E+02 0.  0.
          5    1    3    3  502    0  0.12206287799E+03 -0.56127808720E+01 -0.69367237739E+03  0.70436801932E+03  0.47000000000E+01 0. -1.
        -11    1    4    4    0    0  0.44023067439E+02  0.10129402271E+02 -0.15860378086E+03  0.16491147492E+03  0.00000000000E+00 0.  1.
         12    1    4    4    0    0 -0.13269372884E+02 -0.32332634259E+02 -0.41004271082E+02  0.53877878038E+02  0.00000000000E+00 0. -1.
         -5    1    5    5    0  501  0.17600346887E+02 -0.21332101776E+02 -0.39935029634E+03  0.40033433523E+03  0.47000000000E+01 0.  1.
         11    1    6    6    0    0 -0.25784216585E+02  0.21697203690E+02 -0.84644824049E+02  0.91106205668E+02  0.00000000000E+00 0. -1.
        -12    1    6    6    0    0 -0.14463270284E+03  0.27450910946E+02 -0.84823780743E+03  0.86091785276E+03  0.00000000000E+00 0.  1.
</event>
<event>
12    1  0.2609167E-002  0.1885962E+03  0.7818608E-02  0.1159734E+00
          1   -1    0    0  502    0  0.00000000000E+00  0.00000000000E+00  0.64617387127E+03  0.64617387127E+03  0.00000000000E+00 0.  1.
         -1   -1    0    0    0  501 -0.00000000000E+00 -0.00000000000E+00 -0.55683212795E+02  0.55683212795E+02  0.00000000000E+00 0. -1.
          6    2    1    2  502    0  0.29454760842E+01 -0.77409999272E+02  0.33391152579E+03  0.38384686694E+03  0.17274410667E+03 0.  0.
         24    2    3    3    0    0  0.48400456144E+02  0.42355112847E+01  0.14611982044E+03  0.17403752682E+03  0.81101881014E+02 0.  0.
         -6    2    1    2    0  501 -0.29454760842E+01  0.77409999272E+02  0.25657913269E+03  0.31801021713E+03  0.17116268007E+03 0.  0.
        -24    2    5    5    0    0 -0.13161722704E+02  0.11235901539E+03  0.24133218156E+03  0.27825641302E+03  0.79922651647E+02 0.  0.
          5    1    3    3  502    0 -0.45454980060E+02 -0.81645510557E+02  0.18779170535E+03  0.20980934013E+03  0.47000000000E+01 0. -1.
        -13    1    4    4    0    0  0.34791086211E+02  0.21625729074E+02  0.14632824210E+03  0.15195409266E+03  0.00000000000E+00 0.  1.
         14    1    4    4    0    0  0.13609369933E+02 -0.17390217789E+02 -0.20842166348E+00  0.22083434160E+02  0.00000000000E+00 0. -1.
         -5    1    5    5    0  501  0.10216246620E+02 -0.34949016115E+02  0.15246951131E+02  0.39753804110E+02  0.47000000000E+01 0.  1.
         13    1    6    6    0    0 -0.10988279392E+02  0.35988572968E+01 -0.19826453978E+01  0.11731365676E+02  0.00000000000E+00 0. -1.
        -14    1    6    6    0    0 -0.21734433121E+01  0.10876015809E+03  0.24331482696E+03  0.26652504734E+03  0.00000000000E+00 0.  1.
</event>
<event>
12    1  0.2609167E-002  0.1631445E+03  0.7818608E-02  0.1185192E+00
          2   -1    0    0  502    0  0.00000000000E+00  0.00000000000E+00  0.21419133548E+04  0.21419133548E+04  0.00000000000E+00 0.  1.
         -2   -1    0    0    0  501 -0.00000000000E+00 -0.00000000000E+00 -0.19105549659E+02  0.19105549659E+02  0.00000000000E+00 0. -1.
          6    2    1    2  502    0  0.19540397673E+02  0.40411699202E+01  0.16594185472E+04  0.16665804921E+04  0.15304399264E+03 0.  0.
         24    2    3    3    0    0 -0.15840994002E+02  0.47064654665E+02  0.11922217691E+04  0.11960512342E+04  0.81729977426E+02 0.  0.
         -6    2    1    2    0  501 -0.19540397673E+02 -0.40411699202E+01  0.46338925794E+03  0.49443841235E+03  0.17129384414E+03 0.  0.
        -24    2    5    5    0    0 -0.80448878526E+02 -0.15902325173E+01  0.30267141967E+03  0.32248445436E+03  0.76887476990E+02 0.  0.
          5    1    3    3  502    0  0.35381391674E+02 -0.43023484745E+02  0.46719677810E+03  0.47052925795E+03  0.47000000000E+01 0. -1.
        -11    1    4    4    0    0 -0.17384504256E+02 -0.37645405663E+00  0.88616443875E+03  0.88633502425E+03  0.00000000000E+00 0.  1.
         12    1    4    4    0    0  0.15435102545E+01  0.47441108721E+02  0.30605733038E+03  0.30971620994E+03  0.00000000000E+00 0. -1.
         -5    1    5    5    0  501  0.60908480853E+02 -0.24509374029E+01  0.16071783826E+03  0.17195395799E+03  0.47000000000E+01 0.  1.
         13    1    6    6    0    0 -0.55757799813E+02 -0.29495237187E+02  0.11513191421E+03  0.13127931645E+03  0.00000000000E+00 0. -1.
        -14    1    6    6    0    0 -0.24691078713E+02  0.27905004670E+02  0.18753950546E+03  0.19120513791E+03  0.00000000000E+00 0.  1.
</event>
<event>
12    1  0.2609167E-002  0.4132573E+03  0.7818608E-02  0.1039283E+00
         -1   -1    0    0    0  501 -0.00000000000E+00  0.00000000000E+00  0.24300893835E+03  0.24300893835E+03  0.00000000000E+00 0.  1.
          1   -1    0    0  502    0  0.00000000000E+00 -0.00000000000E+00 -0.75934262645E+03  0.75934262645E+03  0.00000000000E+00 0. -1.
          6    2    1    2  502    0  0.61966522356E+01 -0.37604837125E+03 -0.39489316567E+03  0.57152245382E+03  0.17101615979E+03 0.  0.
         24    2    3    3    0    0  0.52708126219E+01 -0.37299120516E+03 -0.40717820817E+03  0.55798673394E+03  0.80030503213E+02 0.  0.
         -6    2    1    2    0  501 -0.61966522356E+01  0.37604837125E+03 -0.12144052243E+03  0.43082911097E+03  0.17150844398E+03 0.  0.
        -24    2    5    5    0    0  0.26515364143E+02  0.36829745564E+03 -0.11379639686E+03  0.39603435039E+03  0.86876385634E+02 0.  0.
          5    1    3    3  502    0  0.92583961370E+00 -0.30571660861E+01  0.12285042503E+02  0.13535719884E+02  0.47000000000E+01 0. -1.
        -11    1    4    4    0    0  0.29725299402E+02 -0.56159156182E+02 -0.61232990575E+02  0.88243545840E+02  0.00000000000E+00 0.  1.
         12    1    4    4    0    0 -0.24454486780E+02 -0.31683204898E+03 -0.34594521760E+03  0.46974318810E+03  0.00000000000E+00 0. -1.
         -5    1    5    5    0  501 -0.32712016379E+02  0.77509156048E+01 -0.76441255764E+01  0.34794760584E+02  0.47000000000E+01 0.  1.
         13    1    6    6    0    0  0.45357676070E+02  0.27084775765E+03 -0.11250513857E+03  0.29677134768E+03  0.00000000000E+00 0. -1.
        -14    1    6    6    0    0 -0.18842311927E+02  0.97449697997E+02 -0.12912582900E+01  0.99263002707E+02  0.00000000000E+00 0.  1.
</event>
<event>
12    1  0.2609167E-002  0.2294404E+03  0.7818608E-02  0.1127034E+00
          2   -1    0    0  502    0  0.00000000000E+00  0.00000000000E+00  0.67365520729E+03  0.67365520729E+03  0.00000000000E+00 0.  1.
         -2   -1    0    0    0  501 -0.00000000000E+00 -0.00000000000E+00 -0.88569291432E+02  0.88569291432E+02  0.00000000000E+00 0. -1.
          6    2    1    2  502    0 -0.11702857545E+03  0.93585885116E+02  0.42283244836E+03  0.48087900271E+03  0.17321469480E+03 0.  0.
         24    2    3    3    0    0 -0.20951231996E+02  0.23043030583E+02  0.76932814602E+02  0.11498858621E+03  0.79585058995E+02 0.  0.
         -6    2    1    2    0  501  0.11702857545E+03 -0.93585885116E+02  0.16225346749E+03  0.28134549601E+03  0.17428452326E+03 0.  0.
        -24    2    5    5    0    0  0.28523118857E+02 -0.37469353203E+02  0.48616308612E+01  0.92198565718E+02  0.79116492131E+02 0.  0.
          5    1    3    3  502    0 -0.96077343453E+02  0.70542854533E+02  0.34589963376E+03  0.36589041650E+03  0.47000000000E+01 0. -1.
        -13    1    4    4    0    0  0.27554279260E+01 -0.95909728219E+01  0.73865205525E+02  0.74536217572E+02  0.00000000000E+00 0.  1.
         14    1    4    4    0    0 -0.23706659922E+02  0.32634003405E+02  0.30676090764E+01  0.40452368637E+02  0.00000000000E+00 0. -1.
         -5    1    5    5    0  501  0.88505456592E+02 -0.56116531913E+02  0.15739183663E+03  0.18914693029E+03  0.47000000000E+01 0.  1.
         11    1    6    6    0    0 -0.45221582353E+01  0.18529541686E+02  0.17585720011E+02  0.25943233771E+02  0.00000000000E+00 0. -1.
        -12    1    6    6    0    0  0.33045277092E+02 -0.55998894888E+02 -0.12724089149E+02  0.66255331948E+02  0.00000000000E+00 0.  1.
</event>
<event>
12    1  0.2609167E-002  0.1880520E+03  0.7818608E-02  0.1160230E+00
          1   -1    0    0  502    0  0.00000000000E+00  0.00000000000E+00  0.31027884438E+03  0.31027884438E+03  0.00000000000E+00 0.  1.
         -1   -1    0    0    0  501 -0.00000000000E+00 -0.00000000000E+00 -0.18052054585E+03  0.18052054585E+03  0.00000000000E+00 0. -1.
          6    2    1    2  502    0 -0.76803823901E+02 -0.14477673341E+01 -0.84100461204E+02  0.20607066567E+03  0.17173033594E+03 0.  0.
         24    2    3    3    0    0 -0.69559082655E+01 -0.56276971481E+02 -0.28107436915E+02  0.10098840402E+03  0.78696553655E+02 0.  0.
         -6    2    1    2    0  501  0.76803823901E+02  0.14477673341E+01  0.21385875973E+03  0.28472872456E+03  0.17156326552E+03 0.  0.
        -24    2    5    5    0    0  0.20327001909E+02  0.58765642129E+02  0.16451133856E+03  0.19021825863E+03  0.72473565524E+02 0.  0.
          5    1    3    3  502    0 -0.69847915635E+02  0.54829204147E+02 -0.55993024289E+02  0.10508226166E+03  0.47000000000E+01 0. -1.
        -11    1    4    4    0    0 -0.17782069276E+01 -0.75966246821E+02 -0.17269969846E+02  0.77924864674E+02  0.00000000000E+00 0.  1.
         12    1    4    4    0    0 -0.51777013379E+01  0.19689275340E+02 -0.10837467069E+02  0.23063539343E+02  0.00000000000E+00 0. -1.
         -5    1    5    5    0  501  0.56476821992E+02 -0.57317874795E+02  0.49347421175E+02  0.94510465928E+02  0.47000000000E+01 0.  1.
         11    1    6    6    0    0  0.62186900425E+01 -0.12563436853E+02  0.49425106383E+01  0.14864066160E+02  0.00000000000E+00 0. -1.
        -12    1    6    6    0    0  0.14108311866E+02  0.71329078982E+02  0.15956882792E+03  0.17535419247E+03  0.00000000000E+00 0.  1.
</event>
<event>
12    1  0.2609167E-002  0.3934848E+03  0.7818608E-02  0.1046059E+00
         -1   -1    0    0    0  501 -0.00000000000E+00  0.00000000000E+00  0.29618123862E+03  0.29618123862E+03  0.00000000000E+00 0.  1.
          1   -1    0    0  502    0  0.00000000000E+00 -0.00000000000E+00 -0.52761950780E+03  0.52761950780E+03  0.00000000000E+00 0. -1.
          6    2    1    2  502    0  0.11715010652E+03 -0.33236101176E+03 -0.76435155470E+02  0.40170082460E+03  0.17701194846E+03 0.  0.
         24    2    3    3    0    0  0.49112896847E+02 -0.26381269319E+03 -0.22762034582E+01  0.27984199627E+03  0.79354571681E+02 0.  0.
         -6    2    1    2    0  501 -0.11715010652E+03  0.33236101176E+03 -0.15500311371E+03  0.42209992182E+03  0.17307336347E+03 0.  0.
        -24    2    5    5    0    0 -0.63246395103E+02  0.32128680084E+03 -0.12922431019E+03  0.36115006568E+03  0.80654402915E+02 0.  0.
          5    1    3    3  502    0  0.68037209678E+02 -0.68548318562E+02 -0.74158952012E+02  0.12185882833E+03  0.47000000000E+01 0. -1.
        -11    1    4    4    0    0  0.60986608263E+02 -0.19115942423E+03 -0.26380943365E+02  0.20237896638E+03  0.00000000000E+00 0.  1.
         12    1    4    4    0    0 -0.11873711416E+02 -0.72653268961E+02  0.24104739907E+02  0.77463029888E+02  0.00000000000E+00 0. -1.
         -5    1    5    5    0  501 -0.53903711422E+02  0.11074210922E+02 -0.25778803518E+02  0.60949856140E+02  0.47000000000E+01 0.  1.
         11    1    6    6    0    0 -0.34972210942E+02  0.16853299043E+03 -0.24641295278E+02  0.17387816952E+03  0.00000000000E+00 0. -1.
        -12    1    6    6    0    0 -0.28274184161E+02  0.15275381041E+03 -0.10458301491E+03  0.18727189616E+03  0.00000000000E+00 0.  1.
</event>
<event>
12    1  0.2609167E-002  0.3446831E+03  0.7818608E-02  0.1064819E+00
          1   -1    0    0  502    0  0.00000000000E+00  0.00000000000E+00  0.17628845195E+04  0.17628845195E+04  0.00000000000E+00 0.  1.
         -1   -1    0    0    0  501 -0.00000000000E+00 -0.00000000000E+00 -0.70045128125E+02  0.70045128125E+02  0.00000000000E+00 0. -1.
          6    2    1    2  502    0  0.16307762315E+03  0.25046165667E+03  0.66899824561E+03  0.75274670640E+03  0.17246332576E+03 0.  0.
         24    2    3    3    0    0  0.21094352688E+02  0.13603048707E+03  0.36508076898E+03  0.39828702707E+03  0.79995768187E+02 0.  0.
         -6    2    1    2    0  501 -0.16307762315E+03 -0.25046165667E+03  0.10238411458E+04  0.10801829412E+04  0.17093607614E+03 0.  0.
        -24    2    5    5    0    0 -0.88942297464E+02 -0.22848135142E+03  0.88202481313E+03  0.91858732701E+03  0.75633631027E+02 0.  0.
          5    1    3    3  502    0  0.14198327046E+03  0.11443116959E+03  0.30391747663E+03  0.35445967932E+03  0.47000000000E+01 0. -1.
        -11    1    4    4    0    0 -0.15054113923E+01 -0.47825781065E+01 -0.12562340022E+01  0.51688916291E+01  0.00000000000E+00 0.  1.
         12    1    4    4    0    0  0.22599764081E+02  0.14081306518E+03  0.36633700298E+03  0.39311813545E+03  0.00000000000E+00 0. -1.
         -5    1    5    5    0  501 -0.74135325681E+02 -0.21980305250E+02  0.14181633264E+03  0.16159561422E+03  0.47000000000E+01 0.  1.
         11    1    6    6    0    0  0.88514456849E+01 -0.13607673134E+02  0.11244391316E+03  0.11360964073E+03  0.00000000000E+00 0. -1.
        -12    1    6    6    0    0 -0.97793743149E+02 -0.21487367828E+03  0.76958089996E+03  0.80497768628E+03  0.00000000000E+00 0.  1.
</event>
<event>
12    1  0.2609167E-002  0.1879869E+03  0.7818608E-02  0.1160290E+00
          2   -1    0    0  502    0  0.00000000000E+00  0.00000000000E+00  0.20758610043E+04  0.20758610043E+04  0.00000000000E+00 0. -1.
         -2   -1    0    0    0  501 -0.00000000000E+00 -0.00000000000E+00 -0.19693896089E+02  0.19693896089E+02  0.00000000000E+00 0.  1.
          6    2    1    2  502    0  0.66190734350E+02 -0.35469784144E+02  0.14131994725E+04  0.14256287165E+04  0.17217772653E+03 0.  0.
         24    2    3    3    0    0  0.10106449610E+02 -0.16277982892E+01  0.11970953937E+04  0.11997663915E+04  0.79355041043E+02 0.  0.
         -6    2    1    2    0  501 -0.66190734350E+02  0.35469784144E+02  0.64296763571E+03  0.66992618383E+03  0.17249461529E+03 0.  0.
        -24    2    5    5    0    0  0.23096192412E+02 -0.51938534328E+01  0.38466890392E+03  0.39358217438E+03  0.79852064029E+02 0.  0.
          5    1    3    3  502    0  0.56084284741E+02 -0.33841985854E+02  0.21610407877E+03  0.22586232501E+03  0.47000000000E+01 0. -1.
        -11    1    4    4    0    0 -0.86399459990E+01  0.32498720690E+02  0.31033992202E+03  0.31215650355E+03  0.00000000000E+00 0.  1.
         12    1    4    4    0    0  0.18746395609E+02 -0.34126518979E+02  0.88675547170E+03  0.88760988798E+03  0.00000000000E+00 0. -1.
         -5    1    5    5    0  501 -0.89286926762E+02  0.40663637576E+02  0.25829873179E+03  0.27634400945E+03  0.47000000000E+01 0.  1.
         13    1    6    6    0    0  0.24874568058E+02 -0.27688715545E+02  0.35150094426E+03  0.35346615527E+03  0.00000000000E+00 0. -1.
        -14    1    6    6    0    0 -0.17783756460E+01  0.22494862112E+02  0.33167959659E+02  0.40116019111E+02  0.00000000000E+00 0.  1.
</event>
<event>
12    1  0.2609167E-002  0.2068920E+03  0.7818608E-02  0.1144051E+00
          1   -1    0    0  502    0  0.00000000000E+00  0.00000000000E+00  0.11199594064E+04  0.11199594064E+04  0.00000000000E+00 0. -1.
         -1   -1    0    0    0  501 -0.00000000000E+00 -0.00000000000E+00 -0.38305481783E+02  0.38305481783E+02  0.00000000000E+00 0.  1.
          6    2    1    2  502    0  0.55325551308E+02  0.98560966803E+02  0.56456847228E+03  0.60083181590E+03  0.17171525939E+03 0.  0.
         24    2    3    3    0    0 -0.30704430848E+02  0.34554319056E+02  0.11017814785E+03  0.13393711073E+03  0.60524064044E+02 0.  0.
         -6    2    1    2    0  501 -0.55325551308E+02 -0.98560966803E+02  0.51708545230E+03  0.55743307224E+03  0.17486876291E+03 0.  0.
        -24    2    5    5    0    0  0.26486617367E+02 -0.86578131647E+02  0.24986122270E+03  0.27766942526E+03  0.80451012053E+02 0.  0.
          5    1    3    3  502    0  0.86029982155E+02  0.64006647746E+02  0.45439032443E+03  0.46689470517E+03  0.47000000000E+01 0. -1.
        -13    1    4    4    0    0 -0.34020237490E+02  0.26508894904E+02  0.11580430782E+03  0.12357481854E+03  0.00000000000E+00 0.  1.
         14    1    4    4    0    0  0.33158066425E+01  0.80454241521E+01 -0.56261599681E+01  0.10362292192E+02  0.00000000000E+00 0. -1.
         -5    1    5    5    0  501 -0.81812168675E+02 -0.11982835156E+02  0.26722422961E+03  0.27976364698E+03  0.47000000000E+01 0.  1.
         13    1    6    6    0    0  0.33906069460E+02 -0.31937037088E+02  0.19268535052E+03  0.19823531519E+03  0.00000000000E+00 0. -1.
        -14    1    6    6    0    0 -0.74194520924E+01 -0.54641094559E+02  0.57175872179E+02  0.79434110075E+02  0.00000000000E+00 0.  1.
</event>
<event>
12    1  0.2609167E-002  0.1831381E+03  0.7818608E-02  0.1164800E+00
         -2   -1    0    0    0  501 -0.00000000000E+00  0.00000000000E+00  0.23865407230E+02  0.23865407230E+02  0.00000000000E+00 0. -1.
          2   -1    0    0  502    0  0.00000000000E+00 -0.00000000000E+00 -0.14270377250E+04  0.14270377250E+04  0.00000000000E+00 0.  1.
          6    2    1    2  502    0  0.14829643671E+02 -0.71967283162E+02 -0.77118091214E+03  0.79156358525E+03  0.16264594082E+03 0.  0.
         24    2    3    3    0    0 -0.10207573811E+02 -0.91841385227E+02 -0.72872270016E+03  0.73820974793E+03  0.73333645797E+02 0.  0.
         -6    2    1    2    0  501 -0.14829643671E+02  0.71967283162E+02 -0.63199140562E+03  0.65933954697E+03  0.17296327138E+03 0.  0.
        -24    2    5    5    0    0  0.51350616378E+02  0.73918519892E+02 -0.41702277973E+03  0.43435680483E+03  0.81590451047E+02 0.  0.
          5    1    3    3  502    0  0.25037217482E+02  0.19874102065E+02 -0.42458211980E+02  0.53353837320E+02  0.47000000000E+01 0. -1.
        -11    1    4    4    0    0  0.17275171786E+02 -0.31187925754E+02 -0.10386074528E+03  0.10980971124E+03  0.00000000000E+00 0.  1.
         12    1    4    4    0    0 -0.27482745597E+02 -0.60653459473E+02 -0.62486195488E+03  0.62840003669E+03  0.00000000000E+00 0. -1.
         -5    1    5    5    0  501 -0.66180260049E+02 -0.19512367300E+01 -0.21496862589E+03  0.22498274215E+03  0.47000000000E+01 0.  1.
         13    1    6    6    0    0  0.35393465790E+02  0.56106738286E+02 -0.12638590878E+03  0.14273773656E+03  0.00000000000E+00 0. -1.
        -14    1    6    6    0    0  0.15957150587E+02  0.17811781606E+02 -0.29063687095E+03  0.29161906827E+03  0.00000000000E+00 0.  1.
</event>
<event>
12    1  0.2609167E-002  0.2109264E+03  0.7818608E-02  0.1140834E+00
          1   -1    0    0  502    0  0.00000000000E+00  0.00000000000E+00  0.66733991409E+02  0.66733991409E+02  0.00000000000E+00 0. -1.
         -1   -1    0    0    0  501 -0.00000000000E+00 -0.00000000000E+00 -0.80551542998E+03  0.80551542998E+03  0.00000000000E+00 0.  1.
          6    2    1    2  502    0  0.38336017180E+02 -0.10691910079E+03 -0.55596769339E+03  0.59605112244E+03  0.18241578920E+03 0.  0.
         24    2    3    3    0    0  0.95169156972E+02 -0.94190499382E+02 -0.43937358656E+03  0.46563525371E+03  0.76406951986E+02 0.  0.
         -6    2    1    2    0  501 -0.38336017180E+02  0.10691910079E+03 -0.18281374518E+03  0.27619829894E+03  0.17309907737E+03 0.  0.
        -24    2    5    5    0    0 -0.53161739382E+02  0.13892365090E+03 -0.16601724963E+03  0.23684978525E+03  0.80063364183E+02 0.  0.
          5    1    3    3  502    0 -0.56833139792E+02 -0.12728601403E+02 -0.11659410682E+03  0.13041586874E+03  0.47000000000E+01 0. -1.
        -11    1    4    4    0    0  0.43580276656E+02 -0.86284743142E+02 -0.22288669165E+03  0.24294603254E+03  0.00000000000E+00 0.  1.
         12    1    4    4    0    0  0.51588880316E+02 -0.79057562401E+01 -0.21648689492E+03  0.22268922117E+03  0.00000000000E+00 0. -1.
         -5    1    5    5    0  501  0.14825722203E+02 -0.32004550117E+02 -0.16796495551E+02  0.39348513692E+02  0.47000000000E+01 0.  1.
         11    1    6    6    0    0  0.17958302819E+02  0.47619210168E+02 -0.33601680503E+02  0.60984938712E+02  0.00000000000E+00 0. -1.
        -12    1    6    6    0    0 -0.71120042201E+02  0.91304440734E+02 -0.13241556913E+03  0.17586484654E+03  0.00000000000E+00 0.  1.
</event>
<event>
12    1  0.2609167E-002  0.1922889E+03  0.7818608E-02  0.1156413E+00
         -2   -1    0    0    0  501 -0.00000000000E+00  0.00000000000E+00  0.16657284587E+02  0.16657284587E+02  0.00000000000E+00 0. -1.
          2   -1    0    0  502    0  0.00000000000E+00 -0.00000000000E+00 -0.22903162995E+04  0.22903162995E+04  0.00000000000E+00 0.  1.
          6    2    1    2  502    0 -0.64374889457E+02 -0.57787623577E+02 -0.93334025802E+03  0.95290636292E+03  0.17153123161E+03 0.  0.
         24    2    3    3    0    0 -0.24167152975E+02 -0.80341640566E+02 -0.84794212994E+03  0.85574528000E+03  0.79090441986E+02 0.  0.
         -6    2    1    2    0  501  0.64374889457E+02  0.57787623577E+02 -0.13403187569E+04  0.13540672212E+04  0.17193060673E+03 0.  0.
        -24    2    5    5    0    0  0.29619841404E+02 -0.39305265805E+01 -0.31607383530E+03  0.32736532050E+03  0.79828564196E+02 0.  0.
          5    1    3    3  502    0 -0.40207736482E+02  0.22554016988E+02 -0.85398128078E+02  0.97161082922E+02  0.47000000000E+01 0. -1.
        -13    1    4    4    0    0 -0.24548817239E+02 -0.96206021054E+02 -0.74501623553E+03  0.75160324249E+03  0.00000000000E+00 0.  1.
         14    1    4    4    0    0  0.38166426375E+00  0.15864380488E+02 -0.10292589441E+03  0.10414203750E+03  0.00000000000E+00 0. -1.
         -5    1    5    5    0  501  0.34755048053E+02  0.61718150158E+02 -0.10242449216E+04  0.10267019007E+04  0.47000000000E+01 0.  1.
         13    1    6    6    0    0  0.51206823541E+02  0.13257322950E+02 -0.15089373508E+03  0.15989626223E+03  0.00000000000E+00 0. -1.
        -14    1    6    6    0    0 -0.21586982137E+02 -0.17187849530E+02 -0.16518010022E+03  0.16746905827E+03  0.00000000000E+00 0.  1.
</event>
<event>
12    1  0.2609167E-002  0.1745674E+03  0.7818608E-02  0.1173167E+00
          2   -1    0    0  502    0  0.00000000000E+00  0.00000000000E+00  0.68513797230E+03  0.68513797230E+03  0.00000000000E+00 0. -1.
         -2   -1    0    0    0  501 -0.00000000000E+00 -0.00000000000E+00 -0.48782368036E+02  0.48782368036E+02  0.00000000000E+00 0.  1.
          6    2    1    2  502    0 -0.28436245185E+02  0.23858717008E+02  0.21164475353E+03  0.27528323825E+03  0.17207411527E+03 0.  0.
         24    2    3    3    0    0 -0.28261344546E+02 -0.35698892282E+02  0.19293767121E+03  0.21267984901E+03  0.77036736042E+02 0.  0.
         -6    2    1    2    0  501  0.28436245185E+02 -0.23858717008E+02  0.42471085074E+03  0.45863710209E+03  0.16908822036E+03 0.  0.
        -24    2    5    5    0    0  0.72244805622E+02 -0.13687585955E+01  0.36788818413E+03  0.38329857518E+03  0.79717603281E+02 0.  0.
          5    1    3    3  502    0 -0.17490063862E+00  0.59557609290E+02  0.18707082323E+02  0.62603389234E+02  0.47000000000E+01 0. -1.
        -13    1    4    4    0    0 -0.43801394108E+01 -0.54725727401E+02  0.91108551061E+02  0.10637132573E+03  0.00000000000E+00 0.  1.
         14    1    4    4    0    0 -0.23881205135E+02  0.19026835119E+02  0.10182912015E+03  0.10630852329E+03  0.00000000000E+00 0. -1.
         -5    1    5    5    0  501 -0.43808560438E+02 -0.22489958412E+02  0.56822666608E+02  0.75338526913E+02  0.47000000000E+01 0.  1.
         13    1    6    6    0    0  0.33988766958E+02  0.23718471101E+01  0.32038486811E+03  0.32219144255E+03  0.00000000000E+00 0. -1.
        -14    1    6    6    0    0  0.38256038664E+02 -0.37406057056E+01  0.47503316016E+02  0.61107132627E+02  0.00000000000E+00 0.  1.
</event>
<event>
12    1  0.2609167E-002  0.1756868E+03  0.7818608E-02  0.1172044E+00
          1   -1    0    0  502    0  0.00000000000E+00  0.00000000000E+00  0.45449525828E+03  0.45449525828E+03  0.00000000000E+00 0.  1.
         -1   -1    0    0    0  501 -0.00000000000E+00 -0.00000000000E+00 -0.89266431370E+02  0.89266431370E+02  0.00000000000E+00 0. -1.
          6    2    1    2  502    0 -0.26118178729E+02 -0.49882983472E+01  0.50791526069E+02  0.18426763826E+03  0.17512207459E+03 0.  0.
         24    2    3    3    0    0 -0.66927498947E+02  0.24418865564E+00 -0.15951300406E+02  0.10572163631E+03  0.80269986017E+02 0.  0.
         -6    2    1    2    0  501  0.26118178729E+02  0.49882983472E+01  0.31443730084E+03  0.35949405139E+03  0.17221531420E+03 0.  0.
        -24    2    5    5    0    0  0.83080816444E+02 -0.69333867272E+01  0.21595844869E+03  0.24500805665E+03  0.80252117432E+02 0.  0.
          5    1    3    3  502    0  0.40809320218E+02 -0.52324870029E+01  0.66742826475E+02  0.78546001953E+02  0.47000000000E+01 0. -1.
        -11    1    4    4    0    0 -0.61770058343E+02 -0.24001844871E+02  0.13079320653E+02  0.67547740848E+02  0.00000000000E+00 0.  1.
         12    1    4    4    0    0 -0.51574406039E+01  0.24246033527E+02 -0.29030621059E+02  0.38173895458E+02  0.00000000000E+00 0. -1.
         -5    1    5    5    0  501 -0.56962637714E+02  0.11921685074E+02  0.98478852154E+02  0.11448599474E+03  0.47000000000E+01 0.  1.
         13    1    6    6    0    0  0.34624959570E+02  0.34867648379E+02  0.11996526402E+03  0.12963913491E+03  0.00000000000E+00 0. -1.
        -14    1    6    6    0    0  0.48455856873E+02 -0.41801035106E+02  0.95993184667E+02  0.11536892174E+03  0.00000000000E+00 0.  1.
</event>
<event>
12    1  0.2609167E-002  0.1877299E+03  0.7818608E-02  0.1160525E+00
          4   -1    0    0  502    0  0.00000000000E+00  0.00000000000E+00  0.26592864516E+04  0.26592864516E+04  0.00000000000E+00 0.  1.
         -4   -1    0    0    0  501 -0.00000000000E+00 -0.00000000000E+00 -0.13257389451E+02  0.13257389451E+02  0.00000000000E+00 0. -1.
          6    2    1    2  502    0  0.55663846598E+02 -0.41440244675E+02  0.12905395333E+04  0.13039459053E+04  0.17310944258E+03 0.  0.
         24    2    3    3    0    0  0.82375466731E+02 -0.77847585620E+02  0.10516329669E+04  0.10607639927E+04  0.80264481690E+02 0.  0.
         -6    2    1    2    0  501 -0.55663846598E+02  0.41440244675E+02  0.13554895288E+04  0.13685979358E+04  0.17576316271E+03 0.  0.
        -24    2    5    5    0    0 -0.68617953723E+01  0.88410058146E+02  0.76731702855E+03  0.77651957638E+03  0.79648023145E+02 0.  0.
          5    1    3    3  502    0 -0.26711620132E+02  0.36407340946E+02  0.23890656647E+03  0.24318191262E+03  0.47000000000E+01 0. -1.
        -11    1    4    4    0    0  0.19625315376E+02  0.92020768548E+01  0.37952183922E+03  0.38014031313E+03  0.00000000000E+00 0.  1.
         12    1    4    4    0    0  0.62750151355E+02 -0.87049662475E+02  0.67211112763E+03  0.68062367952E+03  0.00000000000E+00 0. -1.
         -5    1    5    5    0  501 -0.48802051226E+02 -0.46969813471E+02  0.58817250028E+03  0.59207835940E+03  0.47000000000E+01 0.  1.
         11    1    6    6    0    0 -0.38771882510E+02  0.52018227486E+02  0.31442818932E+03  0.32105177324E+03  0.00000000000E+00 0. -1.
        -12    1    6    6    0    0  0.31910087137E+02  0.36391830660E+02  0.45288883923E+03  0.45546780314E+03  0.00000000000E+00 0.  1.
</event>
<event>
12    1  0.2609167E-002  0.2483505E+03  0.7818608E-02  0.1114352E+00
         -2   -1    0    0    0  501 -0.00000000000E+00  0.00000000000E+00  0.26233946174E+02  0.26233946174E+02  0.00000000000E+00 0. -1.
          2   -1    0    0  502    0  0.00000000000E+00 -0.00000000000E+00 -0.24737934801E+04  0.24737934801E+04  0.00000000000E+00 0.  1.
          6    2    1    2  502    0 -0.10683739117E+03 -0.14546873704E+03 -0.95010746047E+03  0.98228414232E+03  0.17205396888E+03 0.  0.
         24    2    3    3    0    0 -0.43154508130E+02 -0.36256652258E+02 -0.20132340678E+03  0.22288804138E+03  0.77272947858E+02 0.  0.
         -6    2    1    2    0  501  0.10683739117E+03  0.14546873704E+03 -0.14974520735E+04  0.15177432839E+04  0.16913480443E+03 0.  0.
        -24    2    5    5    0    0 -0.64362314178E+01  0.88711337277E+02 -0.76524554513E+03  0.77464113342E+03  0.80975396295E+02 0.  0.
          5    1    3    3  502    0 -0.63682883044E+02 -0.10921208479E+03 -0.74878405369E+03  0.75939610094E+03  0.47000000000E+01 0. -1.
        -11    1    4    4    0    0  0.22519314157E+02 -0.93771937158E+01 -0.44229385519E+02  0.50510294153E+02  0.00000000000E+00 0.  1.
         12    1    4    4    0    0 -0.65673822286E+02 -0.26879458542E+02 -0.15709402126E+03  0.17237774723E+03  0.00000000000E+00 0. -1.
         -5    1    5    5    0  501  0.11327362259E+03  0.56757399767E+02 -0.73220652833E+03  0.74310215053E+03  0.47000000000E+01 0.  1.
         13    1    6    6    0    0  0.11568790533E+02  0.27693826653E+02 -0.65955591070E+02  0.72463266160E+02  0.00000000000E+00 0. -1.
        -14    1    6    6    0    0 -0.18005021951E+02  0.61017510624E+02 -0.69928995406E+03  0.70217786726E+03  0.00000000000E+00 0.  1.
</event>
<event>
12    1  0.2609167E-002  0.2965218E+03  0.7818608E-02  0.1086992E+00
          2   -1    0    0  502    0  0.00000000000E+00  0.00000000000E+00  0.11565832845E+04  0.11565832845E+04  0.00000000000E+00 0.  1.
         -2   -1    0    0    0  501 -0.00000000000E+00 -0.00000000000E+00 -0.83175939484E+02  0.83175939484E+02  0.00000000000E+00 0. -1.
          6    2    1    2  502    0  0.20620333733E+03  0.12681315285E+03  0.71747219719E+03  0.77609514534E+03  0.17016441704E+03 0.  0.
         24    2    3    3    0    0  0.45280684463E+02  0.64826367757E+02  0.39187749187E+03  0.40762199318E+03  0.79592225443E+02 0.  0.
         -6    2    1    2    0  501 -0.20620333733E+03 -0.12681315285E+03  0.35593514784E+03  0.46366407865E+03  0.17231702268E+03 0.  0.
        -24    2    5    5    0    0 -0.74204492286E+02 -0.17096970449E+02  0.71590305601E+02  0.13149632724E+03  0.79796611127E+02 0.  0.
          5    1    3    3  502    0  0.16092265286E+03  0.61986785089E+02  0.32559470532E+03  0.36847315216E+03  0.47000000000E+01 0. -1.
        -13    1    4    4    0    0  0.29414226305E+02  0.68913193597E+02  0.38017294158E+03  0.38748637456E+03  0.00000000000E+00 0.  1.
         14    1    4    4    0    0  0.15866458158E+02 -0.40868258400E+01  0.11704550295E+02  0.20135618628E+02  0.00000000000E+00 0. -1.
         -5    1    5    5    0  501 -0.13199884504E+03 -0.10971618240E+03  0.28434484224E+03  0.33216775141E+03  0.47000000000E+01 0.  1.
         11    1    6    6    0    0 -0.79451264427E+02 -0.34745725633E+02  0.72544312844E+02  0.11305948078E+03  0.00000000000E+00 0. -1.
        -12    1    6    6    0    0  0.52467721411E+01  0.17648755184E+02 -0.95400724298E+00  0.18436846456E+02  0.00000000000E+00 0.  1.
</event>
<event>
12    1  0.2609167E-002  0.1759843E+03  0.7818608E-02  0.1171747E+00
          2   -1    0    0  502    0  0.00000000000E+00  0.00000000000E+00  0.18790078240E+03  0.18790078240E+03  0.00000000000E+00 0. -1.
         -2   -1    0    0    0  501 -0.00000000000E+00 -0.00000000000E+00 -0.27813383068E+03  0.27813383068E+03  0.00000000000E+00 0.  1.
          6    2    1    2  502    0 -0.18213974389E+02  0.13053885683E+02 -0.19229529343E+03  0.25540357882E+03  0.16658738069E+03 0.  0.
         24    2    3    3    0    0  0.21142338994E+01 -0.62138749957E+02 -0.11691328413E+03  0.14690608653E+03  0.63615941582E+02 0.  0.
         -6    2    1    2    0  501  0.18213974389E+02 -0.13053885683E+02  0.10206224515E+03  0.21063103425E+03  0.18288405592E+03 0.  0.
        -24    2    5    5    0    0 -0.43176415128E+02 -0.68325460861E+02  0.75713255077E+02  0.12379736437E+03  0.55323765277E+02 0.  0.
          5    1    3    3  502    0 -0.20328208288E+02  0.75192635640E+02 -0.75382009308E+02  0.10849749229E+03  0.47000000000E+01 0. -1.
        -13    1    4    4    0    0 -0.17170177191E+02 -0.51594509349E+02 -0.11182663570E+03  0.12434631008E+03  0.00000000000E+00 0.  1.
         14    1    4    4    0    0  0.19284411091E+02 -0.10544240608E+02 -0.50866484280E+01  0.22559776447E+02  0.00000000000E+00 0. -1.
         -5    1    5    5    0  501  0.61390389516E+02  0.55271575178E+02  0.26348990075E+02  0.86833669884E+02  0.47000000000E+01 0.  1.
         13    1    6    6    0    0  0.12187136803E+01 -0.45210620751E+02  0.21715968379E+02  0.50170397391E+02  0.00000000000E+00 0. -1.
        -14    1    6    6    0    0 -0.44395128808E+02 -0.23114840110E+02  0.53997286698E+02  0.73626966975E+02  0.00000000000E+00 0.  1.
</event>
<event>
12    1  0.2609167E-002  0.3658989E+03  0.7818608E-02  0.1056272E+00
         -2   -1    0    0    0  501 -0.00000000000E+00  0.00000000000E+00  0.11577564292E+03  0.11577564292E+03  0.00000000000E+00 0.  1.
          2   -1    0    0  502    0  0.00000000000E+00 -0.00000000000E+00 -0.12025820592E+04  0.12025820592E+04  0.00000000000E+00 0. -1.
          6    2    1    2  502    0 -0.11572750734E+03  0.30076287971E+03 -0.67311027471E+03  0.76630707530E+03  0.17406299423E+03 0.  0.
         24    2    3    3    0    0 -0.14245613958E+03  0.24093399510E+03 -0.47190753636E+03  0.55465040251E+03  0.81224407837E+02 0.  0.
         -6    2    1    2    0  501  0.11572750734E+03 -0.30076287971E+03 -0.41369614154E+03  0.55205062679E+03  0.17252313251E+03 0.  0.
        -24    2    5    5    0    0  0.97488610409E+02 -0.12517875020E+03 -0.27563481754E+03  0.32789562889E+03  0.79795000762E+02 0.  0.
          5    1    3    3  502    0  0.26728632247E+02  0.59828884606E+02 -0.20120273835E+03  0.21165667278E+03  0.47000000000E+01 0. -1.
        -13    1    4    4    0    0 -0.93634635678E+02  0.11347436841E+03 -0.30816344574E+03  0.34147999440E+03  0.00000000000E+00 0.  1.
         14    1    4    4    0    0 -0.48821503905E+02  0.12745962670E+03 -0.16374409063E+03  0.21317040812E+03  0.00000000000E+00 0. -1.
         -5    1    5    5    0  501  0.18238896928E+02 -0.17558412951E+03 -0.13806132400E+03  0.22415499790E+03  0.47000000000E+01 0.  1.
         11    1    6    6    0    0  0.19610846456E+02 -0.82535927967E+02 -0.16930498074E+03  0.18936985295E+03  0.00000000000E+00 0. -1.
        -12    1    6    6    0    0  0.77877763953E+02 -0.42642822230E+02 -0.10632983680E+03  0.13852577594E+03  0.00000000000E+00 0.  1.
</event>
<event>
12    1  0.2609167E-002  0.2388692E+03  0.7818608E-02  0.1120548E+00
          2   -1    0    0  502    0  0.00000000000E+00  0.00000000000E+00  0.13778873292E+04  0.13778873292E+04  0.00000000000E+00 0. -1.
         -2   -1    0    0    0  501 -0.00000000000E+00 -0.00000000000E+00 -0.46536210761E+02  0.46536210761E+02  0.00000000000E+00 0.  1.
          6    2    1    2  502    0 -0.13940789038E+03  0.80570479250E+02  0.90943744002E+03  0.94106814880E+03  0.18057309144E+03 0.  0.
         24    2    3    3    0    0 -0.49691202687E+02  0.66607254057E+02  0.25163896683E+03  0.27701621030E+03  0.80684999965E+02 0.  0.
         -6    2    1    2    0  501  0.13940789038E+03 -0.80570479250E+02  0.42191367837E+03  0.48335539111E+03  0.17232272077E+03 0.  0.
        -24    2    5    5    0    0  0.90382433116E+02 -0.39887634166E+02  0.12188359860E+03  0.17660023123E+03  0.81068011500E+02 0.  0.
          5    1    3    3  502    0 -0.89716687694E+02  0.13963225193E+02  0.65779847318E+03  0.66405193850E+03  0.47000000000E+01 0. -1.
        -11    1    4    4    0    0  0.21040450882E+02  0.10187171588E+02  0.74915793700E+02  0.78478373989E+02  0.00000000000E+00 0.  1.
         12    1    4    4    0    0 -0.70731653569E+02  0.56420082469E+02  0.17672317314E+03  0.19853783631E+03  0.00000000000E+00 0. -1.
         -5    1    5    5    0  501  0.49025457265E+02 -0.40682845085E+02  0.30003007978E+03  0.30675515988E+03  0.47000000000E+01 0.  1.
         13    1    6    6    0    0  0.26054302991E+02 -0.33927397397E+02  0.50231064792E+01  0.43071180587E+02  0.00000000000E+00 0. -1.
        -14    1    6    6    0    0  0.64328130125E+02 -0.59602367682E+01  0.11686049212E+03  0.13352905064E+03  0.00000000000E+00 0.  1.
</event>
<event>
12    1  0.2609167E-002  0.2495792E+03  0.7818608E-02  0.1113571E+00
         -1   -1    0    0    0  501 -0.00000000000E+00  0.00000000000E+00  0.40276235015E+03  0.40276235015E+03  0.00000000000E+00 0.  1.
          1   -1    0    0  502    0  0.00000000000E+00 -0.00000000000E+00 -0.15687221958E+03  0.15687221958E+03  0.00000000000E+00 0. -1.
          6    2    1    2  502    0 -0.16036454684E+03  0.78401933923E+02  0.88918802305E+02  0.26335236242E+03  0.17200076239E+03 0.  0.
         24    2    3    3    0    0 -0.12257235650E+03  0.23879037893E+02  0.11882610712E+03  0.19043094771E+03  0.80932756563E+02 0.  0.
         -6    2    1    2    0  501  0.16036454684E+03 -0.78401933923E+02  0.15697132827E+03  0.29628220731E+03  0.17686010672E+03 0.  0.
        -24    2    5    5    0    0  0.11813701277E+03  0.15969285398E+02  0.11773791044E+03  0.18560048912E+03  0.79837047428E+02 0.  0.
          5    1    3    3  502    0 -0.37792190343E+02  0.54522896029E+02 -0.29907304811E+02  0.72921414711E+02  0.47000000000E+01 0. -1.
        -13    1    4    4    0    0 -0.58851755276E+02 -0.27852749428E+02  0.38778057848E+02  0.75782864292E+02  0.00000000000E+00 0.  1.
         14    1    4    4    0    0 -0.63720601220E+02  0.51731787322E+02  0.80048049268E+02  0.11464808342E+03  0.00000000000E+00 0. -1.
         -5    1    5    5    0  501  0.42227534070E+02 -0.94371219320E+02  0.39233417821E+02  0.11068171820E+03  0.47000000000E+01 0.  1.
         13    1    6    6    0    0  0.34197569541E+01 -0.19499786392E+02  0.39768509278E+01  0.20192863845E+02  0.00000000000E+00 0. -1.
        -14    1    6    6    0    0  0.11471725581E+03  0.35469071789E+02  0.11376105952E+03  0.16540762527E+03  0.00000000000E+00 0.  1.
</event>
<event>
12    1  0.2609167E-002  0.1829851E+03  0.7818608E-02  0.1164945E+00
          2   -1    0    0  502    0  0.00000000000E+00  0.00000000000E+00  0.80134141874E+03  0.80134141874E+03  0.00000000000E+00 0. -1.
         -2   -1    0    0    0  501 -0.00000000000E+00 -0.00000000000E+00 -0.42027521305E+02  0.42027521305E+02  0.00000000000E+00 0.  1.
          6    2    1    2  502    0  0.26893214560E+02 -0.59659727125E+02  0.41256628953E+03  0.45149249065E+03  0.17132424763E+03 0.  0.
         24    2    3    3    0    0  0.16068201643E+01 -0.43796479204E+01  0.75599632586E+02  0.10905431113E+03  0.78458748030E+02 0.  0.
         -6    2    1    2    0  501 -0.26893214560E+02  0.59659727125E+02  0.34674760790E+03  0.39187644940E+03  0.17044271757E+03 0.  0.
        -24    2    5    5    0    0 -0.31249948108E+02  0.59858164347E+02  0.36123969100E+03  0.37602933682E+03  0.79651671050E+02 0.  0.
          5    1    3    3  502    0  0.25286394396E+02 -0.55280079205E+02  0.33696665695E+03  0.34243817952E+03  0.47000000000E+01 0. -1.
        -11    1    4    4    0    0 -0.11928712544E+02  0.28400988595E+02  0.65176058107E+02  0.72089034440E+02  0.00000000000E+00 0.  1.
         12    1    4    4    0    0  0.13535532708E+02 -0.32780636515E+02  0.10423574479E+02  0.36965276693E+02  0.00000000000E+00 0. -1.
         -5    1    5    5    0  501  0.43567335473E+01 -0.19843722207E+00 -0.14492083094E+02  0.15847112575E+02  0.47000000000E+01 0.  1.
         11    1    6    6    0    0  0.15625676264E+02  0.51417407307E+02  0.14582397581E+03  0.15541088590E+03  0.00000000000E+00 0. -1.
        -12    1    6    6    0    0 -0.46875624372E+02  0.84407570400E+01  0.21541571519E+03  0.22061845092E+03  0.00000000000E+00 0.  1.
</event>
