<event>
12    1  0.8526130E-002  0.2057059E+03  0.7818608E-02  0.1145085E+00
         21   -1    0    0  503  502  0.00000000000E+00  0.00000000000E+00  0.26265311834E+03  0.26265311834E+03  0.00000000000E+00 0. -1.
         21   -1    0    0  501  503 -0.00000000000E+00 -0.00000000000E+00 -0.16789557679E+03  0.16789557679E+03  0.00000000000E+00 0. -1.
          6    2    1    2  501    0 -0.58515095226E+02 -0.94021270513E+02  0.31683177167E+01  0.20537426670E+03  0.17292927892E+03 0.  0.
         24    2    3    3    0    0 -0.10651886416E+03 -0.61976668554E+02 -0.73254045931E+01  0.14652338265E+03  0.78918085659E+02 0.  0.
         -6    2    1    2    0  502  0.58515095226E+02  0.94021270513E+02  0.91589223837E+02  0.22517442842E+03  0.17335201647E+03 0.  0.
        -24    2    5    5    0    0  0.70853523324E+02  0.11289470861E+03  0.11480423974E+03  0.19247166957E+03  0.78101812554E+02 0.  0.
          5    1    3    3  501    0  0.48003768930E+02 -0.32044601959E+02  0.10493722310E+02  0.58850884056E+02  0.47000000000E+01 0. -1.
        -11    1    4    4    0    0 -0.86792189375E+02 -0.61378624217E+01 -0.15653792252E+01  0.87023030881E+02  0.00000000000E+00 0.  1.
         12    1    4    4    0    0 -0.19726674781E+02 -0.55838806132E+02 -0.57600253678E+01  0.59500351767E+02  0.00000000000E+00 0. -1.
         -5    1    5    5    0  502 -0.12338428098E+02 -0.18873438093E+02 -0.23215015906E+02  0.32702758858E+02  0.47000000000E+01 0.  1.
         13    1    6    6    0    0  0.50603213918E+02  0.10243992049E+03  0.51758892820E+02  0.12543366994E+03  0.00000000000E+00 0. -1.
        -14    1    6    6    0    0  0.20250309406E+02  0.10454788120E+02  0.63045346923E+02  0.67037999630E+02  0.00000000000E+00 0.  1.
</event>
<event>
12    1  0.8526130E-002  0.2029684E+03  0.7818608E-02  0.1147758E+00
         21   -1    0    0  503  502  0.00000000000E+00  0.00000000000E+00  0.83735861469E+02  0.83735861469E+02  0.00000000000E+00 0. -1.
         21   -1    0    0  501  503 -0.00000000000E+00 -0.00000000000E+00 -0.56240605882E+03  0.56240605882E+03  0.00000000000E+00 0.  1.
          6    2    1    2  501    0 -0.86224758744E+02  0.64157493796E+02 -0.35704411688E+03  0.40952185135E+03  0.16934211616E+03 0.  0.
         24    2    3    3    0    0 -0.59579804677E+02 -0.18901025332E+01 -0.93501083192E+02  0.13648474918E+03  0.79575804030E+02 0.  0.
         -6    2    1    2    0  502  0.86224758744E+02 -0.64157493796E+02 -0.12162608047E+03  0.23662006894E+03  0.17217799088E+03 0.  0.
        -24    2    5    5    0    0  0.44439973774E+02  0.18745352699E+02 -0.14575407046E+02  0.94842825021E+02  0.80351847835E+02 0.  0.
          5    1    3    3  501    0 -0.26644954067E+02  0.66047596329E+02 -0.26354303369E+03  0.27303710218E+03  0.47000000000E+01 0. -1.
        -11    1    4    4    0    0 -0.29967533687E+02 -0.28551762049E+02 -0.86684350941E+02  0.96059527843E+02  0.00000000000E+00 0.  1.
         12    1    4    4    0    0 -0.29612270990E+02  0.26661659516E+02 -0.68167322504E+01  0.40425221334E+02  0.00000000000E+00 0. -1.
         -5    1    5    5    0  502  0.41784784970E+02 -0.82902846495E+02 -0.10705067343E+03  0.14177724392E+03  0.47000000000E+01 0.  1.
         13    1    6    6    0    0 -0.18332409075E+02  0.24125083721E+02 -0.58548379700E+00  0.30305769720E+02  0.00000000000E+00 0. -1.
        -14    1    6    6    0    0  0.62772382848E+02 -0.53797310227E+01 -0.13989923249E+02  0.64537055301E+02  0.00000000000E+00 0.  1.
</event>
<event>
12    1  0.8526130E-002  0.1817269E+03  0.7818608E-02  0.1167638E+00
         21   -1    0    0  503  502  0.00000000000E+00  0.00000000000E+00  0.21176061894E+03  0.21176061894E+03  0.00000000000E+00 0. -1.
         21   -1    0    0  501  503 -0.00000000000E+00 -0.00000000000E+00 -0.31060352891E+03  0.31060352891E+03  0.00000000000E+00 0. -1.
          6    2    1    2  501    0  0.23576303254E+02  0.27581596834E+02 -0.23720632384E+03  0.29881684036E+03  0.17806762045E+03 0.  0.
         24    2    3    3    0    0  0.53526955772E+02 -0.28395660038E+02 -0.79910195005E+02  0.12912695551E+03  0.81342995209E+02 0.  0.
         -6    2    1    2    0  502 -0.23576303254E+02 -0.27581596834E+02  0.13836341387E+03  0.22354730750E+03  0.17179166986E+03 0.  0.
        -24    2    5    5    0    0  0.34555377675E+02  0.23308725562E+02  0.11607945036E+03  0.14300053679E+03  0.72369495736E+02 0.  0.
          5    1    3    3  501    0 -0.29950652518E+02  0.55977256872E+02 -0.15729612884E+03  0.16968988485E+03  0.47000000000E+01 0. -1.
        -11    1    4    4    0    0 -0.15833982173E+02 -0.18089094858E+02 -0.17239142892E+01  0.24101913300E+02  0.00000000000E+00 0.  1.
         12    1    4    4    0    0  0.69360937945E+02 -0.10306565180E+02 -0.78186280716E+02  0.10502504221E+03  0.00000000000E+00 0. -1.
         -5    1    5    5    0  502 -0.58131680929E+02 -0.50890322396E+02  0.22283963503E+02  0.80546770702E+02  0.47000000000E+01 0.  1.
         11    1    6    6    0    0  0.48457739234E+02 -0.41372846329E+01  0.48192845273E+02  0.68467656242E+02  0.00000000000E+00 0. -1.
        -12    1    6    6    0    0 -0.13902361559E+02  0.27446010195E+02  0.67886605092E+02  0.74532880552E+02  0.00000000000E+00 0.  1.
</event>
<event>
12    1  0.8526130E-002  0.1895325E+03  0.7818608E-02  0.1159074E+00
         21   -1    0    0  503  502  0.00000000000E+00  0.00000000000E+00  0.70374534668E+03  0.70374534668E+03  0.00000000000E+00 0. -1.
         21   -1    0    0  501  503 -0.00000000000E+00 -0.00000000000E+00 -0.13093619091E+03  0.13093619091E+03  0.00000000000E+00 0. -1.
          6    2    1    2  501    0 -0.77106540049E+02 -0.31210502106E+01 -0.40295716752E+02  0.19294938482E+03  0.17219338210E+03 0.  0.
         24    2    3    3    0    0 -0.11805244962E+03  0.11668903225E+02 -0.46187136728E+02  0.14876670651E+03  0.76978810098E+02 0.  0.
         -6    2    1    2    0  502  0.77106540049E+02  0.31210502106E+01  0.61310487252E+03  0.64173215278E+03  0.17311098096E+03 0.  0.
        -24    2    5    5    0    0  0.73519583043E+02  0.39178217093E+02  0.58375013077E+03  0.59486237139E+03  0.78466323579E+02 0.  0.
          5    1    3    3  501    0  0.40945909568E+02 -0.14789953436E+02  0.58914199764E+01  0.44182678307E+02  0.47000000000E+01 0. -1.
        -13    1    4    4    0    0 -0.34028784244E+02 -0.30336028682E+01  0.21071636853E+02  0.40139441740E+02  0.00000000000E+00 0.  1.
         14    1    4    4    0    0 -0.84023665373E+02  0.14702506093E+02 -0.67258773582E+02  0.10862726477E+03  0.00000000000E+00 0. -1.
         -5    1    5    5    0  502  0.35869570054E+01 -0.36057166883E+02  0.29354741750E+02  0.46869781388E+02  0.47000000000E+01 0.  1.
         13    1    6    6    0    0  0.19114871912E+01  0.42686719825E+02  0.22322369072E+03  0.22727654065E+03  0.00000000000E+00 0. -1.
        -14    1    6    6    0    0  0.71608095852E+02 -0.35085027321E+01  0.36052644005E+03  0.36758583074E+03  0.00000000000E+00 0.  1.
</event>
<event>
12    1  0.8526130E-002  0.1751807E+03  0.7818608E-02  0.1172569E+00
         21   -1    0    0  501  502  0.00000000000E+00  0.00000000000E+00  0.22747581167E+03  0.22747581167E+03  0.00000000000E+00 0.  1.
         21   -1    0    0  502  503 -0.00000000000E+00 -0.00000000000E+00 -0.15419347809E+03  0.15419347809E+03  0.00000000000E+00 0.  1.
         -6    2    1    2    0  503  0.23025026860E+02  0.23784434816E+02 -0.30957684074E+02  0.17782069988E+03  0.17194758475E+03 0.  0.
        -24    2    3    3    0    0 -0.40212255647E+01 -0.36930251508E+02 -0.52854256085E+02  0.10768281588E+03  0.86151045951E+02 0.  0.
          6    2    1    2  501    0 -0.23025026860E+02 -0.23784434816E+02  0.10424001765E+03  0.20384858988E+03  0.17202446081E+03 0.  0.
         24    2    5    5    0    0  0.40386020746E+02 -0.52269145117E+02  0.48258911077E+02  0.11447122153E+03  0.80072741045E+02 0.  0.
          5    1    5    5  501    0 -0.63411047606E+02  0.28484710301E+02  0.55981106570E+02  0.89377368345E+02  0.47000000000E+01 0. -1.
        -11    1    6    6    0    0  0.11880551419E+02 -0.34780487518E+01 -0.21431648914E+02  0.24749947481E+02  0.00000000000E+00 0.  1.
         12    1    6    6    0    0  0.28505469328E+02 -0.48791096365E+02  0.69690559991E+02  0.89721274054E+02  0.00000000000E+00 0. -1.
         -5    1    3    3    0  503  0.27046252425E+02  0.60714686324E+02  0.21896572011E+02  0.70137883997E+02  0.47000000000E+01 0.  1.
         13    1    4    4    0    0  0.73264372013E+01 -0.24024897646E+02 -0.75320280321E+02  0.79397840126E+02  0.00000000000E+00 0. -1.
        -14    1    4    4    0    0 -0.11347662766E+02 -0.12905353863E+02  0.22466024236E+02  0.28284975757E+02  0.00000000000E+00 0.  1.
</event>
<event>
12    1  0.8526130E-002  0.2035179E+03  0.7818608E-02  0.1147032E+00
         21   -1    0    0  503  502  0.00000000000E+00  0.00000000000E+00  0.93485949277E+02  0.93485949277E+02  0.00000000000E+00 0.  1.
         21   -1    0    0  501  503 -0.00000000000E+00 -0.00000000000E+00 -0.47639717660E+03  0.47639717660E+03  0.00000000000E+00 0.  1.
          6    2    1    2  501    0  0.73988141998E+02  0.76023216071E+02 -0.26997092683E+03  0.33808849656E+03  0.17368291692E+03 0.  0.
         24    2    3    3    0    0  0.33066546965E+02  0.11811220265E+03 -0.18368585584E+03  0.23362193153E+03  0.76123743440E+02 0.  0.
         -6    2    1    2    0  502 -0.73988141998E+02 -0.76023216071E+02 -0.11294030049E+03  0.23179462932E+03  0.17239334143E+03 0.  0.
        -24    2    5    5    0    0 -0.96118521668E+02 -0.17088994119E+02 -0.11235725371E+03  0.16866439753E+03  0.79326682818E+02 0.  0.
          5    1    3    3  501    0  0.40921595033E+02 -0.42088986577E+02 -0.86285070998E+02  0.10446656503E+03  0.47000000000E+01 0. -1.
        -13    1    4    4    0    0 -0.22039648709E+02  0.12999216813E+02 -0.35740070475E+02  0.43955413666E+02  0.00000000000E+00 0.  1.
         14    1    4    4    0    0  0.55106195674E+02  0.10511298584E+03 -0.14794578536E+03  0.18966651787E+03  0.00000000000E+00 0. -1.
         -5    1    5    5    0  502  0.22130379670E+02 -0.58934221952E+02 -0.58304677726E+00  0.63130231783E+02  0.47000000000E+01 0.  1.
         11    1    6    6    0    0 -0.64772400824E+02  0.25549080829E+02 -0.82302246199E+02  0.10780481979E+03  0.00000000000E+00 0. -1.
        -12    1    6    6    0    0 -0.31346120844E+02 -0.42638074948E+02 -0.30055007509E+02  0.60859577748E+02  0.00000000000E+00 0.  1.
</event>
<event>
12    1  0.8526130E-002  0.1952683E+03  0.7818608E-02  0.1153861E+00
         21   -1    0    0  503  502  0.00000000000E+00  0.00000000000E+00  0.31848995734E+03  0.31848995734E+03  0.00000000000E+00 0.  1.
         21   -1    0    0  501  503 -0.00000000000E+00 -0.00000000000E+00 -0.47570248498E+03  0.47570248498E+03  0.00000000000E+00 0.  1.
          6    2    1    2  501    0  0.81544687698E+02  0.38054843900E+02 -0.42219382750E+03  0.46503473302E+03  0.17295076669E+03 0.  0.
         24    2    3    3    0    0 -0.44564117859E+01  0.48321806899E+02 -0.30622541626E+03  0.32021635695E+03  0.80060308942E+02 0.  0.
         -6    2    1    2    0  502 -0.81544687698E+02 -0.38054843900E+02  0.26498129986E+03  0.32915770930E+03  0.17329743530E+03 0.  0.
        -24    2    5    5    0    0 -0.86772048461E+02 -0.45955618357E+02  0.92536969086E+02  0.15638941142E+03  0.79077494291E+02 0.  0.
          5    1    3    3  501    0  0.86001099484E+02 -0.10266962999E+02 -0.11596841124E+03  0.14481837607E+03  0.47000000000E+01 0. -1.
        -11    1    4    4    0    0 -0.56163568095E+01 -0.13030066155E+02 -0.17251806154E+03  0.17310057090E+03  0.00000000000E+00 0.  1.
         12    1    4    4    0    0  0.11599450236E+01  0.61351873055E+02 -0.13370735471E+03  0.14711578605E+03  0.00000000000E+00 0. -1.
         -5    1    5    5    0  502  0.52273607630E+01  0.79007744569E+01  0.17244433078E+03  0.17276829789E+03  0.47000000000E+01 0.  1.
         13    1    6    6    0    0 -0.89285491386E+02 -0.61829005144E+02  0.87740518995E+02  0.13961777653E+03  0.00000000000E+00 0. -1.
        -14    1    6    6    0    0  0.25134429247E+01  0.15873386787E+02  0.47964500908E+01  0.16771634890E+02  0.00000000000E+00 0.  1.
</event>
<event>
12    1  0.8526130E-002  0.1798716E+03  0.7818608E-02  0.1168506E+00
         21   -1    0    0  501  502  0.00000000000E+00  0.00000000000E+00  0.56124618408E+03  0.56124618408E+03  0.00000000000E+00 0.  1.
         21   -1    0    0  502  503 -0.00000000000E+00 -0.00000000000E+00 -0.22897243293E+03  0.22897243293E+03  0.00000000000E+00 0.  1.
         -6    2    1    2    0  503 -0.34083627913E+02 -0.30164698048E+02 -0.17666312045E+03  0.25043114278E+03  0.17156426331E+03 0.  0.
        -24    2    3    3    0    0  0.32073567472E+02 -0.57679003286E+02 -0.14008141336E+03  0.16984502246E+03  0.69777848467E+02 0.  0.
          6    2    1    2  501    0  0.34083627913E+02  0.30164698048E+02  0.50893687160E+03  0.53978747423E+03  0.17401774438E+03 0.  0.
         24    2    5    5    0    0  0.52705500237E+02  0.67585669410E+02  0.46228974295E+03  0.47697706237E+03  0.80309520757E+02 0.  0.
          5    1    5    5  501    0 -0.18621872325E+02 -0.37420971362E+02  0.46647128654E+02  0.62810411861E+02  0.47000000000E+01 0. -1.
        -13    1    6    6    0    0  0.11144012864E+02  0.18155788877E+02  0.32010565039E+03  0.32081372961E+03  0.00000000000E+00 0.  1.
         14    1    6    6    0    0  0.41561487373E+02  0.49429880533E+02  0.14218409256E+03  0.15616333276E+03  0.00000000000E+00 0. -1.
         -5    1    3    3    0  503 -0.66157195384E+02  0.27514305238E+02 -0.36581707091E+02  0.80586120316E+02  0.47000000000E+01 0.  1.
         13    1    4    4    0    0 -0.20667537218E+01  0.52791072334E+01 -0.67989629217E+02  0.68225582630E+02  0.00000000000E+00 0. -1.
        -14    1    4    4    0    0  0.34140321194E+02 -0.62958110519E+02 -0.72091784141E+02  0.10161943983E+03  0.00000000000E+00 0.  1.
</event>
<event>
12    1  0.8526130E-002  0.2235287E+03  0.7818608E-02  0.1131958E+00
         21   -1    0    0  501  502  0.00000000000E+00  0.00000000000E+00  0.89516513932E+03  0.89516513932E+03  0.00000000000E+00 0. -1.
         21   -1    0    0  502  503 -0.00000000000E+00 -0.00000000000E+00 -0.64617828484E+02  0.64617828484E+02  0.00000000000E+00 0.  1.
         -6    2    1    2    0  503 -0.11773246468E+03 -0.77482163265E+02  0.23211647960E+03  0.32224699731E+03  0.17349538411E+03 0.  0.
        -24    2    3    3    0    0 -0.13889539296E+02 -0.47213439894E+01  0.15139650077E+03  0.17186317186E+03  0.80005243608E+02 0.  0.
          6    2    1    2  501    0  0.11773246468E+03  0.77482163265E+02  0.59843083123E+03  0.63753597049E+03  0.16872532424E+03 0.  0.
         24    2    5    5    0    0  0.28373395087E+02  0.12172737011E+02  0.40889971883E+03  0.41800351949E+03  0.81084752995E+02 0.  0.
          5    1    5    5  501    0  0.89359069596E+02  0.65309426255E+02  0.18953111240E+03  0.21953245101E+03  0.47000000000E+01 0. -1.
        -11    1    6    6    0    0 -0.12056479031E+02  0.24640765455E+02  0.53779327177E+02  0.60371699003E+02  0.00000000000E+00 0.  1.
         12    1    6    6    0    0  0.40429874119E+02 -0.12468028444E+02  0.35512039165E+03  0.35763182048E+03  0.00000000000E+00 0. -1.
         -5    1    3    3    0  503 -0.10384292539E+03 -0.72760819276E+02  0.80719978834E+02  0.15038382545E+03  0.47000000000E+01 0.  1.
         13    1    4    4    0    0  0.24221798884E+02  0.22367667552E+02  0.79895015766E+02  0.86430443926E+02  0.00000000000E+00 0. -1.
        -14    1    4    4    0    0 -0.38111338180E+02 -0.27089011542E+02  0.71501485004E+02  0.85432727933E+02  0.00000000000E+00 0.  1.
</event>
<event>
12    1  0.8526130E-002  0.1913992E+03  0.7818608E-02  0.1162972E+00
         21   -1    0    0  503  502  0.00000000000E+00  0.00000000000E+00  0.19939257018E+03  0.19939257018E+03  0.00000000000E+00 0. -1.
         21   -1    0    0  501  503 -0.00000000000E+00 -0.00000000000E+00 -0.17839284122E+03  0.17839284122E+03  0.00000000000E+00 0.  1.
          6    2    1    2  501    0 -0.57847950026E+02  0.35314238958E+02  0.68084999845E+02  0.18067962455E+03  0.15302313135E+03 0.  0.
         24    2    3    3    0    0 -0.89881587673E+02  0.24094873055E+01  0.22107914680E+02  0.11552704224E+03  0.69088582012E+02 0.  0.
         -6    2    1    2    0  502  0.57847950026E+02 -0.35314238958E+02 -0.47085270887E+02  0.19710578684E+03  0.17899773093E+03 0.  0.
        -24    2    5    5    0    0 -0.83517336173E+01 -0.74480025267E+02 -0.52510307055E+01  0.10942140634E+03  0.79551525596E+02 0.  0.
          5    1    3    3  501    0  0.32033637647E+02  0.32904751652E+02  0.45977085165E+02  0.65152582316E+02  0.47000000000E+01 0. -1.
        -13    1    4    4    0    0 -0.16293811711E+02 -0.11206472387E+02 -0.21257440138E+02  0.29033637124E+02  0.00000000000E+00 0.  1.
         14    1    4    4    0    0 -0.73587775961E+02  0.13615959692E+02  0.43365354818E+02  0.86493405111E+02  0.00000000000E+00 0. -1.
         -5    1    5    5    0  502  0.66199683644E+02  0.39165786309E+02 -0.41834240181E+02  0.87684380498E+02  0.47000000000E+01 0.  1.
         13    1    6    6    0    0 -0.31813964452E+02 -0.36533650675E+01 -0.12677369153E+02  0.34441125113E+02  0.00000000000E+00 0. -1.
        -14    1    6    6    0    0  0.23462230834E+02 -0.70826660200E+02  0.74263384473E+01  0.74980281231E+02  0.00000000000E+00 0.  1.
</event>
<event>
12    1  0.8526130E-002  0.3621075E+03  0.7818608E-02  0.1057785E+00
         21   -1    0    0  503  502  0.00000000000E+00  0.00000000000E+00  0.10009165466E+04  0.10009165466E+04  0.00000000000E+00 0. -1.
         21   -1    0    0  501  503 -0.00000000000E+00 -0.00000000000E+00 -0.39935974576E+03  0.39935974576E+03  0.00000000000E+00 0.  1.
          6    2    1    2  501    0 -0.31766810672E+03 -0.24163345395E+02 -0.27332544775E+03  0.45341790540E+03  0.17141791989E+03 0.  0.
         24    2    3    3    0    0 -0.20854873028E+03 -0.29905659581E+02 -0.25943104073E+03  0.34316747667E+03  0.77926444651E+02 0.  0.
         -6    2    1    2    0  502  0.31766810672E+03  0.24163345395E+02  0.87488224863E+03  0.94685838701E+03  0.17211903668E+03 0.  0.
        -24    2    5    5    0    0  0.24414525270E+03 -0.40749428917E+01  0.48593574639E+03  0.54999004285E+03  0.82048693101E+02 0.  0.
          5    1    3    3  501    0 -0.10911937645E+03  0.57423141860E+01 -0.13894407021E+02  0.11025042873E+03  0.47000000000E+01 0. -1.
        -11    1    4    4    0    0 -0.68029757371E+02  0.64140267942E+01 -0.37368728060E+02  0.77882022730E+02  0.00000000000E+00 0.  1.
         12    1    4    4    0    0 -0.14051897291E+03 -0.36319686375E+02 -0.22206231267E+03  0.26528545394E+03  0.00000000000E+00 0. -1.
         -5    1    5    5    0  502  0.73522854024E+02  0.28238288287E+02  0.38894650224E+03  0.39686834416E+03  0.47000000000E+01 0.  1.
         11    1    6    6    0    0  0.18023573756E+02  0.23683151924E+02  0.58074765971E+02  0.65256565482E+02  0.00000000000E+00 0. -1.
        -12    1    6    6    0    0  0.22612167894E+03 -0.27758094815E+02  0.42786098042E+03  0.48473347737E+03  0.00000000000E+00 0.  1.
</event>
<event>
12    1  0.8526130E-002  0.1731869E+03  0.7818608E-02  0.1174794E+00
         21   -1    0    0  501  502  0.00000000000E+00  0.00000000000E+00  0.28995353115E+03  0.28995353115E+03  0.00000000000E+00 0. -1.
         21   -1    0    0  502  503 -0.00000000000E+00 -0.00000000000E+00 -0.20190869390E+03  0.20190869390E+03  0.00000000000E+00 0. -1.
         -6    2    1    2    0  503 -0.65238516995E+01 -0.17380383943E+02 -0.12812944070E+03  0.21543177358E+03  0.17218901564E+03 0.  0.
        -24    2    3    3    0    0  0.40627752068E+02  0.30117636562E+02 -0.34471786846E+02  0.10022247789E+03  0.79363434372E+02 0.  0.
          6    2    1    2  501    0  0.65238516995E+01  0.17380383943E+02  0.21617427795E+03  0.27643045147E+03  0.17128291703E+03 0.  0.
         24    2    5    5    0    0  0.47054074497E+02  0.35969353457E+02  0.18778134957E+03  0.22335977096E+03  0.10545080238E+03 0.  0.
          5    1    5    5  501    0 -0.40530222798E+02 -0.18588969514E+02  0.28392928380E+02  0.53070680509E+02  0.47000000000E+01 0. -1.
        -13    1    6    6    0    0  0.38804238247E+02 -0.87052192618E+01  0.11615302859E+02  0.41430242684E+02  0.00000000000E+00 0.  1.
         14    1    6    6    0    0  0.82498362505E+01  0.44674572719E+02  0.17616604671E+03  0.18192952828E+03  0.00000000000E+00 0. -1.
         -5    1    3    3    0  503 -0.47151603767E+02 -0.47498020505E+02 -0.93657653850E+02  0.11520929569E+03  0.47000000000E+01 0.  1.
         13    1    4    4    0    0 -0.50098460878E+01 -0.16802599149E+02 -0.29832741586E+02  0.34603733419E+02  0.00000000000E+00 0. -1.
        -14    1    4    4    0    0  0.45637598156E+02  0.46920235712E+02 -0.46390452596E+01  0.65618744468E+02  0.00000000000E+00 0.  1.
</event>
<event>
12    1  0.8526130E-002  0.2114229E+03  0.7818608E-02  0.1142572E+00
         21   -1    0    0  503  502  0.00000000000E+00  0.00000000000E+00  0.31695736568E+02  0.31695736568E+02  0.00000000000E+00 0.  1.
         21   -1    0    0  501  503 -0.00000000000E+00 -0.00000000000E+00 -0.14822058152E+04  0.14822058152E+04  0.00000000000E+00 0.  1.
          6    2    1    2  501    0 -0.74563807058E+02 -0.73929792883E+02 -0.50829279280E+03  0.55050993520E+03  0.18350544938E+03 0.  0.
         24    2    3    3    0    0  0.14253128984E+00  0.36522496975E+02 -0.22777879257E+03  0.23988002736E+03  0.65767287317E+02 0.  0.
         -6    2    1    2    0  502  0.74563807058E+02  0.73929792883E+02 -0.94221728580E+03  0.96339161653E+03  0.17124432119E+03 0.  0.
        -24    2    5    5    0    0  0.76710544278E+02  0.87292661842E+02 -0.93807850153E+03  0.94847872671E+03  0.78205521406E+02 0.  0.
          5    1    3    3  501    0 -0.74706338347E+02 -0.11045228986E+03 -0.28051400023E+03  0.31062990785E+03  0.47000000000E+01 0. -1.
        -11    1    4    4    0    0  0.35548454546E+00 -0.17288861092E+02 -0.95873223613E+02  0.97420255046E+02  0.00000000000E+00 0.  1.
         12    1    4    4    0    0 -0.21295325562E+00  0.53811358067E+02 -0.13190556895E+03  0.14245977231E+03  0.00000000000E+00 0. -1.
         -5    1    5    5    0  502 -0.21467372203E+01 -0.13362868959E+02 -0.41387842733E+01  0.14912889820E+02  0.47000000000E+01 0.  1.
         11    1    6    6    0    0 -0.11678941163E+02 -0.45883313352E+01 -0.78494579959E+02  0.79491191551E+02  0.00000000000E+00 0. -1.
        -12    1    6    6    0    0  0.88389485441E+02  0.91880993177E+02 -0.85958392157E+03  0.86898753516E+03  0.00000000000E+00 0.  1.
</event>
<event>
12    1  0.8526130E-002  0.2873753E+03  0.7818608E-02  0.1091761E+00
         21   -1    0    0  503  502  0.00000000000E+00  0.00000000000E+00  0.30735874592E+03  0.30735874592E+03  0.00000000000E+00 0.  1.
         21   -1    0    0  501  503 -0.00000000000E+00 -0.00000000000E+00 -0.41051869392E+03  0.41051869392E+03  0.00000000000E+00 0. -1.
          6    2    1    2  501    0  0.22295271484E+03 -0.58594407930E+02 -0.26271689616E+03  0.38917848831E+03  0.17116807687E+03 0.  0.
         24    2    3    3    0    0  0.14662396625E+03 -0.38410247934E+02 -0.83246060148E+02  0.19305263801E+03  0.85822374048E+02 0.  0.
         -6    2    1    2    0  502 -0.22295271484E+03  0.58594407930E+02  0.15955694816E+03  0.32869895154E+03  0.17159068547E+03 0.  0.
        -24    2    5    5    0    0 -0.61662967064E+02 -0.45085320147E+02  0.44201119229E+02  0.10488446135E+03  0.56674541824E+02 0.  0.
          5    1    3    3  501    0  0.76328748589E+02 -0.20184159997E+02 -0.17947083601E+03  0.19612585030E+03  0.47000000000E+01 0. -1.
        -11    1    4    4    0    0  0.69727622325E+02 -0.62455453000E+02 -0.45478056114E+02  0.10407150673E+03  0.00000000000E+00 0.  1.
         12    1    4    4    0    0  0.76896343921E+02  0.24045205066E+02 -0.37768004034E+02  0.88981131280E+02  0.00000000000E+00 0. -1.
         -5    1    5    5    0  502 -0.16128974777E+03  0.10367972808E+03  0.11535582893E+03  0.22381449019E+03  0.47000000000E+01 0.  1.
         11    1    6    6    0    0 -0.38931871357E+02 -0.25118066532E+02 -0.55429608076E+01  0.46661893320E+02  0.00000000000E+00 0. -1.
        -12    1    6    6    0    0 -0.22731095707E+02 -0.19967253615E+02  0.49744080037E+02  0.58222568027E+02  0.00000000000E+00 0.  1.
</event>
<event>
12    1  0.8526130E-002  0.2013766E+03  0.7818608E-02  0.1148696E+00
         21   -1    0    0  503  502  0.00000000000E+00  0.00000000000E+00  0.13077911747E+03  0.13077911747E+03  0.00000000000E+00 0. -1.
         21   -1    0    0  501  503 -0.00000000000E+00 -0.00000000000E+00 -0.32612739538E+03  0.32612739538E+03  0.00000000000E+00 0. -1.
          6    2    1    2  501    0  0.63787381662E+02 -0.81734787582E+02 -0.14976751960E+03  0.25096379760E+03  0.17263577908E+03 0.  0.
         24    2    3    3    0    0  0.87615435770E+02 -0.10544256449E+03 -0.93715320723E+02  0.18543690352E+03  0.82520814701E+02 0.  0.
         -6    2    1    2    0  502 -0.63787381662E+02  0.81734787582E+02 -0.45580758306E+02  0.20594271526E+03  0.17200404320E+03 0.  0.
        -24    2    5    5    0    0  0.23775383554E+02  0.30692618108E+02  0.11427368331E+02  0.89561628220E+02  0.79896150301E+02 0.  0.
          5    1    3    3  501    0 -0.23828054108E+02  0.23707776908E+02 -0.56052198880E+02  0.65526894080E+02  0.47000000000E+01 0. -1.
        -11    1    4    4    0    0 -0.80902117106E+01  0.66853673337E+01  0.45950178726E+00  0.10505084664E+02  0.00000000000E+00 0.  1.
         12    1    4    4    0    0  0.95705647481E+02 -0.11212793182E+03 -0.94174822511E+02  0.17493181886E+03  0.00000000000E+00 0. -1.
         -5    1    5    5    0  502 -0.87562765216E+02  0.51042169474E+02 -0.57008126637E+02  0.11638108704E+03  0.47000000000E+01 0.  1.
         11    1    6    6    0    0  0.22953286790E+01  0.55765991615E+02  0.72818006127E+01  0.56286223667E+02  0.00000000000E+00 0. -1.
        -12    1    6    6    0    0  0.21480054875E+02 -0.25073373507E+02  0.41455677182E+01  0.33275404553E+02  0.00000000000E+00 0.  1.
</event>
<event>
12    1  0.8526130E-002  0.2437842E+03  0.7818608E-02  0.1117627E+00
         21   -1    0    0  501  502  0.00000000000E+00  0.00000000000E+00  0.15115008186E+03  0.15115008186E+03  0.00000000000E+00 0. -1.
         21   -1    0    0  502  503 -0.00000000000E+00 -0.00000000000E+00 -0.42040926185E+03  0.42040926185E+03  0.00000000000E+00 0. -1.
         -6    2    1    2    0  503  0.16845623689E+03  0.10946822281E+02 -0.58226665052E+02  0.25064132916E+03  0.17587892054E+03 0.  0.
        -24    2    3    3    0    0  0.10567626041E+02  0.25892364141E+02 -0.23281702631E+02  0.88174646241E+02  0.80315884614E+02 0.  0.
          6    2    1    2  501    0 -0.16845623689E+03 -0.10946822281E+02 -0.21103251494E+03  0.32091801455E+03  0.17307892141E+03 0.  0.
         24    2    5    5    0    0 -0.65109847057E+02 -0.62632227253E+02 -0.96915690529E+02  0.15844771883E+03  0.86896147531E+02 0.  0.
          5    1    5    5  501    0 -0.10334638984E+03  0.51685404973E+02 -0.11411682441E+03  0.16247029572E+03  0.47000000000E+01 0. -1.
        -11    1    6    6    0    0 -0.39313498824E+02 -0.70884315316E+02 -0.10261861851E+03  0.13076971443E+03  0.00000000000E+00 0.  1.
         12    1    6    6    0    0 -0.25796348233E+02  0.82520880625E+01  0.57029279832E+01  0.27678004392E+02  0.00000000000E+00 0. -1.
         -5    1    3    3    0  503  0.15788861085E+03 -0.14945541860E+02 -0.34944962422E+02  0.16246668291E+03  0.47000000000E+01 0.  1.
         11    1    4    4    0    0  0.29479680421E+02 -0.18221688563E+02  0.38750797110E+00  0.34658788990E+02  0.00000000000E+00 0. -1.
        -12    1    4    4    0    0 -0.18912054380E+02  0.44114052704E+02 -0.23669210602E+02  0.53515857251E+02  0.00000000000E+00 0.  1.
</event>
<event>
12    1  0.8526130E-002  0.2229761E+03  0.7818608E-02  0.1132176E+00
         21   -1    0    0  501  502  0.00000000000E+00  0.00000000000E+00  0.63778540327E+03  0.63778540327E+03  0.00000000000E+00 0.  1.
         21   -1    0    0  502  503 -0.00000000000E+00 -0.00000000000E+00 -0.78008133196E+02  0.78008133196E+02  0.00000000000E+00 0.  1.
         -6    2    1    2    0  503  0.43233674337E+02 -0.13391716542E+03  0.24133074820E+03  0.32857095960E+03  0.17296065356E+03 0.  0.
        -24    2    3    3    0    0  0.93474154510E+02 -0.11659634263E+03  0.18642105315E+03  0.25201195386E+03  0.80156666319E+02 0.  0.
          6    2    1    2  501    0 -0.43233674337E+02  0.13391716542E+03  0.31844652188E+03  0.38722257686E+03  0.16949979041E+03 0.  0.
         24    2    5    5    0    0 -0.82080031487E+02  0.13159451962E+03  0.29138694091E+03  0.33959123141E+03  0.79759676256E+02 0.  0.
          5    1    5    5  501    0  0.38846357150E+02  0.23226457926E+01  0.27059580966E+02  0.47631345450E+02  0.47000000000E+01 0. -1.
        -11    1    6    6    0    0  0.49927039910E+01  0.55332024962E+02  0.12619963234E+03  0.13788729921E+03  0.00000000000E+00 0.  1.
         12    1    6    6    0    0 -0.87072735478E+02  0.76262494661E+02  0.16518730857E+03  0.20170393221E+03  0.00000000000E+00 0. -1.
         -5    1    3    3    0  503 -0.50240480173E+02 -0.17320822787E+02  0.54909695048E+02  0.76559005743E+02  0.47000000000E+01 0.  1.
         13    1    4    4    0    0  0.32743100960E+02 -0.36242632208E+02  0.12459855229E+03  0.13382988561E+03  0.00000000000E+00 0. -1.
        -14    1    4    4    0    0  0.60731053550E+02 -0.80353710420E+02  0.61822500865E+02  0.11818206825E+03  0.00000000000E+00 0.  1.
</event>
<event>
12    1  0.8526130E-002  0.1776025E+03  0.7818608E-02  0.1170358E+00
         21   -1    0    0  501  502  0.00000000000E+00  0.00000000000E+00  0.19225286127E+03  0.19225286127E+03  0.00000000000E+00 0.  1.
         21   -1    0    0  502  503 -0.00000000000E+00 -0.00000000000E+00 -0.18432654785E+03  0.18432654785E+03  0.00000000000E+00 0.  1.
         -6    2    1    2    0  503 -0.43043101800E+02 -0.12891284088E+02  0.67597334470E+02  0.18922068773E+03  0.17092739751E+03 0.  0.
        -24    2    3    3    0    0 -0.11546812454E+02 -0.72641459665E+02  0.57426805940E+02  0.12075442323E+03  0.76639951385E+02 0.  0.
          6    2    1    2  501    0  0.43043101800E+02  0.12891284088E+02 -0.59671021047E+02  0.18735872139E+03  0.17182481168E+03 0.  0.
         24    2    5    5    0    0  0.32016443846E+02 -0.68915608580E+01  0.34250721720E+02  0.90630587403E+02  0.77254418301E+02 0.  0.
          5    1    5    5  501    0  0.11026657954E+02  0.19782844946E+02 -0.93921742767E+02  0.96728133985E+02  0.47000000000E+01 0. -1.
        -13    1    6    6    0    0 -0.13958210012E+02  0.18600850585E+02 -0.64652325386E+01  0.24137574464E+02  0.00000000000E+00 0.  1.
         14    1    6    6    0    0  0.45974653858E+02 -0.25492411443E+02  0.40715954259E+02  0.66493012939E+02  0.00000000000E+00 0. -1.
         -5    1    3    3    0  503 -0.31496289346E+02  0.59750175577E+02  0.10170528530E+02  0.68466264500E+02  0.47000000000E+01 0.  1.
         11    1    4    4    0    0  0.12564635663E+02 -0.38376838750E+02 -0.97878887999E+01  0.41550626817E+02  0.00000000000E+00 0. -1.
        -12    1    4    4    0    0 -0.24111448116E+02 -0.34264620915E+02  0.67214694739E+02  0.79203796409E+02  0.00000000000E+00 0.  1.
</event>
<event>
12    1  0.8526130E-002  0.2265242E+03  0.7818608E-02  0.1129302E+00
         21   -1    0    0  501  502  0.00000000000E+00  0.00000000000E+00  0.14000738503E+04  0.14000738503E+04  0.00000000000E+00 0. -1.
         21   -1    0    0  502  503 -0.00000000000E+00 -0.00000000000E+00 -0.43178755374E+02  0.43178755374E+02  0.00000000000E+00 0. -1.
         -6    2    1    2    0  503  0.14697994260E+03  0.32393013197E+01  0.39553121303E+03  0.45580493765E+03  0.17233573078E+03 0.  0.
        -24    2    3    3    0    0  0.57760577179E+02 -0.55889243200E+02  0.15416728450E+03  0.19173124350E+03  0.80829613041E+02 0.  0.
          6    2    1    2  501    0 -0.14697994260E+03 -0.32393013197E+01  0.96136388186E+03  0.98744766799E+03  0.17093503759E+03 0.  0.
         24    2    5    5    0    0 -0.26455195019E+02  0.44246482562E+02  0.45108374927E+03  0.46096023399E+03  0.79687890527E+02 0.  0.
          5    1    5    5  501    0 -0.12052474758E+03 -0.47485783882E+02  0.51028013258E+03  0.52648743400E+03  0.47000000000E+01 0. -1.
        -11    1    6    6    0    0 -0.84309777039E+01 -0.23054708449E+02  0.94706782691E+02  0.97836474050E+02  0.00000000000E+00 0.  1.
         12    1    6    6    0    0 -0.18024217315E+02  0.67301191011E+02  0.35637696658E+03  0.36312375994E+03  0.00000000000E+00 0. -1.
         -5    1    3    3    0  503  0.89219365419E+02  0.59128544519E+02  0.24136392853E+03  0.26407369414E+03  0.47000000000E+01 0.  1.
         11    1    4    4    0    0  0.17359160366E+02 -0.60183895221E+02  0.13039320013E+03  0.14465762452E+03  0.00000000000E+00 0. -1.
        -12    1    4    4    0    0  0.40401416812E+02  0.42946520211E+01  0.23774084370E+02  0.47073618982E+02  0.00000000000E+00 0.  1.
</event>
<event>
12    1  0.8526130E-002  0.1875732E+03  0.7818608E-02  0.1160916E+00
         21   -1    0    0  501  502  0.00000000000E+00  0.00000000000E+00  0.28713391571E+03  0.28713391571E+03  0.00000000000E+00 0. -1.
         21   -1    0    0  502  503 -0.00000000000E+00 -0.00000000000E+00 -0.26809751989E+03  0.26809751989E+03  0.00000000000E+00 0. -1.
         -6    2    1    2    0  503  0.68975441563E+02  0.26779076388E+02 -0.19554790152E+03  0.27022244705E+03  0.17119129251E+03 0.  0.
        -24    2    3    3    0    0  0.10234932000E+03  0.11602239048E+02 -0.19307437177E+03  0.23317706268E+03  0.80522259491E+02 0.  0.
          6    2    1    2  501    0 -0.68975441563E+02 -0.26779076388E+02  0.21458429734E+03  0.28500898855E+03  0.17236290906E+03 0.  0.
         24    2    5    5    0    0  0.58915039448E+00  0.27942848765E+02  0.47621824624E+02  0.95979152702E+02  0.78504838561E+02 0.  0.
          5    1    5    5  501    0 -0.69564591957E+02 -0.54721925154E+02  0.16696247271E+03  0.18902983585E+03  0.47000000000E+01 0. -1.
        -11    1    6    6    0    0 -0.29779392998E+01  0.24782331911E+02  0.69365261571E+02  0.73719547002E+02  0.00000000000E+00 0.  1.
         12    1    6    6    0    0  0.35670896943E+01  0.31605168549E+01 -0.21743436946E+02  0.22259605700E+02  0.00000000000E+00 0. -1.
         -5    1    3    3    0  503 -0.33373878436E+02  0.15176837340E+02 -0.24735297537E+01  0.37045384368E+02  0.47000000000E+01 0.  1.
         13    1    4    4    0    0  0.10147916066E+03  0.31766827548E+02 -0.18020747739E+03  0.20924121556E+03  0.00000000000E+00 0. -1.
        -14    1    4    4    0    0  0.87015933667E+00 -0.20164588501E+02 -0.12866894375E+02  0.23935847124E+02  0.00000000000E+00 0.  1.
</event>
<event>
12    1  0.8526130E-002  0.1953813E+03  0.7818608E-02  0.1155205E+00
         21   -1    0    0  503  502  0.00000000000E+00  0.00000000000E+00  0.10413091841E+03  0.10413091841E+03  0.00000000000E+00 0.  1.
         21   -1    0    0  501  503 -0.00000000000E+00 -0.00000000000E+00 -0.35773658548E+03  0.35773658548E+03  0.00000000000E+00 0.  1.
          6    2    1    2  501    0 -0.16775862999E+02 -0.75474504706E+02 -0.15286034022E+03  0.24807285701E+03  0.17943251749E+03 0.  0.
         24    2    3    3    0    0 -0.43201797217E+01 -0.91522453275E+02 -0.30547012679E+02  0.12399497504E+03  0.77759954003E+02 0.  0.
         -6    2    1    2    0  502  0.16775862999E+02  0.75474504706E+02 -0.10074532685E+03  0.21379464688E+03  0.17199040588E+03 0.  0.
        -24    2    5    5    0    0 -0.47062943923E+02  0.25807685517E+01 -0.54018305828E+02  0.10611737661E+03  0.78238987705E+02 0.  0.
          5    1    3    3  501    0 -0.12455683277E+02  0.16047948569E+02 -0.12231332754E+03  0.12407788197E+03  0.47000000000E+01 0. -1.
        -13    1    4    4    0    0 -0.19504055342E+02 -0.22868156333E+02  0.21124750273E+02  0.36737117783E+02  0.00000000000E+00 0.  1.
         14    1    4    4    0    0  0.15183875621E+02 -0.68654296941E+02 -0.51671762952E+02  0.87257857262E+02  0.00000000000E+00 0. -1.
         -5    1    5    5    0  502  0.63838806922E+02  0.72893736154E+02 -0.46727021021E+02  0.10767727027E+03  0.47000000000E+01 0.  1.
         11    1    6    6    0    0 -0.50980447322E+02 -0.18036533424E+00 -0.71599296058E+02  0.87894810636E+02  0.00000000000E+00 0. -1.
        -12    1    6    6    0    0  0.39175033988E+01  0.27611338859E+01  0.17580990230E+02  0.18222565974E+02  0.00000000000E+00 0.  1.
</event>
<event>
12    1  0.8526130E-002  0.2209956E+03  0.7818608E-02  0.1133163E+00
         21   -1    0    0  501  502  0.00000000000E+00  0.00000000000E+00  0.10699109676E+03  0.10699109676E+03  0.00000000000E+00 0.  1.
         21   -1    0    0  502  503 -0.00000000000E+00 -0.00000000000E+00 -0.53711379747E+03  0.53711379747E+03  0.00000000000E+00 0. -1.
         -6    2    1    2    0  503  0.82362246165E+02  0.11388820131E+03 -0.33997577048E+03  0.40543036168E+03  0.17040009293E+03 0.  0.
        -24    2    3    3    0    0 -0.15356821265E+02  0.58390908677E+02 -0.22068549715E+03  0.24147541379E+03  0.77220182823E+02 0.  0.
          6    2    1    2  501    0 -0.82362246165E+02 -0.11388820131E+03 -0.90146930231E+02  0.23867453255E+03  0.17054325395E+03 0.  0.
         24    2    5    5    0    0 -0.10352032855E+03 -0.29930935626E+02 -0.52470306876E+02  0.14413298158E+03  0.80055380500E+02 0.  0.
          5    1    5    5  501    0  0.21158082381E+02 -0.83957265687E+02 -0.37676623356E+02  0.94541550966E+02  0.47000000000E+01 0. -1.
        -13    1    6    6    0    0 -0.72862218975E+02 -0.30202345332E+02 -0.72808387204E+02  0.10734125891E+03  0.00000000000E+00 0.  1.
         14    1    6    6    0    0 -0.30658109572E+02  0.27140970606E+00  0.20338080329E+02  0.36791722673E+02  0.00000000000E+00 0. -1.
         -5    1    3    3    0  503  0.97719067431E+02  0.55497292636E+02 -0.11929027333E+03  0.16395494790E+03  0.47000000000E+01 0.  1.
         11    1    4    4    0    0  0.12273186795E+02  0.67746340850E+02 -0.15569007671E+03  0.17023395019E+03  0.00000000000E+00 0. -1.
        -12    1    4    4    0    0 -0.27630008060E+02 -0.93554321735E+01 -0.64995420444E+02  0.71241463595E+02  0.00000000000E+00 0.  1.
</event>
<event>
12    1  0.8526130E-002  0.1728854E+03  0.7818608E-02  0.1174957E+00
         21   -1    0    0  503  502  0.00000000000E+00  0.00000000000E+00  0.67920768899E+02  0.67920768899E+02  0.00000000000E+00 0. -1.
         21   -1    0    0  501  503 -0.00000000000E+00 -0.00000000000E+00 -0.52360621159E+03  0.52360621159E+03  0.00000000000E+00 0. -1.
          6    2    1    2  501    0 -0.20288161527E+02  0.10224654546E+02 -0.34639985270E+03  0.38699656553E+03  0.17104774399E+03 0.  0.
         24    2    3    3    0    0  0.31868669262E+02  0.23659777523E+02 -0.10051538895E+03  0.13523855267E+03  0.81306368500E+02 0.  0.
         -6    2    1    2    0  502  0.20288161527E+02 -0.10224654546E+02 -0.10928558999E+03  0.20453041496E+03  0.17138610622E+03 0.  0.
        -24    2    5    5    0    0  0.32494609095E+02 -0.50645208033E+02 -0.17670977120E+02  0.10354454566E+03  0.82391582012E+02 0.  0.
          5    1    3    3  501    0 -0.52156830789E+02 -0.13435122977E+02 -0.24588446375E+03  0.25175801286E+03  0.47000000000E+01 0. -1.
        -11    1    4    4    0    0 -0.25885136320E+02  0.13672697057E+02 -0.19227606677E+02  0.35024045821E+02  0.00000000000E+00 0.  1.
         12    1    4    4    0    0  0.57753805583E+02  0.99870804662E+01 -0.81287782272E+02  0.10021450685E+03  0.00000000000E+00 0. -1.
         -5    1    5    5    0  502 -0.12206447569E+02  0.40420553488E+02 -0.91614612868E+02  0.10098586930E+03  0.47000000000E+01 0.  1.
         13    1    6    6    0    0  0.43068361204E+01 -0.19164417706E+02  0.32484447468E+02  0.37961336524E+02  0.00000000000E+00 0. -1.
        -14    1    6    6    0    0  0.28187772975E+02 -0.31480790327E+02 -0.50155424588E+02  0.65583209136E+02  0.00000000000E+00 0.  1.
</event>
<event>
12    1  0.8526130E-002  0.2714661E+03  0.7818608E-02  0.1101504E+00
         21   -1    0    0  503  502  0.00000000000E+00  0.00000000000E+00  0.41814197280E+03  0.41814197280E+03  0.00000000000E+00 0.  1.
         21   -1    0    0  501  503 -0.00000000000E+00 -0.00000000000E+00 -0.17346153719E+03  0.17346153719E+03  0.00000000000E+00 0.  1.
          6    2    1    2  501    0  0.13902532178E+03  0.15784387718E+03  0.89204002119E+02  0.27876689561E+03  0.15972131491E+03 0.  0.
         24    2    3    3    0    0  0.21910451558E+02  0.10411224630E+03  0.41050641268E+02  0.14113035560E+03  0.83145621697E+02 0.  0.
         -6    2    1    2    0  502 -0.13902532178E+03 -0.15784387718E+03  0.15547643350E+03  0.31283661438E+03  0.17161321704E+03 0.  0.
        -24    2    5    5    0    0 -0.83190082561E+02 -0.17370433662E+03  0.96627245058E+02  0.23004503816E+03  0.80561210865E+02 0.  0.
          5    1    3    3  501    0  0.11711487022E+03  0.53731630877E+02  0.48153360852E+02  0.13763654001E+03  0.47000000000E+01 0. -1.
        -11    1    4    4    0    0  0.40632281767E+02  0.10087725299E+03  0.50505712976E+02  0.11990842145E+03  0.00000000000E+00 0.  1.
         12    1    4    4    0    0 -0.18721830209E+02  0.32349933110E+01 -0.94550717084E+01  0.21221934151E+02  0.00000000000E+00 0. -1.
         -5    1    5    5    0  502 -0.55835239221E+02  0.15860459447E+02  0.58849188438E+02  0.82791576218E+02  0.47000000000E+01 0.  1.
         13    1    6    6    0    0 -0.85845611966E+02 -0.14905804776E+03  0.53215978640E+02  0.18005474467E+03  0.00000000000E+00 0. -1.
        -14    1    6    6    0    0  0.26555294052E+01 -0.24646288866E+02  0.43411266418E+02  0.49990293491E+02  0.00000000000E+00 0.  1.
</event>
<event>
12    1  0.8526130E-002  0.2210048E+03  0.7818608E-02  0.1133896E+00
         21   -1    0    0  501  502  0.00000000000E+00  0.00000000000E+00  0.98381794460E+02  0.98381794460E+02  0.00000000000E+00 0.  1.
         21   -1    0    0  502  503 -0.00000000000E+00 -0.00000000000E+00 -0.51288522331E+03  0.51288522331E+03  0.00000000000E+00 0. -1.
         -6    2    1    2    0  503  0.13441140164E+03 -0.29129201588E+02 -0.13727746829E+03  0.25672879903E+03  0.16777853758E+03 0.  0.
        -24    2    3    3    0    0  0.50801253015E+02 -0.73095790339E+02 -0.98109013786E+02  0.15435704654E+03  0.79227251349E+02 0.  0.
          6    2    1    2  501    0 -0.13441140164E+03  0.29129201588E+02 -0.27722596055E+03  0.35453821874E+03  0.17299763023E+03 0.  0.
         24    2    5    5    0    0  0.17028065066E+01  0.28642721771E+02 -0.10902302889E+03  0.13810894497E+03  0.79779413342E+02 0.  0.
          5    1    5    5  501    0 -0.13611420815E+03  0.48647981663E+00 -0.16820293166E+03  0.21642927376E+03  0.47000000000E+01 0. -1.
        -11    1    6    6    0    0  0.28009007044E+02  0.37002632342E+02 -0.32219662857E+02  0.56496070221E+02  0.00000000000E+00 0.  1.
         12    1    6    6    0    0 -0.26306200537E+02 -0.83599105709E+01 -0.76803366034E+02  0.81612874754E+02  0.00000000000E+00 0. -1.
         -5    1    3    3    0  503  0.83610148626E+02  0.43966588751E+02 -0.39168454508E+02  0.10237175249E+03  0.47000000000E+01 0.  1.
         13    1    4    4    0    0  0.19328528738E+02 -0.12658578901E+02 -0.80818939183E+02  0.84056722358E+02  0.00000000000E+00 0. -1.
        -14    1    4    4    0    0  0.31472724277E+02 -0.60437211438E+02 -0.17290074603E+02  0.70300324178E+02  0.00000000000E+00 0.  1.
</event>
<event>
12    1  0.8526130E-002  0.1880531E+03  0.7818608E-02  0.1160603E+00
         21   -1    0    0  501  502  0.00000000000E+00  0.00000000000E+00  0.52559851077E+02  0.52559851077E+02  0.00000000000E+00 0.  1.
         21   -1    0    0  502  503 -0.00000000000E+00 -0.00000000000E+00 -0.72989359029E+03  0.72989359029E+03  0.00000000000E+00 0. -1.
         -6    2    1    2    0  503  0.22990465022E+02  0.74230175404E+02 -0.45482889559E+03  0.49217201288E+03  0.17124627172E+03 0.  0.
        -24    2    3    3    0    0 -0.38776583465E+02  0.55424832704E+01 -0.29093656442E+03  0.30398074437E+03  0.78904156310E+02 0.  0.
          6    2    1    2  501    0 -0.22990465022E+02 -0.74230175404E+02 -0.22250484363E+03  0.29028142849E+03  0.16945861402E+03 0.  0.
         24    2    5    5    0    0 -0.78988553027E+01 -0.47874133271E+02 -0.35228233942E+02  0.10049993262E+03  0.80652857591E+02 0.  0.
          5    1    5    5  501    0 -0.15091609719E+02 -0.26356042132E+02 -0.18727660969E+03  0.18978149587E+03  0.47000000000E+01 0. -1.
        -13    1    6    6    0    0  0.50284177020E+01 -0.69066249167E+02 -0.27374719746E+02  0.74463461105E+02  0.00000000000E+00 0.  1.
         14    1    6    6    0    0 -0.12927273005E+02  0.21192115896E+02 -0.78535141962E+01  0.26036471510E+02  0.00000000000E+00 0. -1.
         -5    1    3    3    0  503  0.61767048487E+02  0.68687692133E+02 -0.16389233116E+03  0.18819126851E+03  0.47000000000E+01 0.  1.
         13    1    4    4    0    0 -0.39225340372E+02 -0.11975331306E+02 -0.28071241685E+03  0.28369260981E+03  0.00000000000E+00 0. -1.
        -14    1    4    4    0    0  0.44875690691E+00  0.17517814576E+02 -0.10224147573E+02  0.20288134559E+02  0.00000000000E+00 0.  1.
</event>
<event>
12    1  0.8526130E-002  0.1909566E+03  0.7818608E-02  0.1157795E+00
         21   -1    0    0  501  502  0.00000000000E+00  0.00000000000E+00  0.21105102901E+03  0.21105102901E+03  0.00000000000E+00 0.  1.
         21   -1    0    0  502  503 -0.00000000000E+00 -0.00000000000E+00 -0.22843841021E+03  0.22843841021E+03  0.00000000000E+00 0.  1.
         -6    2    1    2    0  503  0.65950879455E+02  0.45924211123E+02 -0.11790585600E+03  0.22369234133E+03  0.17227280987E+03 0.  0.
        -24    2    3    3    0    0 -0.44000455786E+01  0.12147882743E+02  0.14115775949E+02  0.70258660818E+02  0.67602461738E+02 0.  0.
          6    2    1    2  501    0 -0.65950879455E+02 -0.45924211123E+02  0.10051847480E+03  0.21579709789E+03  0.17322203097E+03 0.  0.
         24    2    5    5    0    0 -0.10262439153E+03 -0.16848648734E+00  0.50997028194E+02  0.13890108695E+03  0.78492171241E+02 0.  0.
          5    1    5    5  501    0  0.36673512078E+02 -0.45755724636E+02  0.49521446602E+02  0.76896010941E+02  0.47000000000E+01 0. -1.
        -11    1    6    6    0    0 -0.60401172382E+02  0.35920640011E+02  0.44010188780E+02  0.82918578861E+02  0.00000000000E+00 0.  1.
         12    1    6    6    0    0 -0.42223219151E+02 -0.36089126499E+02  0.69868394142E+01  0.55982508089E+02  0.00000000000E+00 0. -1.
         -5    1    3    3    0  503  0.70350925033E+02  0.33776328381E+02 -0.13202163195E+03  0.15343368051E+03  0.47000000000E+01 0.  1.
         11    1    4    4    0    0  0.28292207805E+02 -0.82894376548E+01  0.11398198146E+02  0.31608269805E+02  0.00000000000E+00 0. -1.
        -12    1    4    4    0    0 -0.32692253383E+02  0.20437320397E+02  0.27175778036E+01  0.38650391013E+02  0.00000000000E+00 0.  1.
</event>
<event>
12    1  0.8526130E-002  0.2278152E+03  0.7818608E-02  0.1129508E+00
         21   -1    0    0  503  502  0.00000000000E+00  0.00000000000E+00  0.14817184123E+04  0.14817184123E+04  0.00000000000E+00 0. -1.
         21   -1    0    0  501  503 -0.00000000000E+00 -0.00000000000E+00 -0.61589105114E+02  0.61589105114E+02  0.00000000000E+00 0.  1.
          6    2    1    2  501    0 -0.73965868768E+02  0.13005468426E+03  0.12209272451E+04  0.12406835888E+04  0.16201005851E+03 0.  0.
         24    2    3    3    0    0 -0.91906112746E+02  0.45616472800E+02  0.60433630406E+03  0.61806159877E+03  0.79058050258E+02 0.  0.
         -6    2    1    2    0  502  0.73965868768E+02 -0.13005468426E+03  0.19920206206E+03  0.30262392859E+03  0.17179816641E+03 0.  0.
        -24    2    5    5    0    0  0.10284261282E+03 -0.12770617625E+03  0.12033177639E+03  0.21846934582E+03  0.79772477667E+02 0.  0.
          5    1    3    3  501    0  0.17940243979E+02  0.84438211460E+02  0.61659094106E+03  0.62262199006E+03  0.47000000000E+01 0. -1.
        -13    1    4    4    0    0 -0.44349980099E+02  0.10599831996E+02  0.45790196217E+03  0.46016680033E+03  0.00000000000E+00 0.  1.
         14    1    4    4    0    0 -0.47556132647E+02  0.35016640805E+02  0.14643434190E+03  0.15789479843E+03  0.00000000000E+00 0. -1.
         -5    1    5    5    0  502 -0.28876744054E+02 -0.23485080125E+01  0.78870285677E+02  0.84154582762E+02  0.47000000000E+01 0.  1.
         11    1    6    6    0    0  0.55050739359E+02 -0.97061799165E+02  0.11687718442E+03  0.16159162416E+03  0.00000000000E+00 0. -1.
        -12    1    6    6    0    0  0.47791873463E+02 -0.30644377083E+02  0.34545919642E+01  0.56877721662E+02  0.00000000000E+00 0.  1.
</event>
<event>
12    1  0.8526130E-002  0.1827852E+03  0.7818608E-02  0.1165147E+00
         21   -1    0    0  501  502  0.00000000000E+00  0.00000000000E+00  0.53864106930E+03  0.53864106930E+03  0.00000000000E+00 0. -1.
         21   -1    0    0  502  503 -0.00000000000E+00 -0.00000000000E+00 -0.21662916230E+03  0.21662916230E+03  0.00000000000E+00 0. -1.
         -6    2    1    2    0  503 -0.53929722963E+02 -0.29771770858E+02 -0.15802886890E+03  0.24162689919E+03  0.17209201505E+03 0.  0.
        -24    2    3    3    0    0  0.11933356889E+02  0.24599072981E+02 -0.35911430775E+02  0.92533329098E+02  0.80779123141E+02 0.  0.
          6    2    1    2  501    0  0.53929722963E+02  0.29771770858E+02  0.48004077591E+03  0.51364333241E+03  0.17203358114E+03 0.  0.
         24    2    5    5    0    0  0.13773078549E+02 -0.11730299305E+02  0.10073514463E+03  0.12993793783E+03  0.80056234658E+02 0.  0.
          5    1    5    5  501    0  0.40156644414E+02  0.41502070163E+02  0.37930563127E+03  0.38370539459E+03  0.47000000000E+01 0. -1.
        -11    1    6    6    0    0  0.24888961592E+02  0.23082337071E+02  0.82261000251E+02  0.88989476097E+02  0.00000000000E+00 0.  1.
         12    1    6    6    0    0 -0.11115883043E+02 -0.34812636376E+02  0.18474144383E+02  0.40948461729E+02  0.00000000000E+00 0. -1.
         -5    1    3    3    0  503 -0.65863079852E+02 -0.54370843839E+02 -0.12211743813E+03  0.14909357009E+03  0.47000000000E+01 0.  1.
         11    1    4    4    0    0  0.27889001140E+02  0.33406524759E+02 -0.52290253484E+02  0.68029867635E+02  0.00000000000E+00 0. -1.
        -12    1    4    4    0    0 -0.15955644252E+02 -0.88074517783E+01  0.16378822708E+02  0.24503461462E+02  0.00000000000E+00 0.  1.
</event>
<event>
12    1  0.8526130E-002  0.2022257E+03  0.7818608E-02  0.1148056E+00
         21   -1    0    0  501  502  0.00000000000E+00  0.00000000000E+00  0.26118490056E+03  0.26118490056E+03  0.00000000000E+00 0. -1.
         21   -1    0    0  502  503 -0.00000000000E+00 -0.00000000000E+00 -0.17242678153E+03  0.17242678153E+03  0.00000000000E+00 0. -1.
         -6    2    1    2    0  503  0.73907681754E+02  0.77069324001E+02 -0.22651874195E+02  0.20349039360E+03  0.17173586334E+03 0.  0.
        -24    2    3    3    0    0  0.10682246288E+03  0.90546343967E+02 -0.36230817458E+02  0.16513038077E+03  0.79659848980E+02 0.  0.
          6    2    1    2  501    0 -0.73907681754E+02 -0.77069324001E+02  0.11140999323E+03  0.23012128849E+03  0.17070909379E+03 0.  0.
         24    2    5    5    0    0 -0.11328073503E+03 -0.45096417696E+02  0.96660206076E+02  0.17709157717E+03  0.84569613033E+02 0.  0.
          5    1    5    5  501    0  0.39373053274E+02 -0.31972906305E+02  0.14749787158E+02  0.53029711322E+02  0.47000000000E+01 0. -1.
        -13    1    6    6    0    0 -0.75953709743E+01  0.58151683924E-01 -0.15025004434E+02  0.16835789263E+02  0.00000000000E+00 0.  1.
         14    1    6    6    0    0 -0.10568536405E+03 -0.45154569380E+02  0.11168521051E+03  0.16025578791E+03  0.00000000000E+00 0. -1.
         -5    1    3    3    0  503 -0.32914781126E+02 -0.13477019966E+02  0.13578943263E+02  0.38360012824E+02  0.47000000000E+01 0.  1.
         13    1    4    4    0    0  0.65164369250E+02  0.49281826508E+02 -0.60507832043E+02  0.10166755226E+03  0.00000000000E+00 0. -1.
        -14    1    4    4    0    0  0.41658093630E+02  0.41264517459E+02  0.24277014586E+02  0.63462828516E+02  0.00000000000E+00 0.  1.
</event>
<event>
12    1  0.8526130E-002  0.1871774E+03  0.7818608E-02  0.1161144E+00
         21   -1    0    0  501  502  0.00000000000E+00  0.00000000000E+00  0.49997083789E+03  0.49997083789E+03  0.00000000000E+00 0.  1.
         21   -1    0    0  502  503 -0.00000000000E+00 -0.00000000000E+00 -0.13832670711E+03  0.13832670711E+03  0.00000000000E+00 0.  1.
         -6    2    1    2    0  503 -0.11583129329E+02 -0.73587466408E+02 -0.43538356099E+02  0.19217429441E+03  0.17171513295E+03 0.  0.
        -24    2    3    3    0    0  0.53267128996E+02 -0.14541505983E+02  0.55087885160E+01  0.91577605391E+02  0.72851002947E+02 0.  0.
          6    2    1    2  501    0  0.11583129329E+02  0.73587466408E+02  0.40518248688E+03  0.44612325059E+03  0.17118359425E+03 0.  0.
         24    2    5    5    0    0 -0.39391313373E+02  0.24558990058E+02  0.33058078629E+03  0.34321703585E+03  0.79746209100E+02 0.  0.
          5    1    5    5  501    0  0.50974442702E+02  0.49028476350E+02  0.74601700588E+02  0.10290621474E+03  0.47000000000E+01 0. -1.
        -11    1    6    6    0    0  0.12257029674E+02 -0.14385005495E+02  0.15411212853E+03  0.15526658146E+03  0.00000000000E+00 0.  1.
         12    1    6    6    0    0 -0.51648343048E+02  0.38943995553E+02  0.17646865777E+03  0.18795045438E+03  0.00000000000E+00 0. -1.
         -5    1    3    3    0  503 -0.64850258325E+02 -0.59045960425E+02 -0.49047144615E+02  0.10059668902E+03  0.47000000000E+01 0.  1.
         13    1    4    4    0    0 -0.81756786511E+01  0.17848398497E+02 -0.73075022868E+01  0.20947712047E+02  0.00000000000E+00 0. -1.
        -14    1    4    4    0    0  0.61442807648E+02 -0.32389904480E+02  0.12816290803E+02  0.70629893344E+02  0.00000000000E+00 0.  1.
</event>
<event>
12    1  0.8526130E-002  0.1748996E+03  0.7818608E-02  0.1173583E+00
         21   -1    0    0  503  502  0.00000000000E+00  0.00000000000E+00  0.27167676940E+03  0.27167676940E+03  0.00000000000E+00 0.  1.
         21   -1    0    0  501  503 -0.00000000000E+00 -0.00000000000E+00 -0.27167351640E+03  0.27167351640E+03  0.00000000000E+00 0.  1.
          6    2    1    2  501    0  0.74181904191E+01 -0.11387910348E+02 -0.20912031610E+03  0.27072871125E+03  0.17140015882E+03 0.  0.
         24    2    3    3    0    0  0.24515762142E+02  0.39442093683E+02 -0.19341628183E+03  0.21465088176E+03  0.80674913182E+02 0.  0.
         -6    2    1    2    0  502 -0.74181904191E+01  0.11387910348E+02  0.20912356909E+03  0.27262157455E+03  0.17437070197E+03 0.  0.
        -24    2    5    5    0    0 -0.24788818953E+01 -0.54595791126E+02  0.70033313904E+02  0.11852279221E+03  0.78461085593E+02 0.  0.
          5    1    3    3  501    0 -0.17097571722E+02 -0.50830004031E+02 -0.15704034271E+02  0.56077829496E+02  0.47000000000E+01 0. -1.
        -11    1    4    4    0    0  0.13922038979E+02 -0.23344998104E+02 -0.38216429335E+02  0.46896775763E+02  0.00000000000E+00 0.  1.
         12    1    4    4    0    0  0.10593723163E+02  0.62787091786E+02 -0.15519985249E+03  0.16775410600E+03  0.00000000000E+00 0. -1.
         -5    1    5    5    0  502 -0.49393085238E+01  0.65983701474E+02  0.13909025519E+03  0.15409878234E+03  0.47000000000E+01 0.  1.
         13    1    6    6    0    0  0.70510579118E+01  0.12750499573E+02 -0.66539856203E+01  0.16017745836E+02  0.00000000000E+00 0. -1.
        -14    1    6    6    0    0 -0.95299398071E+01 -0.67346290698E+02  0.76687299524E+02  0.10250504637E+03  0.00000000000E+00 0.  1.
</event>
<event>
12    1  0.8526130E-002  0.2175459E+03  0.7818608E-02  0.1136208E+00
         21   -1    0    0  503  502  0.00000000000E+00  0.00000000000E+00  0.23047453931E+03  0.23047453931E+03  0.00000000000E+00 0. -1.
         21   -1    0    0  501  503 -0.00000000000E+00 -0.00000000000E+00 -0.22477679678E+03  0.22477679678E+03  0.00000000000E+00 0. -1.
          6    2    1    2  501    0  0.11502134650E+03  0.59955927673E+02 -0.68083662063E+02  0.22553430095E+03  0.17148093904E+03 0.  0.
         24    2    3    3    0    0  0.10241546979E+03 -0.17953951663E+02 -0.66683442639E+02  0.14645896952E+03  0.78691012193E+02 0.  0.
         -6    2    1    2    0  502 -0.11502134650E+03 -0.59955927673E+02  0.73781404592E+02  0.22971703514E+03  0.17464706455E+03 0.  0.
        -24    2    5    5    0    0 -0.12264537409E+02  0.23233718508E+02  0.11225199578E+02  0.83378906709E+02  0.78331426802E+02 0.  0.
          5    1    3    3  501    0  0.12605876710E+02  0.77909879336E+02 -0.14002194243E+01  0.79075331427E+02  0.47000000000E+01 0. -1.
        -11    1    4    4    0    0  0.18595096252E+02  0.17186999079E+02 -0.47114099672E+02  0.53487465165E+02  0.00000000000E+00 0.  1.
         12    1    4    4    0    0  0.83820373535E+02 -0.35140950742E+02 -0.19569342967E+02  0.92971504359E+02  0.00000000000E+00 0. -1.
         -5    1    5    5    0  502 -0.10275680909E+03 -0.83189646181E+02  0.62556205013E+02  0.14633812843E+03  0.47000000000E+01 0.  1.
         11    1    6    6    0    0 -0.23900981944E+02 -0.22881090570E+02  0.13566455189E+02  0.35761011590E+02  0.00000000000E+00 0. -1.
        -12    1    6    6    0    0  0.11636444535E+02  0.46114809078E+02 -0.23412556107E+01  0.47617895119E+02  0.00000000000E+00 0.  1.
</event>
<event>
12    1  0.8526130E-002  0.2145664E+03  0.7818608E-02  0.1139819E+00
         21   -1    0    0  501  502  0.00000000000E+00  0.00000000000E+00  0.17421724732E+03  0.17421724732E+03  0.00000000000E+00 0.  1.
         21   -1    0    0  502  503 -0.00000000000E+00 -0.00000000000E+00 -0.40771234192E+03  0.40771234192E+03  0.00000000000E+00 0.  1.
         -6    2    1    2    0  503  0.12477992574E+03 -0.30770748362E+02 -0.29753909923E+03  0.36683544434E+03  0.17181926210E+03 0.  0.
        -24    2    3    3    0    0  0.14341981552E+03 -0.34398395158E+02 -0.17306400241E+03  0.24083248786E+03  0.79351403308E+02 0.  0.
          6    2    1    2  501    0 -0.12477992574E+03  0.30770748362E+02  0.64044004633E+02  0.21509414491E+03  0.16014676963E+03 0.  0.
         24    2    5    5    0    0 -0.10146269938E+03 -0.20078658620E+02  0.22681087722E+00  0.13009956006E+03  0.78917755838E+02 0.  0.
          5    1    5    5  501    0 -0.23317226356E+02  0.50849406982E+02  0.63817193756E+02  0.84994584852E+02  0.47000000000E+01 0. -1.
        -13    1    6    6    0    0 -0.69652199146E+02  0.12888960636E+02  0.28401902689E+02  0.76316592092E+02  0.00000000000E+00 0.  1.
         14    1    6    6    0    0 -0.31810500233E+02 -0.32967619256E+02 -0.28175091812E+02  0.53782967965E+02  0.00000000000E+00 0. -1.
         -5    1    3    3    0  503 -0.18639889780E+02  0.36276467955E+01 -0.12447509682E+03  0.12600295648E+03  0.47000000000E+01 0.  1.
         13    1    4    4    0    0  0.41326533687E+02  0.24424447329E+02 -0.66125420174E+02  0.81712956177E+02  0.00000000000E+00 0. -1.
        -14    1    4    4    0    0  0.10209328183E+03 -0.58822842487E+02 -0.10693858224E+03  0.15911953169E+03  0.00000000000E+00 0.  1.
</event>
<event>
12    1  0.8526130E-002  0.4003849E+03  0.7818608E-02  0.1043655E+00
         21   -1    0    0  503  502  0.00000000000E+00  0.00000000000E+00  0.51723130551E+03  0.51723130551E+03  0.00000000000E+00 0. -1.
         21   -1    0    0  501  503 -0.00000000000E+00 -0.00000000000E+00 -0.31058697062E+03  0.31058697062E+03  0.00000000000E+00 0. -1.
          6    2    1    2  501    0  0.17411650301E+02  0.36112647220E+03  0.12337945585E+03  0.41886706032E+03  0.17178949212E+03 0.  0.
         24    2    3    3    0    0 -0.14946846166E+02  0.12061790723E+03 -0.22369792229E+01  0.14556682088E+03  0.80078758167E+02 0.  0.
         -6    2    1    2    0  502 -0.17411650301E+02 -0.36112647220E+03  0.83264879033E+02  0.40895121581E+03  0.17202488871E+03 0.  0.
        -24    2    5    5    0    0 -0.32036890205E+01 -0.37019312063E+03  0.63788066172E+02  0.38276903643E+03  0.73416671651E+02 0.  0.
          5    1    3    3  501    0  0.32358496467E+02  0.24050856498E+03  0.12561643507E+03  0.27330023945E+03  0.47000000000E+01 0. -1.
        -13    1    4    4    0    0 -0.68501666039E+00 -0.10133895092E+02  0.89861302266E+01  0.13561549101E+02  0.00000000000E+00 0.  1.
         14    1    4    4    0    0 -0.14261829506E+02  0.13075180232E+03 -0.11223109449E+02  0.13200527178E+03  0.00000000000E+00 0. -1.
         -5    1    5    5    0  502 -0.14207961281E+02  0.90666484312E+01  0.19476812862E+02  0.26182179374E+02  0.47000000000E+01 0.  1.
         11    1    6    6    0    0  0.30389904636E+02 -0.27061002919E+03  0.47188072719E+02  0.27636940571E+03  0.00000000000E+00 0. -1.
        -12    1    6    6    0    0 -0.33593593656E+02 -0.99583091443E+02  0.16599993453E+02  0.10639963073E+03  0.00000000000E+00 0.  1.
</event>
<event>
12    1  0.8526130E-002  0.1811791E+03  0.7818608E-02  0.1168322E+00
         21   -1    0    0  501  502  0.00000000000E+00  0.00000000000E+00  0.58687149652E+02  0.58687149652E+02  0.00000000000E+00 0.  1.
         21   -1    0    0  502  503 -0.00000000000E+00 -0.00000000000E+00 -0.69406327305E+03  0.69406327305E+03  0.00000000000E+00 0.  1.
         -6    2    1    2    0  503 -0.41596512668E+02 -0.35355963954E+02 -0.50044957293E+03  0.53223645473E+03  0.17275866010E+03 0.  0.
        -24    2    3    3    0    0 -0.72941501380E+02 -0.14717129702E+02 -0.47052634547E+03  0.48400825407E+03  0.85626466115E+02 0.  0.
          6    2    1    2  501    0  0.41596512668E+02  0.35355963954E+02 -0.13492655046E+03  0.22051396797E+03  0.16565301687E+03 0.  0.
         24    2    5    5    0    0  0.45984019577E+02  0.72253559454E+02 -0.14031474957E+03  0.18267476264E+03  0.79666385937E+02 0.  0.
          5    1    5    5  501    0 -0.43875069095E+01 -0.36897595500E+02  0.53881991063E+01  0.37839205332E+02  0.47000000000E+01 0. -1.
        -11    1    6    6    0    0  0.12136580323E+02 -0.14104768255E+02 -0.62068540882E+01  0.19615455823E+02  0.00000000000E+00 0.  1.
         12    1    6    6    0    0  0.33847439254E+02  0.86358327710E+02 -0.13410789548E+03  0.16305930682E+03  0.00000000000E+00 0. -1.
         -5    1    3    3    0  503  0.31344988712E+02 -0.20638834252E+02 -0.29923227461E+02  0.48228200654E+02  0.47000000000E+01 0.  1.
         13    1    4    4    0    0 -0.60234440564E+02  0.29434392604E+02 -0.25754061482E+03  0.26612354195E+03  0.00000000000E+00 0. -1.
        -14    1    4    4    0    0 -0.12707060816E+02 -0.44151522306E+02 -0.21298573065E+03  0.21788471212E+03  0.00000000000E+00 0.  1.
</event>
<event>
12    1  0.8526130E-002  0.2016243E+03  0.7818608E-02  0.1149963E+00
         21   -1    0    0  501  502  0.00000000000E+00  0.00000000000E+00  0.66627378747E+02  0.66627378747E+02  0.00000000000E+00 0.  1.
         21   -1    0    0  502  503 -0.00000000000E+00 -0.00000000000E+00 -0.10567260271E+04  0.10567260271E+04  0.00000000000E+00 0. -1.
         -6    2    1    2    0  503  0.89432118270E+02 -0.36724057734E+01 -0.87435757437E+03  0.89730346622E+03  0.18066751863E+03 0.  0.
        -24    2    3    3    0    0 -0.23563671254E+02 -0.16105272052E+02 -0.44207689513E+03  0.45030089323E+03  0.80773057670E+02 0.  0.
          6    2    1    2  501    0 -0.89432118270E+02  0.36724057734E+01 -0.11574107396E+03  0.22604993960E+03  0.17231073284E+03 0.  0.
         24    2    5    5    0    0 -0.30252581955E+02 -0.46328954718E+02 -0.11255379168E+03  0.14836723665E+03  0.79264684002E+02 0.  0.
          5    1    5    5  501    0 -0.59179536315E+02  0.50001360491E+02 -0.31872822763E+01  0.77682702951E+02  0.47000000000E+01 0. -1.
        -13    1    6    6    0    0 -0.36551282102E+02 -0.59523471059E+02 -0.54770438911E+02  0.88762834614E+02  0.00000000000E+00 0.  1.
         14    1    6    6    0    0  0.62987001470E+01  0.13194516341E+02 -0.57783352770E+02  0.59604402039E+02  0.00000000000E+00 0. -1.
         -5    1    3    3    0  503  0.11299578952E+03  0.12432866278E+02 -0.43228067924E+03  0.44700257299E+03  0.47000000000E+01 0.  1.
         11    1    4    4    0    0  0.16826291008E+02  0.20908789480E+02 -0.21695546585E+03  0.21860918487E+03  0.00000000000E+00 0. -1.
        -12    1    4    4    0    0 -0.40389962262E+02 -0.37014061532E+02 -0.22512142928E+03  0.23169170836E+03  0.00000000000E+00 0.  1.
</event>
<event>
12    1  0.8526130E-002  0.2183691E+03  0.7818608E-02  0.1135353E+00
         21   -1    0    0  503  502  0.00000000000E+00  0.00000000000E+00  0.28612972646E+03  0.28612972646E+03  0.00000000000E+00 0. -1.
         21   -1    0    0  501  503 -0.00000000000E+00 -0.00000000000E+00 -0.17838593375E+03  0.17838593375E+03  0.00000000000E+00 0.  1.
          6    2    1    2  501    0  0.30409647909E+02 -0.13092470943E+03 -0.80308273716E+01  0.21851672983E+03  0.17210183265E+03 0.  0.
         24    2    3    3    0    0  0.25556029020E+02 -0.12784150701E+03 -0.61267194550E+02  0.16476485039E+03  0.79982656006E+02 0.  0.
         -6    2    1    2    0  502 -0.30409647909E+02  0.13092470943E+03  0.11577462009E+03  0.24599893037E+03  0.17042794625E+03 0.  0.
        -24    2    5    5    0    0  0.41998158638E+02  0.75112876477E+02  0.31491265757E+02  0.12156571550E+03  0.79879495641E+02 0.  0.
          5    1    3    3  501    0  0.48536188885E+01 -0.30832024254E+01  0.53236367179E+02  0.53751879445E+02  0.47000000000E+01 0. -1.
        -13    1    4    4    0    0  0.22346589612E+02 -0.13626227782E+03 -0.43380826768E+02  0.14473656951E+03  0.00000000000E+00 0.  1.
         14    1    4    4    0    0  0.32094394077E+01  0.84207708096E+01 -0.17886367782E+02  0.20028280874E+02  0.00000000000E+00 0. -1.
         -5    1    5    5    0  502 -0.72407806546E+02  0.55811832958E+02  0.84283354332E+02  0.12443321488E+03  0.47000000000E+01 0.  1.
         11    1    6    6    0    0 -0.74585078334E+01 -0.88850051617E+01  0.20390561089E+02  0.23459489282E+02  0.00000000000E+00 0. -1.
        -12    1    6    6    0    0  0.49456666471E+02  0.83997881638E+02  0.11100704668E+02  0.98106226216E+02  0.00000000000E+00 0.  1.
</event>
<event>
12    1  0.8526130E-002  0.1968130E+03  0.7818608E-02  0.1156816E+00
         21   -1    0    0  501  502  0.00000000000E+00  0.00000000000E+00  0.24791283864E+03  0.24791283864E+03  0.00000000000E+00 0.  1.
         21   -1    0    0  502  503 -0.00000000000E+00 -0.00000000000E+00 -0.36558717952E+03  0.36558717952E+03  0.00000000000E+00 0.  1.
         -6    2    1    2    0  503  0.34328421757E+02 -0.30349643421E+02 -0.29776293652E+03  0.34672809694E+03  0.17163352075E+03 0.  0.
        -24    2    3    3    0    0  0.86956370965E+02 -0.36074726437E+02 -0.22007924338E+03  0.25260411597E+03  0.80691819288E+02 0.  0.
          6    2    1    2  501    0 -0.34328421757E+02  0.30349643421E+02  0.18008859565E+03  0.26677192122E+03  0.19140484391E+03 0.  0.
         24    2    5    5    0    0  0.16537603923E+00  0.46907457136E+00  0.20119835646E+03  0.21627060952E+03  0.79321816170E+02 0.  0.
          5    1    5    5  501    0 -0.34493797796E+02  0.29880568850E+02 -0.21109760815E+02  0.50501311695E+02  0.47000000000E+01 0. -1.
        -11    1    6    6    0    0 -0.95311859188E+01  0.36600802097E+02  0.13537482696E+03  0.14055890578E+03  0.00000000000E+00 0.  1.
         12    1    6    6    0    0  0.96965619580E+01 -0.36131727526E+02  0.65823529496E+02  0.75711703740E+02  0.00000000000E+00 0. -1.
         -5    1    3    3    0  503 -0.52627949208E+02  0.57250830155E+01 -0.77683693147E+02  0.94123980973E+02  0.47000000000E+01 0.  1.
         11    1    4    4    0    0 -0.11751983776E+02  0.95759553218E+01 -0.24075612868E+02  0.28450714894E+02  0.00000000000E+00 0. -1.
        -12    1    4    4    0    0  0.98708354741E+02 -0.45650681759E+02 -0.19600363051E+03  0.22415340108E+03  0.00000000000E+00 0.  1.
</event>
<event>
12    1  0.8526130E-002  0.1825384E+03  0.7818608E-02  0.1165814E+00
         21   -1    0    0  503  502  0.00000000000E+00  0.00000000000E+00  0.14297402539E+03  0.14297402539E+03  0.00000000000E+00 0.  1.
         21   -1    0    0  501  503 -0.00000000000E+00 -0.00000000000E+00 -0.27060046723E+03  0.27060046723E+03  0.00000000000E+00 0. -1.
          6    2    1    2  501    0  0.28640303370E+02  0.48112592941E+02 -0.14351770540E+03  0.23220162001E+03  0.17373880394E+03 0.  0.
         24    2    3    3    0    0  0.55834399812E+02  0.30135887155E+01 -0.14971130788E+03  0.17896732866E+03  0.80555987376E+02 0.  0.
         -6    2    1    2    0  502 -0.28640303370E+02 -0.48112592941E+02  0.15891263566E+02  0.18137287261E+03  0.17178037747E+03 0.  0.
        -24    2    5    5    0    0 -0.77446138780E+02 -0.31595363596E+02 -0.24895025020E+02  0.11549085858E+03  0.75645255854E+02 0.  0.
          5    1    3    3  501    0 -0.27194096442E+02  0.45099004226E+02  0.61936024794E+01  0.53234291346E+02  0.47000000000E+01 0. -1.
        -13    1    4    4    0    0 -0.25358207805E+01  0.70268095888E+00  0.92475364064E+01  0.96146282896E+01  0.00000000000E+00 0.  1.
         14    1    4    4    0    0  0.58370220593E+02  0.23109077566E+01 -0.15895884429E+03  0.16935270037E+03  0.00000000000E+00 0. -1.
         -5    1    5    5    0  502  0.48805835410E+02 -0.16517229345E+02  0.40786288586E+02  0.65882014025E+02  0.47000000000E+01 0.  1.
         13    1    6    6    0    0  0.76825381223E+01 -0.25556146265E+02 -0.11684361544E+02  0.29131809223E+02  0.00000000000E+00 0. -1.
        -14    1    6    6    0    0 -0.85128676903E+02 -0.60392173309E+01 -0.13210663476E+02  0.86359049362E+02  0.00000000000E+00 0.  1.
</event>
<event>
12    1  0.8526130E-002  0.1833089E+03  0.7818608E-02  0.1164796E+00
         21   -1    0    0  501  502  0.00000000000E+00  0.00000000000E+00  0.18160452723E+04  0.18160452723E+04  0.00000000000E+00 0.  1.
         21   -1    0    0  502  503 -0.00000000000E+00 -0.00000000000E+00 -0.44485983952E+02  0.44485983952E+02  0.00000000000E+00 0.  1.
         -6    2    1    2    0  503 -0.31371072108E+02 -0.56110047963E+02  0.17324181216E+03  0.25173639478E+03  0.17095615030E+03 0.  0.
        -24    2    3    3    0    0 -0.60492933769E+02 -0.54688281027E+02  0.18511864631E+03  0.21990475270E+03  0.86249544542E+02 0.  0.
          6    2    1    2  501    0  0.31371072108E+02  0.56110047963E+02  0.15983174762E+04  0.16087948615E+04  0.17166732355E+03 0.  0.
         24    2    5    5    0    0  0.46902843977E+02 -0.28391978330E+02  0.79772043817E+03  0.80358710215E+03  0.79927167295E+02 0.  0.
          5    1    5    5  501    0 -0.15531771868E+02  0.84502026293E+02  0.80059703804E+03  0.80520775935E+03  0.47000000000E+01 0. -1.
        -13    1    6    6    0    0  0.45841666409E+02  0.18563885647E+02  0.36836156221E+03  0.37166694330E+03  0.00000000000E+00 0.  1.
         14    1    6    6    0    0  0.10611775680E+01 -0.46955863977E+02  0.42935887596E+03  0.43192015885E+03  0.00000000000E+00 0. -1.
         -5    1    3    3    0  503  0.29121861660E+02 -0.14217669357E+01 -0.11876834145E+02  0.31831642073E+02  0.47000000000E+01 0.  1.
         13    1    4    4    0    0  0.55480476480E+01 -0.34171022775E+01  0.10132565705E+03  0.10153495062E+03  0.00000000000E+00 0. -1.
        -14    1    4    4    0    0 -0.66040981417E+02 -0.51271178750E+02  0.83792989255E+02  0.11836980208E+03  0.00000000000E+00 0.  1.
</event>
<event>
12    1  0.8526130E-002  0.1887082E+03  0.7818608E-02  0.1162106E+00
         21   -1    0    0  501  502  0.00000000000E+00  0.00000000000E+00  0.17993302054E+03  0.17993302054E+03  0.00000000000E+00 0. -1.
         21   -1    0    0  502  503 -0.00000000000E+00 -0.00000000000E+00 -0.19561718107E+03  0.19561718107E+03  0.00000000000E+00 0. -1.
         -6    2    1    2    0  503  0.45129886610E+02  0.27144382065E+01 -0.47444094399E+02  0.19458089889E+03  0.18321219741E+03 0.  0.
        -24    2    3    3    0    0 -0.46415476839E+02 -0.10658689082E+02 -0.45836865305E+02  0.10193065718E+03  0.77594049449E+02 0.  0.
          6    2    1    2  501    0 -0.45129886610E+02 -0.27144382065E+01  0.31759933874E+02  0.18096930272E+03  0.17232852430E+03 0.  0.
         24    2    5    5    0    0  0.77711617700E+01 -0.33657906456E+01 -0.41835783603E+02  0.90209373180E+02  0.79471873754E+02 0.  0.
          5    1    5    5  501    0 -0.52901048380E+02  0.65135243911E+00  0.73595717477E+02  0.90759929543E+02  0.47000000000E+01 0. -1.
        -11    1    6    6    0    0  0.34929013773E+02 -0.24573685242E+02 -0.11320341144E+02  0.44182034054E+02  0.00000000000E+00 0.  1.
         12    1    6    6    0    0 -0.27157852003E+02  0.21207894596E+02 -0.30515442459E+02  0.46027339126E+02  0.00000000000E+00 0. -1.
         -5    1    3    3    0  503  0.91545363449E+02  0.13373127288E+02 -0.16072290942E+01  0.92650241704E+02  0.47000000000E+01 0.  1.
         13    1    4    4    0    0  0.21963745847E+02 -0.38598487430E+01 -0.12292267683E+02  0.25463786222E+02  0.00000000000E+00 0. -1.
        -14    1    4    4    0    0 -0.68379222686E+02 -0.67988403388E+01 -0.33544597622E+02  0.76466870962E+02  0.00000000000E+00 0.  1.
</event>
<event>
12    1  0.8526130E-002  0.2534264E+03  0.7818608E-02  0.1111837E+00
         21   -1    0    0  501  502  0.00000000000E+00  0.00000000000E+00  0.45206785518E+03  0.45206785518E+03  0.00000000000E+00 0.  1.
         21   -1    0    0  502  503 -0.00000000000E+00 -0.00000000000E+00 -0.15856430077E+03  0.15856430077E+03  0.00000000000E+00 0.  1.
         -6    2    1    2    0  503  0.52864622837E+02 -0.17667034520E+03  0.25107946905E+03  0.35367937641E+03  0.16745483659E+03 0.  0.
        -24    2    3    3    0    0  0.21865354116E+02 -0.17814327260E+03  0.25669936413E+03  0.32179211568E+03  0.73773185376E+02 0.  0.
          6    2    1    2  501    0 -0.52864622837E+02  0.17667034520E+03  0.42424085359E+02  0.25695277954E+03  0.17383281818E+03 0.  0.
         24    2    5    5    0    0 -0.84164978123E+02  0.84562467033E+02  0.63366285699E+02  0.15733230365E+03  0.80644982710E+02 0.  0.
          5    1    5    5  501    0  0.31300355285E+02  0.92107878170E+02 -0.20942200340E+02  0.99620475892E+02  0.47000000000E+01 0. -1.
        -13    1    6    6    0    0 -0.90910893908E+02  0.80506435751E+02  0.32823221648E+02  0.12579125847E+03  0.00000000000E+00 0.  1.
         14    1    6    6    0    0  0.67459157850E+01  0.40560312824E+01  0.30543064051E+02  0.31541045182E+02  0.00000000000E+00 0. -1.
         -5    1    3    3    0  503  0.30999268722E+02  0.14729274017E+01 -0.56198950837E+01  0.31887260735E+02  0.47000000000E+01 0.  1.
         11    1    4    4    0    0 -0.25532502702E+02 -0.36256350742E+02  0.54188268038E+02  0.70019997546E+02  0.00000000000E+00 0. -1.
        -12    1    4    4    0    0  0.47397856818E+02 -0.14188692186E+03  0.20251109610E+03  0.25177211813E+03  0.00000000000E+00 0.  1.
</event>
<event>
12    1  0.8526130E-002  0.1722079E+03  0.7818608E-02  0.1176403E+00
         21   -1    0    0  501  502  0.00000000000E+00  0.00000000000E+00  0.17771134048E+03  0.17771134048E+03  0.00000000000E+00 0.  1.
         21   -1    0    0  502  503 -0.00000000000E+00 -0.00000000000E+00 -0.13552482985E+04  0.13552482985E+04  0.00000000000E+00 0.  1.
         -6    2    1    2    0  503  0.30286055913E+01  0.12309942330E+02 -0.13081221789E+04  0.13194086481E+04  0.17174061373E+03 0.  0.
        -24    2    3    3    0    0  0.11694087660E+02 -0.52186042587E+02 -0.78382761267E+03  0.79107002097E+03  0.92444128918E+02 0.  0.
          6    2    1    2  501    0 -0.30286055913E+01 -0.12309942330E+02  0.13058522095E+03  0.21355099089E+03  0.16849575260E+03 0.  0.
         24    2    5    5    0    0  0.33010061763E+02 -0.44950589751E+00  0.14776168576E+03  0.17163945977E+03  0.80849997769E+02 0.  0.
          5    1    5    5  501    0 -0.36038667355E+02 -0.11860436432E+02 -0.17176464806E+02  0.41911531114E+02  0.47000000000E+01 0. -1.
        -13    1    6    6    0    0 -0.10038127293E+01  0.33349985062E+02  0.93246521681E+02  0.99036068931E+02  0.00000000000E+00 0.  1.
         14    1    6    6    0    0  0.34013874493E+02 -0.33799490960E+02  0.54515164077E+02  0.72603390840E+02  0.00000000000E+00 0. -1.
         -5    1    3    3    0  503 -0.86654820684E+01  0.64495984917E+02 -0.52429456628E+03  0.52833862709E+03  0.47000000000E+01 0.  1.
         11    1    4    4    0    0 -0.33358824111E+02 -0.22266143151E+02 -0.16184475886E+03  0.16674027182E+03  0.00000000000E+00 0. -1.
        -12    1    4    4    0    0  0.45052911771E+02 -0.29919899436E+02 -0.62198285381E+03  0.62432974915E+03  0.00000000000E+00 0.  1.
</event>
<event>
12    1  0.8526130E-002  0.1851525E+03  0.7818608E-02  0.1164463E+00
         21   -1    0    0  503  502  0.00000000000E+00  0.00000000000E+00  0.26992121946E+02  0.26992121946E+02  0.00000000000E+00 0.  1.
         21   -1    0    0  501  503 -0.00000000000E+00 -0.00000000000E+00 -0.19452018733E+04  0.19452018733E+04  0.00000000000E+00 0.  1.
          6    2    1    2  501    0  0.66056058600E+02 -0.18338678855E+02 -0.15696903856E+04  0.15805724751E+04  0.17199340805E+03 0.  0.
         24    2    3    3    0    0 -0.10847451282E+02  0.20127719190E-01 -0.11894466888E+04  0.11921673328E+04  0.79761245708E+02 0.  0.
         -6    2    1    2    0  502 -0.66056058600E+02  0.18338678855E+02 -0.34851936570E+03  0.39162152008E+03  0.16493015704E+03 0.  0.
        -24    2    5    5    0    0 -0.51319354038E+02  0.16993306587E+02 -0.35985972146E+03  0.37239460778E+03  0.79096625769E+02 0.  0.
          5    1    3    3  501    0  0.76903509882E+02 -0.18358806574E+02 -0.38024369689E+03  0.38840514239E+03  0.47000000000E+01 0. -1.
        -11    1    4    4    0    0  0.26284423144E+01  0.21641146891E+02 -0.10607068523E+04  0.10609308528E+04  0.00000000000E+00 0.  1.
         12    1    4    4    0    0 -0.13475893596E+02 -0.21621019172E+02 -0.12873983650E+03  0.13123647999E+03  0.00000000000E+00 0. -1.
         -5    1    5    5    0  502 -0.14736704561E+02  0.13453722677E+01  0.11340355759E+02  0.19226912300E+02  0.47000000000E+01 0.  1.
         13    1    6    6    0    0  0.18917625559E+02 -0.41962954151E+01 -0.12037650535E+03  0.12192616000E+03  0.00000000000E+00 0. -1.
        -14    1    6    6    0    0 -0.70236979597E+02  0.21189602002E+02 -0.23948321611E+03  0.25046844778E+03  0.00000000000E+00 0.  1.
</event>
<event>
12    1  0.8526130E-002  0.1808841E+03  0.7818608E-02  0.1167893E+00
         21   -1    0    0  503  502  0.00000000000E+00  0.00000000000E+00  0.12265640623E+03  0.12265640623E+03  0.00000000000E+00 0.  1.
         21   -1    0    0  501  503 -0.00000000000E+00 -0.00000000000E+00 -0.54277145609E+03  0.54277145609E+03  0.00000000000E+00 0.  1.
          6    2    1    2  501    0  0.37922863788E+02  0.40495526257E+02 -0.45084091806E+03  0.48577420945E+03  0.17216567000E+03 0.  0.
         24    2    3    3    0    0  0.65912342782E+02  0.74955257012E+02 -0.38701834488E+03  0.40788778685E+03  0.81403439143E+02 0.  0.
         -6    2    1    2    0  502 -0.37922863788E+02 -0.40495526257E+02  0.30725868202E+02  0.17965365288E+03  0.16808725344E+03 0.  0.
        -24    2    5    5    0    0 -0.49797860216E+02 -0.68515478285E+02 -0.14938481232E+02  0.12457683324E+03  0.90122314174E+02 0.  0.
          5    1    3    3  501    0 -0.27989478994E+02 -0.34459730755E+02 -0.63822573180E+02  0.77886422600E+02  0.47000000000E+01 0. -1.
        -11    1    4    4    0    0  0.34346101114E+02 -0.53422284867E+01 -0.18467176369E+03  0.18791448686E+03  0.00000000000E+00 0.  1.
         12    1    4    4    0    0  0.31566241668E+02  0.80297485499E+02 -0.20234658119E+03  0.21997329999E+03  0.00000000000E+00 0. -1.
         -5    1    5    5    0  502  0.11874996428E+02  0.28019952028E+02  0.45664349434E+02  0.55076819635E+02  0.47000000000E+01 0.  1.
         13    1    6    6    0    0  0.15859098092E+01  0.15153537060E+02 -0.21294266756E+02  0.26183784907E+02  0.00000000000E+00 0. -1.
        -14    1    6    6    0    0 -0.51383770026E+02 -0.83669015345E+02  0.63557855241E+01  0.98393048334E+02  0.00000000000E+00 0.  1.
</event>
<event>
12    1  0.8526130E-002  0.1766834E+03  0.7818608E-02  0.1171331E+00
         21   -1    0    0  501  502  0.00000000000E+00  0.00000000000E+00  0.30779384272E+02  0.30779384272E+02  0.00000000000E+00 0.  1.
         21   -1    0    0  502  503 -0.00000000000E+00 -0.00000000000E+00 -0.18803385470E+04  0.18803385470E+04  0.00000000000E+00 0.  1.
         -6    2    1    2    0  503  0.34902139109E+02  0.19457233597E+02 -0.15741297912E+04  0.15838896073E+04  0.17095304998E+03 0.  0.
        -24    2    3    3    0    0  0.60124518653E+02  0.67515401930E+02 -0.11581023422E+04  0.11643104320E+04  0.79021895326E+02 0.  0.
          6    2    1    2  501    0 -0.34902139109E+02 -0.19457233597E+02 -0.27542937154E+03  0.32722832399E+03  0.17210547365E+03 0.  0.
         24    2    5    5    0    0 -0.90088518527E+01  0.53224657241E+02 -0.17020440989E+03  0.19666224058E+03  0.82416455738E+02 0.  0.
          5    1    5    5  501    0 -0.25893287256E+02 -0.72681890838E+02 -0.10522496165E+03  0.13056608340E+03  0.47000000000E+01 0. -1.
        -11    1    6    6    0    0 -0.35948060796E+02 -0.19925457120E+01 -0.77400270799E+02  0.85364133178E+02  0.00000000000E+00 0.  1.
         12    1    6    6    0    0  0.26939208943E+02  0.55217202953E+02 -0.92804139086E+02  0.11129810740E+03  0.00000000000E+00 0. -1.
         -5    1    3    3    0  503 -0.25222379544E+02 -0.48058168333E+02 -0.41602744902E+03  0.41957917526E+03  0.47000000000E+01 0.  1.
         13    1    4    4    0    0  0.11419301508E+02  0.43953732186E+02 -0.86919288192E+03  0.87037842173E+03  0.00000000000E+00 0. -1.
        -14    1    4    4    0    0  0.48705217145E+02  0.23561669744E+02 -0.28890946025E+03  0.29393201030E+03  0.00000000000E+00 0.  1.
</event>
<event>
12    1  0.8526130E-002  0.2445808E+03  0.7818608E-02  0.1116948E+00
         21   -1    0    0  501  502  0.00000000000E+00  0.00000000000E+00  0.54203676178E+03  0.54203676178E+03  0.00000000000E+00 0. -1.
         21   -1    0    0  502  503 -0.00000000000E+00 -0.00000000000E+00 -0.26493368644E+03  0.26493368644E+03  0.00000000000E+00 0.  1.
         -6    2    1    2    0  503  0.15933911014E+03  0.68535066998E+02 -0.16998880406E+03  0.29785227689E+03  0.17243485122E+03 0.  0.
        -24    2    3    3    0    0  0.53389585202E+02  0.91505415200E+02 -0.11818195875E+03  0.17760678653E+03  0.79708885499E+02 0.  0.
          6    2    1    2  501    0 -0.15933911014E+03 -0.68535066998E+02  0.44709187940E+03  0.50911817133E+03  0.17095074239E+03 0.  0.
         24    2    5    5    0    0 -0.20374014076E+02 -0.30741844356E+01  0.10119395953E+03  0.13061601012E+03  0.79973580605E+02 0.  0.
          5    1    5    5  501    0 -0.13896509607E+03 -0.65460882563E+02  0.34589791987E+03  0.37850216121E+03  0.47000000000E+01 0. -1.
        -13    1    6    6    0    0 -0.45503737185E+02  0.17052029454E+02  0.47150120263E+02  0.67708903751E+02  0.00000000000E+00 0.  1.
         14    1    6    6    0    0  0.25129723109E+02 -0.20126213889E+02  0.54043839265E+02  0.62907106368E+02  0.00000000000E+00 0. -1.
         -5    1    3    3    0  503  0.10594952494E+03 -0.22970348201E+02 -0.51806845308E+02  0.12024549036E+03  0.47000000000E+01 0.  1.
         11    1    4    4    0    0 -0.12567899027E+02 -0.40868374909E+01 -0.26603360137E+02  0.29705102209E+02  0.00000000000E+00 0. -1.
        -12    1    4    4    0    0  0.65957484229E+02  0.95592252691E+02 -0.91578598613E+02  0.14790168432E+03  0.00000000000E+00 0.  1.
</event>
<event>
12    1  0.8526130E-002  0.1979670E+03  0.7818608E-02  0.1151668E+00
         21   -1    0    0  503  502  0.00000000000E+00  0.00000000000E+00  0.39887156403E+02  0.39887156403E+02  0.00000000000E+00 0. -1.
         21   -1    0    0  501  503 -0.00000000000E+00 -0.00000000000E+00 -0.11184743689E+04  0.11184743689E+04  0.00000000000E+00 0. -1.
          6    2    1    2  501    0  0.62481895120E+02 -0.74641013075E+02 -0.33281308538E+03  0.38675929573E+03  0.17129779620E+03 0.  0.
         24    2    3    3    0    0  0.68421388946E+02 -0.11569447004E+03 -0.25479771045E+03  0.29827679667E+03  0.77333545858E+02 0.  0.
         -6    2    1    2    0  502 -0.62481895120E+02  0.74641013075E+02 -0.74577412710E+03  0.77160222956E+03  0.17238237716E+03 0.  0.
        -24    2    5    5    0    0  0.22715524661E+02  0.50130914418E+02 -0.25387958489E+03  0.27176057870E+03  0.79811433211E+02 0.  0.
          5    1    3    3  501    0 -0.59394938261E+01  0.41053456963E+02 -0.78015374930E+02  0.88482499066E+02  0.47000000000E+01 0. -1.
        -13    1    4    4    0    0  0.11078204696E+02 -0.71984634475E+02 -0.18099460056E+03  0.19509884585E+03  0.00000000000E+00 0.  1.
         14    1    4    4    0    0  0.57343184250E+02 -0.43709835562E+02 -0.73803109888E+02  0.10317795081E+03  0.00000000000E+00 0. -1.
         -5    1    5    5    0  502 -0.85197419782E+02  0.24510098657E+02 -0.49189454221E+03  0.49984165086E+03  0.47000000000E+01 0.  1.
         11    1    6    6    0    0 -0.24065271554E+01 -0.12790487821E+01 -0.17114543640E+03  0.17116713394E+03  0.00000000000E+00 0. -1.
        -12    1    6    6    0    0  0.25122051817E+02  0.51409963200E+02 -0.82734148487E+02  0.10059344476E+03  0.00000000000E+00 0.  1.
</event>
<event>
12    1  0.8526130E-002  0.1953532E+03  0.7818608E-02  0.1154109E+00
         21   -1    0    0  501  502  0.00000000000E+00  0.00000000000E+00  0.78817511855E+02  0.78817511855E+02  0.00000000000E+00 0. -1.
         21   -1    0    0  502  503 -0.00000000000E+00 -0.00000000000E+00 -0.10823878826E+04  0.10823878826E+04  0.00000000000E+00 0. -1.
         -6    2    1    2    0  503 -0.91448880859E+02 -0.15947953245E+02 -0.93601331405E+03  0.95618188279E+03  0.17188843435E+03 0.  0.
        -24    2    3    3    0    0 -0.12908757486E+03  0.50966904426E+01 -0.75794792341E+03  0.77290907614E+03  0.78827705352E+02 0.  0.
          6    2    1    2  501    0  0.91448880859E+02  0.15947953245E+02 -0.67557056658E+02  0.20502351163E+03  0.16986303128E+03 0.  0.
         24    2    5    5    0    0  0.98709969021E+02 -0.16698159945E+01 -0.91216595830E+02  0.17428309869E+03  0.11094000570E+03 0.  0.
          5    1    5    5  501    0 -0.72610881619E+01  0.17617769239E+02  0.23659539171E+02  0.30740412946E+02  0.47000000000E+01 0. -1.
        -13    1    6    6    0    0  0.16632723803E+02 -0.42835173561E+02 -0.16025172315E+01  0.45978991470E+02  0.00000000000E+00 0.  1.
         14    1    6    6    0    0  0.82077245218E+02  0.41165357566E+02 -0.89614078598E+02  0.12830410722E+03  0.00000000000E+00 0. -1.
         -5    1    3    3    0  503  0.37638694003E+02 -0.21044643687E+02 -0.17806539064E+03  0.18327280665E+03  0.47000000000E+01 0.  1.
         13    1    4    4    0    0 -0.32753880969E+02  0.26056895907E+02 -0.38062246864E+03  0.38291675620E+03  0.00000000000E+00 0. -1.
        -14    1    4    4    0    0 -0.96333693893E+02 -0.20960205464E+02 -0.37732545477E+03  0.38999231994E+03  0.00000000000E+00 0.  1.
</event>
<event>
12    1  0.8526130E-002  0.1968518E+03  0.7818608E-02  0.1153492E+00
         21   -1    0    0  503  502  0.00000000000E+00  0.00000000000E+00  0.41893926289E+03  0.41893926289E+03  0.00000000000E+00 0. -1.
         21   -1    0    0  501  503 -0.00000000000E+00 -0.00000000000E+00 -0.41730881447E+03  0.41730881447E+03  0.00000000000E+00 0. -1.
          6    2    1    2  501    0 -0.14630711420E+02 -0.85370389141E+02 -0.36935908989E+03  0.41854123559E+03  0.17677236082E+03 0.  0.
         24    2    3    3    0    0  0.53390417537E+02 -0.13215633315E+02 -0.16793658349E+03  0.19398322782E+03  0.80010042813E+02 0.  0.
         -6    2    1    2    0  502  0.14630711420E+02  0.85370389141E+02  0.37098953831E+03  0.41770684177E+03  0.17129975792E+03 0.  0.
        -24    2    5    5    0    0 -0.45259564190E+02  0.20687504718E+02  0.12177368888E+03  0.15331820688E+03  0.78747953976E+02 0.  0.
          5    1    3    3  501    0 -0.68021128957E+02 -0.72154755827E+02 -0.20142250639E+03  0.22455800777E+03  0.47000000000E+01 0. -1.
        -13    1    4    4    0    0  0.58077024920E+02  0.15496289810E+02 -0.72318431227E+02  0.94037393182E+02  0.00000000000E+00 0.  1.
         14    1    4    4    0    0 -0.46866073827E+01 -0.28711923125E+02 -0.95618152268E+02  0.99945834637E+02  0.00000000000E+00 0. -1.
         -5    1    5    5    0  502  0.59890275609E+02  0.64682884423E+02  0.24921584943E+03  0.26438863489E+03  0.47000000000E+01 0.  1.
         11    1    6    6    0    0 -0.58711463465E+02  0.38877086547E+02  0.88829918751E+02  0.11335439235E+03  0.00000000000E+00 0. -1.
        -12    1    6    6    0    0  0.13451899275E+02 -0.18189581829E+02  0.32943770127E+02  0.39963814525E+02  0.00000000000E+00 0.  1.
</event>
<event>
12    1  0.8526130E-002  0.2404451E+03  0.7818608E-02  0.1119605E+00
         21   -1    0    0  503  502  0.00000000000E+00  0.00000000000E+00  0.28493333295E+03  0.28493333295E+03  0.00000000000E+00 0.  1.
         21   -1    0    0  501  503 -0.00000000000E+00 -0.00000000000E+00 -0.23924974360E+03  0.23924974360E+03  0.00000000000E+00 0. -1.
          6    2    1    2  501    0 -0.89983452768E+02  0.14057638283E+03 -0.80052769038E+02  0.25342114494E+03  0.17307538731E+03 0.  0.
         24    2    3    3    0    0 -0.64115115041E+02  0.22884905373E+02  0.51514062374E+01  0.10576513847E+03  0.80779085527E+02 0.  0.
         -6    2    1    2    0  502  0.89983452768E+02 -0.14057638283E+03  0.12573635839E+03  0.27076193161E+03  0.17217331560E+03 0.  0.
        -24    2    5    5    0    0  0.11979033527E+03 -0.92081796643E+02  0.54884264968E+02  0.17975487542E+03  0.80440978346E+02 0.  0.
          5    1    3    3  501    0 -0.25868337726E+02  0.11769147746E+03 -0.85204175275E+02  0.14765600647E+03  0.47000000000E+01 0. -1.
        -13    1    4    4    0    0 -0.59794345302E+02  0.47671982386E+02  0.16389368144E+02  0.78208650563E+02  0.00000000000E+00 0.  1.
         14    1    4    4    0    0 -0.43207697398E+01 -0.24787077013E+02 -0.11237961907E+02  0.27556487907E+02  0.00000000000E+00 0. -1.
         -5    1    5    5    0  502 -0.29806882506E+02 -0.48494586190E+02  0.70852093420E+02  0.91007056191E+02  0.47000000000E+01 0.  1.
         11    1    6    6    0    0 -0.12215910779E+01 -0.25134054110E+02 -0.98941956648E+01  0.27039010127E+02  0.00000000000E+00 0. -1.
        -12    1    6    6    0    0  0.12101192635E+03 -0.66947742533E+02  0.64778460633E+02  0.15271586529E+03  0.00000000000E+00 0.  1.
</event>
<event>
12    1  0.8526130E-002  0.1864269E+03  0.7818608E-02  0.1162353E+00
         21   -1    0    0  501  502  0.00000000000E+00  0.00000000000E+00  0.29151267476E+03  0.29151267476E+03  0.00000000000E+00 0. -1.
         21   -1    0    0  502  503 -0.00000000000E+00 -0.00000000000E+00 -0.11002552074E+04  0.11002552074E+04  0.00000000000E+00 0. -1.
         -6    2    1    2    0  503  0.65461979734E+02  0.11772375534E+02 -0.10623610685E+04  0.10785944639E+04  0.17415831332E+03 0.  0.
        -24    2    3    3    0    0  0.21193924046E+02  0.25282684171E+02 -0.29114434607E+03  0.30597585674E+03  0.88135112883E+02 0.  0.
          6    2    1    2  501    0 -0.65461979734E+02 -0.11772375534E+02  0.25361853581E+03  0.31317341831E+03  0.17126403187E+03 0.  0.
         24    2    5    5    0    0 -0.61644862747E+02 -0.40741679031E+02  0.76768228956E+02  0.13386387600E+03  0.81032109737E+02 0.  0.
          5    1    5    5  501    0 -0.38171169870E+01  0.28969303497E+02  0.17685030685E+03  0.17930954230E+03  0.47000000000E+01 0. -1.
        -11    1    6    6    0    0  0.11286397950E+01  0.17770897804E+02  0.33079676753E+02  0.37567853953E+02  0.00000000000E+00 0.  1.
         12    1    6    6    0    0 -0.62773502542E+02 -0.58512576835E+02  0.43688552203E+02  0.96296022051E+02  0.00000000000E+00 0. -1.
         -5    1    3    3    0  503  0.44268055689E+02 -0.13510308637E+02 -0.77121672242E+03  0.77261860717E+03  0.47000000000E+01 0.  1.
         13    1    4    4    0    0  0.18819179909E+01  0.55091987795E+02 -0.21501224975E+03  0.22196607011E+03  0.00000000000E+00 0. -1.
        -14    1    4    4    0    0  0.19312006055E+02 -0.29809303624E+02 -0.76132096314E+02  0.84009786630E+02  0.00000000000E+00 0.  1.
</event>
<event>
12    1  0.8526130E-002  0.1975539E+03  0.7818608E-02  0.1152007E+00
         21   -1    0    0  501  502  0.00000000000E+00  0.00000000000E+00  0.70748484082E+03  0.70748484082E+03  0.00000000000E+00 0.  1.
         21   -1    0    0  502  503 -0.00000000000E+00 -0.00000000000E+00 -0.42144012821E+03  0.42144012821E+03  0.00000000000E+00 0.  1.
         -6    2    1    2    0  503  0.58868433175E+02 -0.76056448600E+02 -0.38333611055E+03  0.43124714777E+03  0.17256144707E+03 0.  0.
        -24    2    3    3    0    0  0.54199399785E+02 -0.41488794401E+02 -0.38210134346E+03  0.39602872590E+03  0.78602926551E+02 0.  0.
          6    2    1    2  501    0 -0.58868433175E+02  0.76056448600E+02  0.66938082315E+03  0.69767782125E+03  0.17156217552E+03 0.  0.
         24    2    5    5    0    0 -0.59388352660E+02  0.11599186781E+03  0.57627183014E+03  0.59625552290E+03  0.80313987268E+02 0.  0.
          5    1    5    5  501    0  0.51991948454E+00 -0.39935419206E+02  0.93108993012E+02  0.10142229835E+03  0.47000000000E+01 0. -1.
        -11    1    6    6    0    0 -0.14163424413E+01  0.87441177072E+02  0.36446394658E+03  0.37480919656E+03  0.00000000000E+00 0.  1.
         12    1    6    6    0    0 -0.57972010219E+02  0.28550690734E+02  0.21180788356E+03  0.22144632634E+03  0.00000000000E+00 0. -1.
         -5    1    3    3    0  503  0.46690333899E+01 -0.34567654199E+02 -0.12347670829E+01  0.35218421875E+02  0.47000000000E+01 0.  1.
         11    1    4    4    0    0  0.34135753093E+02 -0.39912812624E+02 -0.97745246436E+02  0.11096132413E+03  0.00000000000E+00 0. -1.
        -12    1    4    4    0    0  0.20063646693E+02 -0.15759817771E+01 -0.28435609703E+03  0.28506740177E+03  0.00000000000E+00 0.  1.
</event>
<event>
12    1  0.8526130E-002  0.2024363E+03  0.7818608E-02  0.1148625E+00
         21   -1    0    0  503  502  0.00000000000E+00  0.00000000000E+00  0.33216199366E+04  0.33216199366E+04  0.00000000000E+00 0.  1.
         21   -1    0    0  501  503 -0.00000000000E+00 -0.00000000000E+00 -0.13350866738E+02  0.13350866738E+02  0.00000000000E+00 0.  1.
          6    2    1    2  501    0 -0.21285720086E+02  0.98908711347E+02  0.11213472106E+04  0.11386994942E+04  0.17023794034E+03 0.  0.
         24    2    3    3    0    0 -0.16462242202E+02  0.13019398902E+03  0.10371478257E+04  0.10486236320E+04  0.81941619480E+02 0.  0.
         -6    2    1    2    0  502  0.21285720086E+02 -0.98908711347E+02  0.21869218592E+04  0.21962713091E+04  0.17534089577E+03 0.  0.
        -24    2    5    5    0    0  0.51257776492E+01  0.13283332143E+02  0.63868528492E+03  0.64388386442E+03  0.80404086825E+02 0.  0.
          5    1    3    3  501    0 -0.48234778835E+01 -0.31285277676E+02  0.84199384908E+02  0.90075862233E+02  0.47000000000E+01 0. -1.
        -13    1    4    4    0    0 -0.18327518893E+02  0.44795280116E+02  0.15576171265E+03  0.16310802002E+03  0.00000000000E+00 0.  1.
         14    1    4    4    0    0  0.18652766905E+01  0.85398708906E+02  0.88138611308E+03  0.88551561198E+03  0.00000000000E+00 0. -1.
         -5    1    5    5    0  502  0.16159942437E+02 -0.11219204349E+03  0.15482365743E+04  0.15523874447E+04  0.47000000000E+01 0.  1.
         11    1    6    6    0    0  0.28273383262E+01  0.28082606563E+02  0.61632745170E+03  0.61697338221E+03  0.00000000000E+00 0. -1.
        -12    1    6    6    0    0  0.22984393231E+01 -0.14799274420E+02  0.22357833224E+02  0.26910482217E+02  0.00000000000E+00 0.  1.
</event>
<event>
12    1  0.8526130E-002  0.2926739E+03  0.7818608E-02  0.1089269E+00
         21   -1    0    0  501  502  0.00000000000E+00  0.00000000000E+00  0.30136286260E+03  0.30136286260E+03  0.00000000000E+00 0. -1.
         21   -1    0    0  502  503 -0.00000000000E+00 -0.00000000000E+00 -0.48489701993E+03  0.48489701993E+03  0.00000000000E+00 0. -1.
         -6    2    1    2    0  503 -0.10622874407E+03 -0.20811898950E+03  0.16279509329E+03  0.33282632690E+03  0.17225870550E+03 0.  0.
        -24    2    3    3    0    0 -0.18837323410E+02 -0.10869663558E+03  0.17797073766E+02  0.13643747658E+03  0.78285668172E+02 0.  0.
          6    2    1    2  501    0  0.10622874407E+03  0.20811898950E+03 -0.34632925063E+03  0.45343355563E+03  0.17623841712E+03 0.  0.
         24    2    5    5    0    0  0.13366270775E+03  0.18894380007E+03 -0.24447661913E+03  0.34611925651E+03  0.80400518647E+02 0.  0.
          5    1    5    5  501    0 -0.27433963675E+02  0.19175189437E+02 -0.10185263149E+03  0.10731429912E+03  0.47000000000E+01 0. -1.
        -13    1    6    6    0    0  0.59061891666E+02  0.23688604530E+02 -0.60158821073E+02  0.87570204891E+02  0.00000000000E+00 0.  1.
         14    1    6    6    0    0  0.74600816080E+02  0.16525519553E+03 -0.18431779806E+03  0.25854905162E+03  0.00000000000E+00 0. -1.
         -5    1    3    3    0  503 -0.87391420662E+02 -0.99422353917E+02  0.14499801953E+03  0.19638885032E+03  0.47000000000E+01 0.  1.
         13    1    4    4    0    0 -0.44812047100E+02 -0.64389987839E+02 -0.81953956396E+01  0.78875564079E+02  0.00000000000E+00 0. -1.
        -14    1    4    4    0    0  0.25974723691E+02 -0.44306647746E+02  0.25992469406E+02  0.57561912504E+02  0.00000000000E+00 0.  1.
</event>
<event>
12    1  0.8526130E-002  0.1828900E+03  0.7818608E-02  0.1165228E+00
         21   -1    0    0  501  502  0.00000000000E+00  0.00000000000E+00  0.57861797110E+03  0.57861797110E+03  0.00000000000E+00 0. -1.
         21   -1    0    0  502  503 -0.00000000000E+00 -0.00000000000E+00 -0.75084417513E+02  0.75084417513E+02  0.00000000000E+00 0.  1.
         -6    2    1    2    0  503 -0.55905078155E+02  0.10789635990E+02  0.93397194869E+02  0.20463604924E+03  0.17294820794E+03 0.  0.
        -24    2    3    3    0    0 -0.96597273351E+02  0.28271026397E+00  0.32140286200E+02  0.13019984099E+03  0.81165802244E+02 0.  0.
          6    2    1    2  501    0  0.55905078155E+02 -0.10789635990E+02  0.41013635872E+03  0.44906633937E+03  0.17380146837E+03 0.  0.
         24    2    5    5    0    0  0.21992525541E+02 -0.53825457987E+02  0.36429835222E+03  0.37747474742E+03  0.79956515660E+02 0.  0.
          5    1    5    5  501    0  0.33912552614E+02  0.43035821997E+02  0.45838006492E+02  0.71591591957E+02  0.47000000000E+01 0. -1.
        -11    1    6    6    0    0  0.34567105470E+02  0.20108113781E+01  0.75523947333E+02  0.83083059427E+02  0.00000000000E+00 0.  1.
         12    1    6    6    0    0 -0.12574579928E+02 -0.55836269366E+02  0.28877440489E+03  0.29439168799E+03  0.00000000000E+00 0. -1.
         -5    1    3    3    0  503  0.40692195195E+02  0.10506925726E+02  0.61256908669E+02  0.74436208244E+02  0.47000000000E+01 0.  1.
         11    1    4    4    0    0 -0.47334690061E+02 -0.16559216065E+01  0.57714149398E+02  0.74660819713E+02  0.00000000000E+00 0. -1.
        -12    1    4    4    0    0 -0.49262583290E+02  0.19386318705E+01 -0.25573863198E+02  0.55539021280E+02  0.00000000000E+00 0.  1.
</event>
<event>
12    1  0.8526130E-002  0.1939906E+03  0.7818608E-02  0.1155418E+00
         21   -1    0    0  503  502  0.00000000000E+00  0.00000000000E+00  0.75920690630E+02  0.75920690630E+02  0.00000000000E+00 0. -1.
         21   -1    0    0  501  503 -0.00000000000E+00 -0.00000000000E+00 -0.49360732096E+03  0.49360732096E+03  0.00000000000E+00 0. -1.
          6    2    1    2  501    0 -0.34415229346E+01 -0.84905982675E+02 -0.23253672017E+03  0.30136229125E+03  0.17182850283E+03 0.  0.
         24    2    3    3    0    0 -0.26384353292E+02 -0.11855592610E+02 -0.20081296461E+03  0.21834892112E+03  0.80707592107E+02 0.  0.
         -6    2    1    2    0  502  0.34415229346E+01  0.84905982675E+02 -0.18514991016E+03  0.26816572034E+03  0.17438891697E+03 0.  0.
        -24    2    5    5    0    0 -0.10410289445E+02 -0.23195577951E+02 -0.84747241120E+02  0.11990714195E+03  0.80927244181E+02 0.  0.
          5    1    3    3  501    0  0.22942830358E+02 -0.73050390065E+02 -0.31723755564E+02  0.83013370132E+02  0.47000000000E+01 0. -1.
        -11    1    4    4    0    0 -0.60898120318E+01 -0.45761102232E+02 -0.11207817018E+03  0.12121336774E+03  0.00000000000E+00 0.  1.
         12    1    4    4    0    0 -0.20294541260E+02  0.33905509622E+02 -0.88734794426E+02  0.97135553376E+02  0.00000000000E+00 0. -1.
         -5    1    5    5    0  502  0.13851812380E+02  0.10810156063E+03 -0.10040266904E+03  0.14825857839E+03  0.47000000000E+01 0.  1.
         13    1    6    6    0    0  0.22096520754E+02  0.54921026265E+01 -0.70788614937E+02  0.74360254340E+02  0.00000000000E+00 0. -1.
        -14    1    6    6    0    0 -0.32506810199E+02 -0.28687680578E+02 -0.13958626183E+02  0.45546887613E+02  0.00000000000E+00 0.  1.
</event>
<event>
12    1  0.8526130E-002  0.1916922E+03  0.7818608E-02  0.1157009E+00
         21   -1    0    0  501  502  0.00000000000E+00  0.00000000000E+00  0.26219737299E+03  0.26219737299E+03  0.00000000000E+00 0.  1.
         21   -1    0    0  502  503 -0.00000000000E+00 -0.00000000000E+00 -0.16016667730E+03  0.16016667730E+03  0.00000000000E+00 0.  1.
         -6    2    1    2    0  503 -0.39155541099E+02 -0.74076146649E+02 -0.24011494253E+02  0.19319015778E+03  0.17241071111E+03 0.  0.
        -24    2    3    3    0    0  0.41038363182E+02 -0.62765429277E+02 -0.12740013982E+02  0.11128697787E+03  0.81233226718E+02 0.  0.
          6    2    1    2  501    0  0.39155541099E+02  0.74076146649E+02  0.12604218994E+03  0.22917389251E+03  0.17208604668E+03 0.  0.
         24    2    5    5    0    0  0.61556930187E+02  0.28941362697E+02  0.14247803239E+03  0.17596489071E+03  0.77696814088E+02 0.  0.
          5    1    5    5  501    0 -0.22401389087E+02  0.45134783953E+02 -0.16435842453E+02  0.53209001801E+02  0.47000000000E+01 0. -1.
        -11    1    6    6    0    0  0.41885686125E+01  0.31970326349E+02  0.98420559762E+02  0.10356762263E+03  0.00000000000E+00 0.  1.
         12    1    6    6    0    0  0.57368361574E+02 -0.30289636518E+01  0.44057472629E+02  0.72397268077E+02  0.00000000000E+00 0. -1.
         -5    1    3    3    0  503 -0.80193904281E+02 -0.11310717372E+02 -0.11271480271E+02  0.81903179907E+02  0.47000000000E+01 0.  1.
         11    1    4    4    0    0  0.12734873839E+02  0.80779196066E+01  0.22632948356E+02  0.27197061388E+02  0.00000000000E+00 0. -1.
        -12    1    4    4    0    0  0.28303489343E+02 -0.70843348884E+02 -0.35372962338E+02  0.84089916486E+02  0.00000000000E+00 0.  1.
</event>
<event>
12    1  0.8526130E-002  0.1832095E+03  0.7818608E-02  0.1165266E+00
         21   -1    0    0  501  502  0.00000000000E+00  0.00000000000E+00  0.61817104132E+03  0.61817104132E+03  0.00000000000E+00 0. -1.
         21   -1    0    0  502  503 -0.00000000000E+00 -0.00000000000E+00 -0.86200881601E+02  0.86200881601E+02  0.00000000000E+00 0. -1.
         -6    2    1    2    0  503 -0.61487282046E+02  0.12690985457E+02  0.48502283041E+02  0.18735459524E+03  0.16972779953E+03 0.  0.
        -24    2    3    3    0    0  0.36870580993E+01 -0.17518512050E+02  0.74523655218E+02  0.11080715790E+03  0.80024736137E+02 0.  0.
          6    2    1    2  501    0  0.61487282046E+02 -0.12690985457E+02  0.48346787668E+03  0.51701732768E+03  0.17211618859E+03 0.  0.
         24    2    5    5    0    0  0.84068178256E+02  0.29789147646E+02  0.23447532650E+03  0.26337616653E+03  0.80208942452E+02 0.  0.
          5    1    5    5  501    0 -0.22580896210E+02 -0.42480133103E+02  0.24899255018E+03  0.25364116115E+03  0.47000000000E+01 0. -1.
        -13    1    6    6    0    0  0.32206364250E+02  0.40924585329E+02  0.17983481818E+03  0.18722348520E+03  0.00000000000E+00 0.  1.
         14    1    6    6    0    0  0.51861814006E+02 -0.11135437684E+02  0.54640508319E+02  0.76152681330E+02  0.00000000000E+00 0. -1.
         -5    1    3    3    0  503 -0.65174340145E+02  0.30209497507E+02 -0.26021372177E+02  0.76547437338E+02  0.47000000000E+01 0.  1.
         13    1    4    4    0    0  0.18373830511E+02  0.28193294392E+02  0.25819293927E+02  0.42415745133E+02  0.00000000000E+00 0. -1.
        -14    1    4    4    0    0 -0.14686772412E+02 -0.45711806441E+02  0.48704361292E+02  0.68391412771E+02  0.00000000000E+00 0.  1.
</event>
<event>
12    1  0.8526130E-002  0.1744589E+03  0.7818608E-02  0.1173459E+00
         21   -1    0    0  503  502  0.00000000000E+00  0.00000000000E+00  0.57763448612E+03  0.57763448612E+03  0.00000000000E+00 0. -1.
         21   -1    0    0  501  503 -0.00000000000E+00 -0.00000000000E+00 -0.59904751073E+02  0.59904751073E+02  0.00000000000E+00 0. -1.
          6    2    1    2  501    0  0.22873547981E+02 -0.14844920136E+02  0.14610864139E+03  0.22700525094E+03  0.17158111206E+03 0.  0.
         24    2    3    3    0    0 -0.34356252638E+02 -0.51078948505E+02  0.67243168758E+02  0.12293792819E+03  0.82478356965E+02 0.  0.
         -6    2    1    2    0  502 -0.22873547981E+02  0.14844920136E+02  0.37162109366E+03  0.41053398625E+03  0.17231467078E+03 0.  0.
        -24    2    5    5    0    0  0.36297772537E+02  0.41935428730E+02  0.29223083770E+03  0.30777191363E+03  0.79047959150E+02 0.  0.
          5    1    3    3  501    0  0.57229800620E+02  0.36234028370E+02  0.78865472631E+02  0.10406732275E+03  0.47000000000E+01 0. -1.
        -13    1    4    4    0    0 -0.50608948740E+01  0.16079116961E+02  0.42306604766E+02  0.45541184284E+02  0.00000000000E+00 0.  1.
         14    1    4    4    0    0 -0.29295357764E+02 -0.67158065466E+02  0.24936563993E+02  0.77396743907E+02  0.00000000000E+00 0. -1.
         -5    1    5    5    0  502 -0.59171320519E+02 -0.27090508594E+02  0.79390255963E+02  0.10276207262E+03  0.47000000000E+01 0.  1.
         13    1    6    6    0    0  0.20746763635E+02  0.16761021542E+02  0.26855347903E+03  0.26987465821E+03  0.00000000000E+00 0. -1.
        -14    1    6    6    0    0  0.15551008902E+02  0.25174407188E+02  0.23677358667E+02  0.37897255423E+02  0.00000000000E+00 0.  1.
</event>
<event>
12    1  0.8526130E-002  0.2083352E+03  0.7818608E-02  0.1142933E+00
         21   -1    0    0  501  502  0.00000000000E+00  0.00000000000E+00  0.38084098471E+03  0.38084098471E+03  0.00000000000E+00 0.  1.
         21   -1    0    0  502  503 -0.00000000000E+00 -0.00000000000E+00 -0.13519412335E+03  0.13519412335E+03  0.00000000000E+00 0.  1.
         -6    2    1    2    0  503  0.99952914360E+02 -0.61055336249E+02  0.20260465308E+02  0.20911069167E+03  0.17204201738E+03 0.  0.
        -24    2    3    3    0    0  0.13030158918E+03 -0.74437084439E+02  0.32628576344E+02  0.17340112127E+03  0.80522923321E+02 0.  0.
          6    2    1    2  501    0 -0.99952914360E+02  0.61055336249E+02  0.22538639605E+03  0.30692441639E+03  0.17229402392E+03 0.  0.
         24    2    5    5    0    0 -0.82786674114E+02 -0.13946344281E+02  0.18750260230E+03  0.22103376663E+03  0.81551003630E+02 0.  0.
          5    1    5    5  501    0 -0.17166240246E+02  0.75001680530E+02  0.37883793747E+02  0.85890649754E+02  0.47000000000E+01 0. -1.
        -13    1    6    6    0    0 -0.64027034499E+02  0.24350634061E+02  0.79641830941E+02  0.10504873041E+03  0.00000000000E+00 0.  1.
         14    1    6    6    0    0 -0.18759639615E+02 -0.38296978342E+02  0.10786077136E+03  0.11598503622E+03  0.00000000000E+00 0. -1.
         -5    1    3    3    0  503 -0.30348674820E+02  0.13381748190E+02 -0.12368111036E+02  0.35709570405E+02  0.47000000000E+01 0.  1.
         11    1    4    4    0    0  0.55097011653E+02 -0.58370585485E+02  0.49993940991E+02  0.94563206791E+02  0.00000000000E+00 0. -1.
        -12    1    4    4    0    0  0.75204577528E+02 -0.16066498954E+02 -0.17365364647E+02  0.78837914477E+02  0.00000000000E+00 0.  1.
</event>
<event>
12    1  0.8526130E-002  0.2738997E+03  0.7818608E-02  0.1100359E+00
         21   -1    0    0  501  502  0.00000000000E+00  0.00000000000E+00  0.17713383134E+04  0.17713383134E+04  0.00000000000E+00 0.  1.
         21   -1    0    0  502  503 -0.00000000000E+00 -0.00000000000E+00 -0.12924680073E+03  0.12924680073E+03  0.00000000000E+00 0.  1.
         -6    2    1    2    0  503 -0.20114892949E+03 -0.20340231718E+02  0.40071405853E+02  0.27681536870E+03  0.18478748313E+03 0.  0.
        -24    2    3    3    0    0 -0.52520371338E+02  0.48638256840E+01 -0.46577812597E+02  0.10287322353E+03  0.75042396599E+02 0.  0.
          6    2    1    2  501    0  0.20114892949E+03  0.20340231718E+02  0.16020201068E+04  0.16237697455E+04  0.17112903518E+03 0.  0.
         24    2    5    5    0    0  0.15501498522E+03 -0.45589729579E+02  0.12615746915E+04  0.12739122439E+04  0.71927975713E+02 0.  0.
          5    1    5    5  501    0  0.46133944271E+02  0.65929961297E+02  0.34044541531E+03  0.34985750158E+03  0.47000000000E+01 0. -1.
        -13    1    6    6    0    0  0.12975464149E+03 -0.28344303325E+02  0.76869017978E+03  0.78007964915E+03  0.00000000000E+00 0.  1.
         14    1    6    6    0    0  0.25260343736E+02 -0.17245426254E+02  0.49288451175E+03  0.49383259473E+03  0.00000000000E+00 0. -1.
         -5    1    3    3    0  503 -0.14862855816E+03 -0.25204057402E+02  0.86649218450E+02  0.17394214517E+03  0.47000000000E+01 0.  1.
         13    1    4    4    0    0 -0.58632898586E+02  0.26610239993E+02 -0.47890440923E+02  0.80245971867E+02  0.00000000000E+00 0. -1.
        -14    1    4    4    0    0  0.61125272484E+01 -0.21746414309E+02  0.13126283254E+01  0.22627251663E+02  0.00000000000E+00 0.  1.
</event>
<event>
12    1  0.8526130E-002  0.2277170E+03  0.7818608E-02  0.1129026E+00
         21   -1    0    0  501  502  0.00000000000E+00  0.00000000000E+00  0.60292622840E+03  0.60292622840E+03  0.00000000000E+00 0. -1.
         21   -1    0    0  502  503 -0.00000000000E+00 -0.00000000000E+00 -0.84525604505E+02  0.84525604505E+02  0.00000000000E+00 0. -1.
         -6    2    1    2    0  503 -0.13044985770E+03  0.59858458882E+02  0.26998435432E+03  0.35045679825E+03  0.17125482588E+03 0.  0.
        -24    2    3    3    0    0 -0.11318029949E+03  0.10554028282E+03  0.21545928771E+03  0.27710736357E+03  0.80107769863E+02 0.  0.
          6    2    1    2  501    0  0.13044985770E+03 -0.59858458882E+02  0.24841626957E+03  0.33699503465E+03  0.17679029929E+03 0.  0.
         24    2    5    5    0    0  0.18980893324E+02  0.29041655848E+02  0.13374058199E+03  0.15396180341E+03  0.67926442221E+02 0.  0.
          5    1    5    5  501    0  0.11146896437E+03 -0.88900114729E+02  0.11467568758E+03  0.18303323124E+03  0.47000000000E+01 0. -1.
        -11    1    6    6    0    0 -0.12474141591E+02 -0.15508698992E+01 -0.65244204865E+00  0.12587100004E+02  0.00000000000E+00 0.  1.
         12    1    6    6    0    0  0.31455034916E+02  0.30592525747E+02  0.13439302404E+03  0.14137470341E+03  0.00000000000E+00 0. -1.
         -5    1    3    3    0  503 -0.17269558206E+02 -0.45681823938E+02  0.54525066615E+02  0.73349434682E+02  0.47000000000E+01 0.  1.
         13    1    4    4    0    0 -0.98115319479E+02  0.72796570085E+02  0.10559376671E+03  0.16148064931E+03  0.00000000000E+00 0. -1.
        -14    1    4    4    0    0 -0.15064980012E+02  0.32743712734E+02  0.10986552099E+03  0.11562671426E+03  0.00000000000E+00 0.  1.
</event>
<event>
12    1  0.8526130E-002  0.2307332E+03  0.7818608E-02  0.1126361E+00
         21   -1    0    0  501  502  0.00000000000E+00  0.00000000000E+00  0.30920215172E+03  0.30920215172E+03  0.00000000000E+00 0.  1.
         21   -1    0    0  502  503 -0.00000000000E+00 -0.00000000000E+00 -0.19609269516E+03  0.19609269516E+03  0.00000000000E+00 0. -1.
         -6    2    1    2    0  503 -0.11789841473E+03  0.95173313605E+02 -0.33649875428E+02  0.23184260825E+03  0.17222277743E+03 0.  0.
        -24    2    3    3    0    0 -0.14420972483E+03  0.91155430798E+02 -0.60971940989E+02  0.19341067247E+03  0.67707852832E+02 0.  0.
          6    2    1    2  501    0  0.11789841473E+03 -0.95173313605E+02  0.14675933199E+03  0.27345223863E+03  0.17401100386E+03 0.  0.
         24    2    5    5    0    0  0.11121126267E+03 -0.11988365396E+03  0.74493962251E+02  0.19664278226E+03  0.79868629455E+02 0.  0.
          5    1    5    5  501    0  0.66871520659E+01  0.24710340360E+02  0.72265369742E+02  0.76809456367E+02  0.47000000000E+01 0. -1.
        -11    1    6    6    0    0  0.15183010564E+02 -0.44546625418E+02  0.56074534374E+02  0.73207097000E+02  0.00000000000E+00 0.  1.
         12    1    6    6    0    0  0.96028252103E+02 -0.75337028546E+02  0.18419427877E+02  0.12343568526E+03  0.00000000000E+00 0. -1.
         -5    1    3    3    0  503  0.26311310102E+02  0.40178828070E+01  0.27322065561E+02  0.38431935783E+02  0.47000000000E+01 0.  1.
         11    1    4    4    0    0 -0.51025940212E+01  0.43470755453E+00 -0.22315646543E+02  0.22895709577E+02  0.00000000000E+00 0. -1.
        -12    1    4    4    0    0 -0.13910713081E+03  0.90720723243E+02 -0.38656294446E+02  0.17051496289E+03  0.00000000000E+00 0.  1.
</event>
<event>
12    1  0.8526130E-002  0.1742299E+03  0.7818608E-02  0.1176045E+00
         21   -1    0    0  503  502  0.00000000000E+00  0.00000000000E+00  0.18308734626E+02  0.18308734626E+02  0.00000000000E+00 0.  1.
         21   -1    0    0  501  503 -0.00000000000E+00 -0.00000000000E+00 -0.20170917436E+04  0.20170917436E+04  0.00000000000E+00 0. -1.
          6    2    1    2  501    0 -0.12425339944E+02 -0.26328209843E+02 -0.15025403903E+04  0.15126082334E+04  0.17178032302E+03 0.  0.
         24    2    3    3    0    0  0.78833719064E+01 -0.80408719467E+02 -0.11176634794E+04  0.11233917488E+04  0.79433357939E+02 0.  0.
         -6    2    1    2    0  502  0.12425339944E+02  0.26328209843E+02 -0.49624261859E+03  0.52279224481E+03  0.16188709342E+03 0.  0.
        -24    2    5    5    0    0 -0.22656812615E+02 -0.15735481077E+02 -0.15470804873E+03  0.17686152352E+03  0.81144818909E+02 0.  0.
          5    1    3    3  501    0 -0.20308711851E+02  0.54080509623E+02 -0.38487691090E+03  0.38921648455E+03  0.47000000000E+01 0. -1.
        -13    1    4    4    0    0 -0.33990072094E+02 -0.19679941877E+02 -0.42535299647E+03  0.42716249451E+03  0.00000000000E+00 0.  1.
         14    1    4    4    0    0  0.41873444000E+02 -0.60728777589E+02 -0.69231048296E+03  0.69622925431E+03  0.00000000000E+00 0. -1.
         -5    1    5    5    0  502  0.35082152559E+02  0.42063690920E+02 -0.34153456986E+03  0.34593072129E+03  0.47000000000E+01 0.  1.
         13    1    6    6    0    0 -0.52267842949E+02 -0.21286992358E+01 -0.10676656803E+03  0.11889305621E+03  0.00000000000E+00 0. -1.
        -14    1    6    6    0    0  0.29611030335E+02 -0.13606781841E+02 -0.47941480703E+02  0.57968467304E+02  0.00000000000E+00 0.  1.
</event>
<event>
12    1  0.8526130E-002  0.3284812E+03  0.7818608E-02  0.1071881E+00
         21   -1    0    0  503  502  0.00000000000E+00  0.00000000000E+00  0.20646097036E+04  0.20646097036E+04  0.00000000000E+00 0.  1.
         21   -1    0    0  501  503 -0.00000000000E+00 -0.00000000000E+00 -0.72825250589E+02  0.72825250589E+02  0.00000000000E+00 0. -1.
          6    2    1    2  501    0  0.26141570674E+03 -0.98389642485E+02  0.42592265973E+03  0.53749025333E+03  0.17165945031E+03 0.  0.
         24    2    3    3    0    0  0.91864118850E+02 -0.97565283083E+00  0.22778104301E+03  0.25906716411E+03  0.82411308302E+02 0.  0.
         -6    2    1    2    0  502 -0.26141570674E+03  0.98389642485E+02  0.15658617933E+04  0.15999447009E+04  0.17286178481E+03 0.  0.
        -24    2    5    5    0    0 -0.26036231863E+03  0.59173983658E+02  0.12197868834E+04  0.12516217031E+04  0.85946200720E+02 0.  0.
          5    1    3    3  501    0  0.16955158789E+03 -0.97413989654E+02  0.19814161672E+03  0.27842308922E+03  0.47000000000E+01 0. -1.
        -11    1    4    4    0    0  0.52075816986E+01 -0.59705057070E+01 -0.58398985276E+01  0.98422690655E+01  0.00000000000E+00 0.  1.
         12    1    4    4    0    0  0.86656537151E+02  0.49948528761E+01  0.23362094153E+03  0.24922489504E+03  0.00000000000E+00 0. -1.
         -5    1    5    5    0  502 -0.10533881171E+01  0.39215658827E+02  0.34607490988E+03  0.34832299777E+03  0.47000000000E+01 0.  1.
         11    1    6    6    0    0 -0.78520507232E+02  0.17078052988E+02  0.21246355980E+03  0.22715169864E+03  0.00000000000E+00 0. -1.
        -12    1    6    6    0    0 -0.18184181139E+03  0.42095930670E+02  0.10073233236E+04  0.10244700045E+04  0.00000000000E+00 0.  1.
</event>
<event>
12    1  0.8526130E-002  0.2128598E+03  0.7818608E-02  0.1139325E+00
         21   -1    0    0  501  502  0.00000000000E+00  0.00000000000E+00  0.22145479090E+03  0.22145479090E+03  0.00000000000E+00 0. -1.
         21   -1    0    0  502  503 -0.00000000000E+00 -0.00000000000E+00 -0.26873030936E+03  0.26873030936E+03  0.00000000000E+00 0.  1.
         -6    2    1    2    0  503  0.10597565315E+03 -0.66080772907E+02 -0.14338449145E+03  0.25663378095E+03  0.17234928932E+03 0.  0.
        -24    2    3    3    0    0  0.89865170949E+02  0.18672520950E+02 -0.52372153768E+02  0.13114272921E+03  0.77660549485E+02 0.  0.
          6    2    1    2  501    0 -0.10597565315E+03  0.66080772907E+02  0.96108972990E+02  0.23355131931E+03  0.17237104297E+03 0.  0.
         24    2    5    5    0    0 -0.53318689998E+02  0.10859643748E+03  0.55817187010E+02  0.15464722867E+03  0.78512024775E+02 0.  0.
          5    1    5    5  501    0 -0.52656963149E+02 -0.42515664571E+02  0.40291785980E+02  0.78904090638E+02  0.47000000000E+01 0. -1.
        -11    1    6    6    0    0  0.13819043768E+02  0.54170396028E+01 -0.70405207349E+01  0.16428001124E+02  0.00000000000E+00 0.  1.
         12    1    6    6    0    0 -0.67137733765E+02  0.10317939787E+03  0.62857707745E+02  0.13821922755E+03  0.00000000000E+00 0. -1.
         -5    1    3    3    0  503  0.16110482198E+02 -0.84753293857E+02 -0.91012337687E+02  0.12549105174E+03  0.47000000000E+01 0.  1.
         13    1    4    4    0    0  0.12655200686E+02  0.14243324086E+02  0.18271000651E+02  0.26398027392E+02  0.00000000000E+00 0. -1.
        -14    1    4    4    0    0  0.77209970263E+02  0.44291968645E+01 -0.70643154419E+02  0.10474470182E+03  0.00000000000E+00 0.  1.
</event>
<event>
12    1  0.8526130E-002  0.2169928E+03  0.7818608E-02  0.1136353E+00
         21   -1    0    0  503  502  0.00000000000E+00  0.00000000000E+00  0.20141323254E+03  0.20141323254E+03  0.00000000000E+00 0. -1.
         21   -1    0    0  501  503 -0.00000000000E+00 -0.00000000000E+00 -0.30250838037E+03  0.30250838037E+03  0.00000000000E+00 0.  1.
          6    2    1    2  501    0  0.65312831769E+02  0.11384411953E+03 -0.17176787662E+03  0.27674913970E+03  0.17279940203E+03 0.  0.
         24    2    3    3    0    0  0.70370872893E+01 -0.63835151853E+01 -0.89969922346E+02  0.12002089761E+03  0.78867985097E+02 0.  0.
         -6    2    1    2    0  502 -0.65312831769E+02 -0.11384411953E+03  0.70672728791E+02  0.22717247320E+03  0.17142476029E+03 0.  0.
        -24    2    5    5    0    0 -0.78376526825E+02 -0.14189976815E+03  0.42616402472E+02  0.18513645300E+03  0.78618854671E+02 0.  0.
          5    1    3    3  501    0  0.58275744479E+02  0.12022763472E+03 -0.81797954274E+02  0.15672824209E+03  0.47000000000E+01 0. -1.
        -13    1    4    4    0    0  0.93247242123E+01  0.13792124339E+02 -0.97087526894E+02  0.98504624530E+02  0.00000000000E+00 0.  1.
         14    1    4    4    0    0 -0.22876369230E+01 -0.20175639524E+02  0.71176045480E+01  0.21516273083E+02  0.00000000000E+00 0. -1.
         -5    1    5    5    0  502  0.13063695056E+02  0.28055648621E+02  0.28056326318E+02  0.42036020204E+02  0.47000000000E+01 0.  1.
         13    1    6    6    0    0 -0.52310669200E+02 -0.80110321325E+02  0.63577492337E+02  0.11487457172E+03  0.00000000000E+00 0. -1.
        -14    1    6    6    0    0 -0.26065857624E+02 -0.61789446827E+02 -0.20961089864E+02  0.70261881281E+02  0.00000000000E+00 0.  1.
</event>
<event>
12    1  0.8526130E-002  0.1826323E+03  0.7818608E-02  0.1165356E+00
         21   -1    0    0  501  502  0.00000000000E+00  0.00000000000E+00  0.11655596880E+03  0.11655596880E+03  0.00000000000E+00 0. -1.
         21   -1    0    0  502  503 -0.00000000000E+00 -0.00000000000E+00 -0.34379713794E+03  0.34379713794E+03  0.00000000000E+00 0. -1.
         -6    2    1    2    0  503  0.57206409143E+02  0.19902838773E+02 -0.20835287674E+03  0.27706584419E+03  0.17229586336E+03 0.  0.
        -24    2    3    3    0    0  0.87833968942E+02  0.41926597982E+02 -0.20096605808E+03  0.23833925799E+03  0.83340264452E+02 0.  0.
          6    2    1    2  501    0 -0.57206409143E+02 -0.19902838773E+02 -0.18888292404E+02  0.18328726255E+03  0.17195568262E+03 0.  0.
         24    2    5    5    0    0 -0.91130588136E+02 -0.41959492654E+02 -0.43076710749E+02  0.13591094481E+03  0.80937005084E+02 0.  0.
          5    1    5    5  501    0  0.33924178993E+02  0.22056653881E+02  0.24188418345E+02  0.47376317742E+02  0.47000000000E+01 0. -1.
        -13    1    6    6    0    0 -0.63633503107E+02 -0.58661000013E+02 -0.59015239921E+01  0.86747700981E+02  0.00000000000E+00 0.  1.
         14    1    6    6    0    0 -0.27497085029E+02  0.16701507359E+02 -0.37175186757E+02  0.49163243827E+02  0.00000000000E+00 0. -1.
         -5    1    3    3    0  503 -0.30627559799E+02 -0.22023759209E+02 -0.73868186640E+01  0.38726586202E+02  0.47000000000E+01 0.  1.
         11    1    4    4    0    0  0.70296730256E+02 -0.76869446304E+01 -0.82165818147E+02  0.10840637008E+03  0.00000000000E+00 0. -1.
        -12    1    4    4    0    0  0.17537238686E+02  0.49613542612E+02 -0.11880023993E+03  0.12993288791E+03  0.00000000000E+00 0.  1.
</event>
<event>
12    1  0.8526130E-002  0.2077368E+03  0.7818608E-02  0.1143631E+00
         21   -1    0    0  501  502  0.00000000000E+00  0.00000000000E+00  0.11076428918E+04  0.11076428918E+04  0.00000000000E+00 0. -1.
         21   -1    0    0  502  503 -0.00000000000E+00 -0.00000000000E+00 -0.83460043378E+02  0.83460043378E+02  0.00000000000E+00 0.  1.
         -6    2    1    2    0  503 -0.11408128480E+03 -0.20479377754E+02  0.75302527032E+02  0.21974902138E+03  0.17083681502E+03 0.  0.
        -24    2    3    3    0    0 -0.23347706650E+02 -0.50364377983E+02  0.17009312990E+02  0.10774060988E+03  0.90758119826E+02 0.  0.
          6    2    1    2  501    0  0.11408128480E+03  0.20479377754E+02  0.94888032141E+03  0.97135391382E+03  0.17239668523E+03 0.  0.
         24    2    5    5    0    0  0.31563022783E+02  0.61941651150E+02  0.63825063239E+03  0.64725319278E+03  0.82096487476E+02 0.  0.
          5    1    5    5  501    0  0.82518262014E+02 -0.41462273396E+02  0.31062968902E+03  0.32410072104E+03  0.47000000000E+01 0. -1.
        -13    1    6    6    0    0 -0.29211604808E+00 -0.99516291055E+01  0.10036873873E+02  0.14137152853E+02  0.00000000000E+00 0.  1.
         14    1    6    6    0    0  0.31855138831E+02  0.71893280256E+02  0.62821375852E+03  0.63311603992E+03  0.00000000000E+00 0. -1.
         -5    1    3    3    0  503 -0.90733578147E+02  0.29885000229E+02  0.58293214042E+02  0.11200841149E+03  0.47000000000E+01 0.  1.
         11    1    4    4    0    0  0.19090996304E+02  0.82117587904E+01  0.27691065525E+02  0.34622163888E+02  0.00000000000E+00 0. -1.
        -12    1    4    4    0    0 -0.42438702954E+02 -0.58576136773E+02 -0.10681752535E+02  0.73118445996E+02  0.00000000000E+00 0.  1.
</event>
<event>
12    1  0.8526130E-002  0.2562220E+03  0.7818608E-02  0.1109530E+00
         21   -1    0    0  501  502  0.00000000000E+00  0.00000000000E+00  0.20318715217E+03  0.20318715217E+03  0.00000000000E+00 0. -1.
         21   -1    0    0  502  503 -0.00000000000E+00 -0.00000000000E+00 -0.33284787377E+03  0.33284787377E+03  0.00000000000E+00 0.  1.
         -6    2    1    2    0  503 -0.42109791391E+02  0.18450148060E+03 -0.17076405710E+02  0.25616911979E+03  0.17180507394E+03 0.  0.
        -24    2    3    3    0    0  0.11303914371E+02  0.17415520613E+03  0.14502165100E+02  0.19308690762E+03  0.81329126383E+02 0.  0.
          6    2    1    2  501    0  0.42109791391E+02 -0.18450148060E+03 -0.11258431588E+03  0.27986590615E+03  0.17273003898E+03 0.  0.
         24    2    5    5    0    0  0.34818018389E+02 -0.64584691968E+02 -0.11439151355E+03  0.15962214493E+03  0.83727736959E+02 0.  0.
          5    1    5    5  501    0  0.72917730018E+01 -0.11991678863E+03  0.18071976732E+01  0.12024376122E+03  0.47000000000E+01 0. -1.
        -11    1    6    6    0    0  0.31388432942E+02 -0.80561503950E+02 -0.66668708215E+02  0.10917923931E+03  0.00000000000E+00 0.  1.
         12    1    6    6    0    0  0.34295854467E+01  0.15976811982E+02 -0.47722805340E+02  0.50442905616E+02  0.00000000000E+00 0. -1.
         -5    1    3    3    0  503 -0.53413705761E+02  0.10346274466E+02 -0.31578570810E+02  0.63082212175E+02  0.47000000000E+01 0.  1.
         13    1    4    4    0    0 -0.32931701668E+02  0.10825271315E+03  0.98388816595E+01  0.11357794888E+03  0.00000000000E+00 0. -1.
        -14    1    4    4    0    0  0.44235616039E+02  0.65902492983E+02  0.46632834405E+01  0.79508958741E+02  0.00000000000E+00 0.  1.
</event>
<event>
12    1  0.8526130E-002  0.3564361E+03  0.7818608E-02  0.1060069E+00
         21   -1    0    0  501  502  0.00000000000E+00  0.00000000000E+00  0.50631094378E+03  0.50631094378E+03  0.00000000000E+00 0. -1.
         21   -1    0    0  502  503 -0.00000000000E+00 -0.00000000000E+00 -0.26508354110E+03  0.26508354110E+03  0.00000000000E+00 0. -1.
         -6    2    1    2    0  503  0.15012962902E+03 -0.27215156105E+03  0.29947119069E+02  0.35704435357E+03  0.17314289701E+03 0.  0.
        -24    2    3    3    0    0  0.13244946476E+03 -0.23575163060E+03  0.77659612568E+02  0.29430588706E+03  0.86390090200E+02 0.  0.
          6    2    1    2  501    0 -0.15012962902E+03  0.27215156105E+03  0.21128028361E+03  0.41435013131E+03  0.17447434018E+03 0.  0.
         24    2    5    5    0    0 -0.93103300471E+01  0.58510948363E+02  0.66109076376E+02  0.12012376308E+03  0.80926479925E+02 0.  0.
          5    1    5    5  501    0 -0.14081929897E+03  0.21364061269E+03  0.14517120723E+03  0.29422636823E+03  0.47000000000E+01 0. -1.
        -13    1    6    6    0    0 -0.16425765039E+02  0.32057243344E+02  0.81212415945E+02  0.88842158413E+02  0.00000000000E+00 0.  1.
         14    1    6    6    0    0  0.71154349921E+01  0.26453705018E+02 -0.15103339569E+02  0.31281604666E+02  0.00000000000E+00 0. -1.
         -5    1    3    3    0  503  0.17680164258E+02 -0.36399930446E+02 -0.47712493499E+02  0.62738466514E+02  0.47000000000E+01 0.  1.
         13    1    4    4    0    0  0.26755867888E+02 -0.25946585037E+02 -0.17080116017E+02  0.40997952445E+02  0.00000000000E+00 0. -1.
        -14    1    4    4    0    0  0.10569359687E+03 -0.20980504557E+03  0.94739728585E+02  0.25330793461E+03  0.00000000000E+00 0.  1.
</event>
<event>
12    1  0.8526130E-002  0.1772434E+03  0.7818608E-02  0.1171052E+00
         21   -1    0    0  501  502  0.00000000000E+00  0.00000000000E+00  0.23938019984E+03  0.23938019984E+03  0.00000000000E+00 0.  1.
         21   -1    0    0  502  503 -0.00000000000E+00 -0.00000000000E+00 -0.17672262313E+03  0.17672262313E+03  0.00000000000E+00 0.  1.
         -6    2    1    2    0  503  0.17880375746E+02 -0.36211003998E+02 -0.75968947634E+02  0.19283801990E+03  0.17258121644E+03 0.  0.
        -24    2    3    3    0    0 -0.32994733959E+02 -0.35390445263E+02 -0.99406137457E+02  0.13662110100E+03  0.80265864412E+02 0.  0.
          6    2    1    2  501    0 -0.17880375746E+02  0.36211003998E+02  0.13862652435E+03  0.22326480306E+03  0.17029067616E+03 0.  0.
         24    2    5    5    0    0 -0.75859527224E+02  0.30027822284E+02  0.10870492826E+03  0.15755935690E+03  0.79698503991E+02 0.  0.
          5    1    5    5  501    0  0.57979151478E+02  0.61831817142E+01  0.29921596087E+02  0.65705446156E+02  0.47000000000E+01 0. -1.
        -11    1    6    6    0    0 -0.50600104100E+02 -0.20634029856E+02  0.36098587709E+02  0.65492303041E+02  0.00000000000E+00 0.  1.
         12    1    6    6    0    0 -0.25259423124E+02  0.50661852141E+02  0.72606340550E+02  0.92067053863E+02  0.00000000000E+00 0. -1.
         -5    1    3    3    0  503  0.50875109706E+02 -0.82055873507E+00  0.23437189823E+02  0.56216918903E+02  0.47000000000E+01 0.  1.
         11    1    4    4    0    0 -0.30914586925E+02 -0.38122837665E+02 -0.13853848585E+02  0.50999917225E+02  0.00000000000E+00 0. -1.
        -12    1    4    4    0    0 -0.20801470344E+01  0.27323924020E+01 -0.85552288872E+02  0.85621183776E+02  0.00000000000E+00 0.  1.
</event>
<event>
12    1  0.8526130E-002  0.1964267E+03  0.7818608E-02  0.1153452E+00
         21   -1    0    0  501  502  0.00000000000E+00  0.00000000000E+00  0.22370475954E+03  0.22370475954E+03  0.00000000000E+00 0. -1.
         21   -1    0    0  502  503 -0.00000000000E+00 -0.00000000000E+00 -0.19819985241E+03  0.19819985241E+03  0.00000000000E+00 0. -1.
         -6    2    1    2    0  503  0.63521699057E+02  0.69321660914E+02 -0.67168056142E+02  0.20471407489E+03  0.16898463175E+03 0.  0.
        -24    2    3    3    0    0  0.92816941365E+02  0.85847292605E+02 -0.26642233430E+02  0.15183931691E+03  0.79753541022E+02 0.  0.
          6    2    1    2  501    0 -0.63521699057E+02 -0.69321660914E+02  0.92672963279E+02  0.21719053706E+03  0.17246145176E+03 0.  0.
         24    2    5    5    0    0 -0.14860899028E+02 -0.78711589456E+02  0.10353430286E+01  0.11290445140E+03  0.79561187627E+02 0.  0.
          5    1    5    5  501    0 -0.48660800029E+02  0.93899285421E+01  0.91637620251E+02  0.10428608566E+03  0.47000000000E+01 0. -1.
        -11    1    6    6    0    0 -0.23331521379E+02 -0.99873970757E-01 -0.20390405875E+02  0.30986101988E+02  0.00000000000E+00 0.  1.
         12    1    6    6    0    0  0.84706223509E+01 -0.78611715485E+02  0.21425748904E+02  0.81918349414E+02  0.00000000000E+00 0. -1.
         -5    1    3    3    0  503 -0.29295242308E+02 -0.16525631691E+02 -0.40525822712E+02  0.52874757977E+02  0.47000000000E+01 0.  1.
         13    1    4    4    0    0  0.63112635422E+02  0.98236490758E+01  0.55195516654E+01  0.64110640940E+02  0.00000000000E+00 0. -1.
        -14    1    4    4    0    0  0.29704305943E+02  0.76023643529E+02 -0.32161785095E+02  0.87728675970E+02  0.00000000000E+00 0.  1.
</event>
<event>
12    1  0.8526130E-002  0.1813143E+03  0.7818608E-02  0.1166582E+00
         21   -1    0    0  503  502  0.00000000000E+00  0.00000000000E+00  0.94903875538E+02  0.94903875538E+02  0.00000000000E+00 0.  1.
         21   -1    0    0  501  503 -0.00000000000E+00 -0.00000000000E+00 -0.34733123658E+03  0.34733123658E+03  0.00000000000E+00 0.  1.
          6    2    1    2  501    0 -0.25436212955E+02  0.52898336961E+02 -0.11270014989E+03  0.21332776036E+03  0.17135394531E+03 0.  0.
         24    2    3    3    0    0 -0.72346293682E+02  0.22171341869E+02 -0.37623020206E+02  0.11950148844E+03  0.84495913991E+02 0.  0.
         -6    2    1    2    0  502  0.25436212955E+02 -0.52898336961E+02 -0.13972721116E+03  0.22890735176E+03  0.17155071311E+03 0.  0.
        -24    2    5    5    0    0  0.35934869736E+02 -0.30359690893E+02 -0.52156570857E+01  0.92036388657E+02  0.78933314033E+02 0.  0.
          5    1    3    3  501    0  0.46910080726E+02  0.30726995092E+02 -0.75077129682E+02  0.93826271920E+02  0.47000000000E+01 0. -1.
        -11    1    4    4    0    0  0.88941116112E+01  0.28443344089E+02 -0.11693559246E+00  0.29801723410E+02  0.00000000000E+00 0.  1.
         12    1    4    4    0    0 -0.81240405293E+02 -0.62720022201E+01 -0.37506084613E+02  0.89699765033E+02  0.00000000000E+00 0. -1.
         -5    1    5    5    0  502 -0.10498656780E+02 -0.22538646068E+02 -0.13451155407E+03  0.13687096310E+03  0.47000000000E+01 0.  1.
         13    1    6    6    0    0 -0.10164005863E+02 -0.20127294392E+01 -0.30567195663E+02  0.32275556473E+02  0.00000000000E+00 0. -1.
        -14    1    6    6    0    0  0.46098875599E+02 -0.28346961454E+02  0.25351538577E+02  0.59760832184E+02  0.00000000000E+00 0.  1.
</event>
<event>
12    1  0.8526130E-002  0.1953114E+03  0.7818608E-02  0.1157029E+00
         21   -1    0    0  501  502  0.00000000000E+00  0.00000000000E+00  0.92384624037E+02  0.92384624037E+02  0.00000000000E+00 0.  1.
         21   -1    0    0  502  503 -0.00000000000E+00 -0.00000000000E+00 -0.44192794766E+03  0.44192794766E+03  0.00000000000E+00 0.  1.
         -6    2    1    2    0  503 -0.63355934911E+01 -0.48208516819E+02 -0.27812079153E+03  0.33984953865E+03  0.18916218809E+03 0.  0.
        -24    2    3    3    0    0 -0.26762388944E+02 -0.70668018808E+02 -0.72082445675E+02  0.13153349711E+03  0.79968666006E+02 0.  0.
          6    2    1    2  501    0  0.63355934911E+01  0.48208516819E+02 -0.71422532093E+02  0.19446303304E+03  0.17421392680E+03 0.  0.
         24    2    5    5    0    0 -0.23844573516E+02 -0.21669651674E+02  0.62390980703E+01  0.85618098794E+02  0.79078410495E+02 0.  0.
          5    1    5    5  501    0  0.30180167007E+02  0.69878168493E+02 -0.77661630163E+02  0.10884493425E+03  0.47000000000E+01 0. -1.
        -13    1    6    6    0    0 -0.20285284764E+02 -0.39155709188E+01  0.41287824810E+02  0.46168267794E+02  0.00000000000E+00 0.  1.
         14    1    6    6    0    0 -0.35592887517E+01 -0.17754080755E+02 -0.35048726739E+02  0.39449831000E+02  0.00000000000E+00 0. -1.
         -5    1    3    3    0  503  0.20426795452E+02  0.22459501989E+02 -0.20603834586E+03  0.20831604154E+03  0.47000000000E+01 0.  1.
         11    1    4    4    0    0  0.32806269064E+01  0.46833550583E+01  0.12862899428E+02  0.14076594375E+02  0.00000000000E+00 0. -1.
        -12    1    4    4    0    0 -0.30043015850E+02 -0.75351373866E+02 -0.84945345103E+02  0.11745690273E+03  0.00000000000E+00 0.  1.
</event>
<event>
12    1  0.8526130E-002  0.2522986E+03  0.7818608E-02  0.1111905E+00
         21   -1    0    0  501  502  0.00000000000E+00  0.00000000000E+00  0.92803737047E+03  0.92803737047E+03  0.00000000000E+00 0. -1.
         21   -1    0    0  502  503 -0.00000000000E+00 -0.00000000000E+00 -0.73619000870E+02  0.73619000870E+02  0.00000000000E+00 0.  1.
         -6    2    1    2    0  503  0.64805389316E+02  0.17272195147E+03  0.29553361038E+03  0.38858039353E+03  0.17211041911E+03 0.  0.
        -24    2    3    3    0    0  0.83887913874E+02  0.17335335808E+03  0.30174863816E+03  0.36795860922E+03  0.85162953323E+02 0.  0.
          6    2    1    2  501    0 -0.64805389316E+02 -0.17272195147E+03  0.55888475922E+03  0.61307597781E+03  0.17168974774E+03 0.  0.
         24    2    5    5    0    0 -0.82370648213E+02 -0.18779744579E+03  0.53866911624E+03  0.58198625169E+03  0.80565352552E+02 0.  0.
          5    1    5    5  501    0  0.17565258897E+02  0.15075494322E+02  0.20215642973E+02  0.31089726116E+02  0.47000000000E+01 0. -1.
        -13    1    6    6    0    0 -0.30374726776E+02 -0.15658441134E+03  0.37964326335E+03  0.41178915637E+03  0.00000000000E+00 0.  1.
         14    1    6    6    0    0 -0.51995921436E+02 -0.31213034449E+02  0.15902585290E+03  0.17019709532E+03  0.00000000000E+00 0. -1.
         -5    1    3    3    0  503 -0.19082524558E+02 -0.63140661125E+00 -0.62150277740E+01  0.20621784308E+02  0.47000000000E+01 0.  1.
         13    1    4    4    0    0  0.58937464346E+02  0.41630821352E+02  0.14299832901E+03  0.16017263215E+03  0.00000000000E+00 0. -1.
        -14    1    4    4    0    0  0.24950449528E+02  0.13172253673E+03  0.15875030915E+03  0.20778597708E+03  0.00000000000E+00 0.  1.
</event>
<event>
12    1  0.8526130E-002  0.2188125E+03  0.7818608E-02  0.1134861E+00
         21   -1    0    0  501  502  0.00000000000E+00  0.00000000000E+00  0.10345235860E+03  0.10345235860E+03  0.00000000000E+00 0. -1.
         21   -1    0    0  502  503 -0.00000000000E+00 -0.00000000000E+00 -0.61603403461E+03  0.61603403461E+03  0.00000000000E+00 0. -1.
         -6    2    1    2    0  503  0.29944742849E+02  0.13225885792E+03 -0.43608308721E+03  0.48768707710E+03  0.17111730802E+03 0.  0.
        -24    2    3    3    0    0 -0.29798273911E+02  0.11853241114E+03 -0.36612540743E+03  0.39455378364E+03  0.81774107126E+02 0.  0.
          6    2    1    2  501    0 -0.29944742849E+02 -0.13225885792E+03 -0.76498588801E+02  0.23179931611E+03  0.17172593206E+03 0.  0.
         24    2    5    5    0    0  0.19315087783E+02 -0.14571851123E+03 -0.59393934557E+02  0.17774052980E+03  0.80356078412E+02 0.  0.
          5    1    5    5  501    0 -0.49259830631E+02  0.13459653318E+02 -0.17104654244E+02  0.54058786317E+02  0.47000000000E+01 0. -1.
        -13    1    6    6    0    0  0.60253719137E+01 -0.11529910570E+03 -0.78333613710E+02  0.13952184029E+03  0.00000000000E+00 0.  1.
         14    1    6    6    0    0  0.13289715869E+02 -0.30419405536E+02  0.18939679153E+02  0.38218689505E+02  0.00000000000E+00 0. -1.
         -5    1    3    3    0  503  0.59743016759E+02  0.13726446780E+02 -0.69957679774E+02  0.93133293467E+02  0.47000000000E+01 0.  1.
         13    1    4    4    0    0  0.21768336336E+02  0.50602778608E+01 -0.51548430214E+02  0.56184584508E+02  0.00000000000E+00 0. -1.
        -14    1    4    4    0    0 -0.51566610247E+02  0.11347213328E+03 -0.31457697722E+03  0.33836919913E+03  0.00000000000E+00 0.  1.
</event>
<event>
12    1  0.8526130E-002  0.3328550E+03  0.7818608E-02  0.1069919E+00
         21   -1    0    0  503  502  0.00000000000E+00  0.00000000000E+00  0.20925360383E+03  0.20925360383E+03  0.00000000000E+00 0.  1.
         21   -1    0    0  501  503 -0.00000000000E+00 -0.00000000000E+00 -0.92061465055E+03  0.92061465055E+03  0.00000000000E+00 0.  1.
          6    2    1    2  501    0 -0.27006188416E+03 -0.89762153061E+02 -0.72407646638E+03  0.79677047060E+03  0.17194705074E+03 0.  0.
         24    2    3    3    0    0 -0.21339692154E+03 -0.11002211314E+02 -0.58076078972E+03  0.62363607312E+03  0.77327627983E+02 0.  0.
         -6    2    1    2    0  502  0.27006188416E+03  0.89762153061E+02  0.12715419653E+02  0.33309778378E+03  0.17263193871E+03 0.  0.
        -24    2    5    5    0    0  0.26687289553E+03  0.11330393149E+03 -0.88497963008E+01  0.30067042621E+03  0.79154677961E+02 0.  0.
          5    1    3    3  501    0 -0.56664962618E+02 -0.78759941746E+02 -0.14331567666E+03  0.17313439747E+03  0.47000000000E+01 0. -1.
        -13    1    4    4    0    0 -0.10238203922E+03 -0.37268120948E+02 -0.34366588786E+03  0.36052355994E+03  0.00000000000E+00 0.  1.
         14    1    4    4    0    0 -0.11101488233E+03  0.26265909634E+02 -0.23709490186E+03  0.26311251318E+03  0.00000000000E+00 0. -1.
         -5    1    5    5    0  502  0.31889886305E+01 -0.23541778425E+02  0.21565215954E+02  0.32427357571E+02  0.47000000000E+01 0.  1.
         11    1    6    6    0    0  0.16623179527E+03  0.96865111883E+02  0.23173523445E+02  0.19378563375E+03  0.00000000000E+00 0. -1.
        -12    1    6    6    0    0  0.10064110026E+03  0.16438819603E+02 -0.32023319746E+02  0.10688479246E+03  0.00000000000E+00 0.  1.
</event>
<event>
12    1  0.8526130E-002  0.2001997E+03  0.7818608E-02  0.1149584E+00
         21   -1    0    0  501  502  0.00000000000E+00  0.00000000000E+00  0.26643801264E+03  0.26643801264E+03  0.00000000000E+00 0.  1.
         21   -1    0    0  502  503 -0.00000000000E+00 -0.00000000000E+00 -0.15721654749E+03  0.15721654749E+03  0.00000000000E+00 0.  1.
         -6    2    1    2    0  503 -0.10219222204E+03 -0.78656732059E+01  0.10447801286E+02  0.20047211235E+03  0.17197323111E+03 0.  0.
        -24    2    3    3    0    0 -0.24589433094E+02  0.50749531882E+02 -0.20973162859E+02  0.98162278479E+02  0.77561615182E+02 0.  0.
          6    2    1    2  501    0  0.10219222204E+03  0.78656732059E+01  0.98773663863E+02  0.22318244778E+03  0.17189836900E+03 0.  0.
         24    2    5    5    0    0  0.67497217660E+02  0.70036368560E+02  0.45985201984E+02  0.13442631900E+03  0.80590502695E+02 0.  0.
          5    1    5    5  501    0  0.34695004381E+02 -0.62170695354E+02  0.52788461879E+02  0.88756128788E+02  0.47000000000E+01 0. -1.
        -13    1    6    6    0    0  0.71883832267E+02  0.43022616614E+02  0.34481320166E+01  0.83845813826E+02  0.00000000000E+00 0.  1.
         14    1    6    6    0    0 -0.43866146075E+01  0.27013751946E+02  0.42537069967E+02  0.50580505171E+02  0.00000000000E+00 0. -1.
         -5    1    3    3    0  503 -0.77602788946E+02 -0.58615205088E+02  0.31420964145E+02  0.10230983388E+03  0.47000000000E+01 0.  1.
         13    1    4    4    0    0 -0.12354024012E+02  0.24299089999E+02  0.29320810067E+02  0.40034704782E+02  0.00000000000E+00 0. -1.
        -14    1    4    4    0    0 -0.12235409083E+02  0.26450441884E+02 -0.50293972925E+02  0.58127573697E+02  0.00000000000E+00 0.  1.
</event>
<event>
12    1  0.8526130E-002  0.1808839E+03  0.7818608E-02  0.1167246E+00
         21   -1    0    0  501  502  0.00000000000E+00  0.00000000000E+00  0.51011243760E+02  0.51011243760E+02  0.00000000000E+00 0. -1.
         21   -1    0    0  502  503 -0.00000000000E+00 -0.00000000000E+00 -0.78093823498E+03  0.78093823498E+03  0.00000000000E+00 0. -1.
         -6    2    1    2    0  503  0.49051126359E+02  0.12919189166E+02 -0.54249467122E+03  0.57146941277E+03  0.17234820273E+03 0.  0.
        -24    2    3    3    0    0  0.83157798108E+02 -0.36446945994E+02 -0.34849488769E+03  0.36834805405E+03  0.77382187349E+02 0.  0.
          6    2    1    2  501    0 -0.49051126359E+02 -0.12919189166E+02 -0.18743232001E+03  0.26048006597E+03  0.17362624151E+03 0.  0.
         24    2    5    5    0    0 -0.35631595883E+01 -0.37389023312E+02 -0.27148638518E+02  0.92013818745E+02  0.79491251696E+02 0.  0.
          5    1    5    5  501    0 -0.45487966771E+02  0.24469834146E+02 -0.16028368149E+03  0.16846624723E+03  0.47000000000E+01 0. -1.
        -11    1    6    6    0    0  0.42494716877E+01 -0.46867125101E+02 -0.48375655699E+02  0.67489180534E+02  0.00000000000E+00 0.  1.
         12    1    6    6    0    0 -0.78126312760E+01  0.94781017893E+01  0.21227017181E+02  0.24524638211E+02  0.00000000000E+00 0. -1.
         -5    1    3    3    0  503 -0.34106671749E+02  0.49366135160E+02 -0.19399978353E+03  0.20312135872E+03  0.47000000000E+01 0.  1.
         13    1    4    4    0    0  0.16335863742E+02  0.11708682777E+02 -0.17658387178E+03  0.17772399239E+03  0.00000000000E+00 0. -1.
        -14    1    4    4    0    0  0.66821934365E+02 -0.48155628771E+02 -0.17191101591E+03  0.19062406166E+03  0.00000000000E+00 0.  1.
</event>
<event>
12    1  0.8526130E-002  0.2211146E+03  0.7818608E-02  0.1133399E+00
         21   -1    0    0  503  502  0.00000000000E+00  0.00000000000E+00  0.40212459112E+03  0.40212459112E+03  0.00000000000E+00 0.  1.
         21   -1    0    0  501  503 -0.00000000000E+00 -0.00000000000E+00 -0.19707508764E+03  0.19707508764E+03  0.00000000000E+00 0.  1.
          6    2    1    2  501    0  0.50351255638E+02  0.12811113896E+03 -0.84407001756E+02  0.23495148322E+03  0.17067496785E+03 0.  0.
         24    2    3    3    0    0  0.22413796078E+02  0.22328398980E+02  0.18437098931E+02  0.84720032550E+02  0.76397785587E+02 0.  0.
         -6    2    1    2    0  502 -0.50351255638E+02 -0.12811113896E+03  0.28945650523E+03  0.36424819554E+03  0.17304325085E+03 0.  0.
        -24    2    5    5    0    0  0.21647643180E+01 -0.23512588196E+01  0.13938019263E+03  0.16147129989E+03  0.81461205299E+02 0.  0.
          5    1    3    3  501    0  0.27937459560E+02  0.10578273998E+03 -0.10284410069E+03  0.15023145067E+03  0.47000000000E+01 0. -1.
        -13    1    4    4    0    0 -0.66873703854E+01  0.36477143223E+02 -0.13297759805E+02  0.39397123197E+02  0.00000000000E+00 0.  1.
         14    1    4    4    0    0  0.29101166464E+02 -0.14148744243E+02  0.31734858736E+02  0.45322909353E+02  0.00000000000E+00 0. -1.
         -5    1    5    5    0  502 -0.52516019956E+02 -0.12575988014E+03  0.15007631261E+03  0.20277689566E+03  0.47000000000E+01 0.  1.
         11    1    6    6    0    0 -0.11433043765E+02 -0.23887307960E+02  0.80278866999E+01  0.27672458080E+02  0.00000000000E+00 0. -1.
        -12    1    6    6    0    0  0.13597808083E+02  0.21536049141E+02  0.13135230593E+03  0.13379884181E+03  0.00000000000E+00 0.  1.
</event>
<event>
12    1  0.8526130E-002  0.2158696E+03  0.7818608E-02  0.1137243E+00
         21   -1    0    0  501  502  0.00000000000E+00  0.00000000000E+00  0.56581124246E+03  0.56581124246E+03  0.00000000000E+00 0. -1.
         21   -1    0    0  502  503 -0.00000000000E+00 -0.00000000000E+00 -0.11811115886E+03  0.11811115886E+03  0.00000000000E+00 0.  1.
         -6    2    1    2    0  503  0.11299981243E+03 -0.63522573649E+02  0.33988651254E+02  0.21727816068E+03  0.17102776301E+03 0.  0.
        -24    2    3    3    0    0  0.79049970711E+02 -0.42390392661E+02  0.88716618703E+02  0.14933405683E+03  0.79901056544E+02 0.  0.
          6    2    1    2  501    0 -0.11299981243E+03  0.63522573649E+02  0.41371143235E+03  0.46664424064E+03  0.17261408719E+03 0.  0.
         24    2    5    5    0    0 -0.11013519888E+03  0.97179189306E+02  0.25785058085E+03  0.30709591311E+03  0.79040628412E+02 0.  0.
          5    1    5    5  501    0 -0.28646135527E+01 -0.33656615657E+02  0.15586085150E+03  0.15954832753E+03  0.47000000000E+01 0. -1.
        -11    1    6    6    0    0 -0.91492647067E+02  0.38810169404E+02  0.19747958492E+03  0.22107763383E+03  0.00000000000E+00 0.  1.
         12    1    6    6    0    0 -0.18642551812E+02  0.58369019902E+02  0.60370995927E+02  0.86018279287E+02  0.00000000000E+00 0. -1.
         -5    1    3    3    0  503  0.33949841720E+02 -0.21132180988E+02 -0.54727967449E+02  0.67944103845E+02  0.47000000000E+01 0.  1.
         11    1    4    4    0    0  0.92296449057E+01  0.22790475690E+02  0.19269623855E+02  0.31239566750E+02  0.00000000000E+00 0. -1.
        -12    1    4    4    0    0  0.69820325806E+02 -0.65180868351E+02  0.69446994848E+02  0.11809449008E+03  0.00000000000E+00 0.  1.
</event>
<event>
12    1  0.8526130E-002  0.1852269E+03  0.7818608E-02  0.1163113E+00
         21   -1    0    0  503  502  0.00000000000E+00  0.00000000000E+00  0.14228987260E+03  0.14228987260E+03  0.00000000000E+00 0.  1.
         21   -1    0    0  501  503 -0.00000000000E+00 -0.00000000000E+00 -0.41647663255E+03  0.41647663255E+03  0.00000000000E+00 0.  1.
          6    2    1    2  501    0 -0.39143563251E+02 -0.49063760820E+02 -0.31941734418E+03  0.36923764147E+03  0.17426854261E+03 0.  0.
         24    2    3    3    0    0 -0.42105375732E+02 -0.80493268944E+02 -0.13204540268E+03  0.17916681053E+03  0.80079514322E+02 0.  0.
         -6    2    1    2    0  502  0.39143563251E+02  0.49063760820E+02  0.45230584241E+02  0.18952886368E+03  0.17301997933E+03 0.  0.
        -24    2    5    5    0    0  0.11422300535E+02  0.93223894314E+02  0.11115532626E+02  0.12704276488E+03  0.84824204218E+02 0.  0.
          5    1    3    3  501    0  0.29618124810E+01  0.31429508124E+02 -0.18737194150E+03  0.19007083094E+03  0.47000000000E+01 0. -1.
        -11    1    4    4    0    0 -0.14772889532E+02 -0.59242940997E+02 -0.13099940905E+03  0.14452961459E+03  0.00000000000E+00 0.  1.
         12    1    4    4    0    0 -0.27332486200E+02 -0.21250327947E+02 -0.10459936370E+01  0.34637195937E+02  0.00000000000E+00 0. -1.
         -5    1    5    5    0  502  0.27721262717E+02 -0.44160133495E+02  0.34115051616E+02  0.62486098803E+02  0.47000000000E+01 0.  1.
         13    1    6    6    0    0  0.79259085839E+01 -0.64517390944E+01 -0.20088307814E+02  0.22538524243E+02  0.00000000000E+00 0. -1.
        -14    1    6    6    0    0  0.34963919509E+01  0.99675633409E+02  0.31203840440E+02  0.10450424063E+03  0.00000000000E+00 0.  1.
</event>
<event>
12    1  0.8526130E-002  0.2267229E+03  0.7818608E-02  0.1129243E+00
         21   -1    0    0  501  502  0.00000000000E+00  0.00000000000E+00  0.11859564374E+03  0.11859564374E+03  0.00000000000E+00 0.  1.
         21   -1    0    0  502  503 -0.00000000000E+00 -0.00000000000E+00 -0.57661277766E+03  0.57661277766E+03  0.00000000000E+00 0. -1.
         -6    2    1    2    0  503 -0.12954071323E+03 -0.65936354892E+02 -0.40455946303E+03  0.46375818261E+03  0.17399682045E+03 0.  0.
        -24    2    3    3    0    0  0.60229831576E+00  0.10246094813E+01 -0.16921229109E+03  0.18657348689E+03  0.78584056676E+02 0.  0.
          6    2    1    2  501    0  0.12954071323E+03  0.65936354892E+02 -0.53457670888E+02  0.23145023879E+03  0.17199735806E+03 0.  0.
         24    2    5    5    0    0  0.36805664398E+01  0.50081594851E+02 -0.40879747538E+02  0.10388674824E+03  0.81237860559E+02 0.  0.
          5    1    5    5  501    0  0.12586014679E+03  0.15854760041E+02 -0.12577923350E+02  0.12756349055E+03  0.47000000000E+01 0. -1.
        -11    1    6    6    0    0  0.20364517852E+02  0.76969728245E+01  0.18831559964E+02  0.28785145973E+02  0.00000000000E+00 0.  1.
         12    1    6    6    0    0 -0.16683951412E+02  0.42384622027E+02 -0.59711307502E+02  0.75101602264E+02  0.00000000000E+00 0. -1.
         -5    1    3    3    0  503 -0.13014301155E+03 -0.66960964374E+02 -0.23534717193E+03  0.27718469572E+03  0.47000000000E+01 0.  1.
         11    1    4    4    0    0 -0.30594769352E+02  0.24116036938E+02 -0.98224389809E+02  0.10566765779E+03  0.00000000000E+00 0. -1.
        -12    1    4    4    0    0  0.31197067668E+02 -0.23091427456E+02 -0.70987901285E+02  0.80905829097E+02  0.00000000000E+00 0.  1.
</event>
<event>
12    1  0.8526130E-002  0.2203846E+03  0.7818608E-02  0.1136630E+00
         21   -1    0    0  501  502  0.00000000000E+00  0.00000000000E+00  0.23803052948E+03  0.23803052948E+03  0.00000000000E+00 0.  1.
         21   -1    0    0  502  503 -0.00000000000E+00 -0.00000000000E+00 -0.31818308599E+03  0.31818308599E+03  0.00000000000E+00 0. -1.
         -6    2    1    2    0  503 -0.85502423100E+02 -0.70467741183E+02 -0.21755232609E+03  0.30967465792E+03  0.19050724992E+03 0.  0.
        -24    2    3    3    0    0 -0.65929448434E+02  0.68262451592E+01 -0.33633817526E+02  0.10916139289E+03  0.79948022010E+02 0.  0.
          6    2    1    2  501    0  0.85502423100E+02  0.70467741183E+02  0.13739976958E+03  0.24653895755E+03  0.17212319427E+03 0.  0.
         24    2    5    5    0    0  0.65977362145E+02  0.77160569460E+01  0.14628239628E+03  0.18005593011E+03  0.81296055604E+02 0.  0.
          5    1    5    5  501    0  0.19525060955E+02  0.62751684237E+02 -0.88826267024E+01  0.66483027435E+02  0.47000000000E+01 0. -1.
        -13    1    6    6    0    0  0.29665946466E+02  0.43622610869E+02  0.87665650795E+02  0.10231454876E+03  0.00000000000E+00 0.  1.
         14    1    6    6    0    0  0.36311415679E+02 -0.35906553923E+02  0.58616745485E+02  0.77741381352E+02  0.00000000000E+00 0. -1.
         -5    1    3    3    0  503 -0.19572974666E+02 -0.77293986342E+02 -0.18391850856E+03  0.20051326503E+03  0.47000000000E+01 0.  1.
         13    1    4    4    0    0 -0.55795097129E+02  0.29873783349E+02 -0.48667076974E+02  0.79837460984E+02  0.00000000000E+00 0. -1.
        -14    1    4    4    0    0 -0.10134351305E+02 -0.23047538190E+02  0.15033259448E+02  0.29323931909E+02  0.00000000000E+00 0.  1.
</event>
<event>
12    1  0.8526130E-002  0.2105214E+03  0.7818608E-02  0.1141448E+00
         21   -1    0    0  501  502  0.00000000000E+00  0.00000000000E+00  0.28115291590E+03  0.28115291590E+03  0.00000000000E+00 0. -1.
         21   -1    0    0  502  503 -0.00000000000E+00 -0.00000000000E+00 -0.17030579264E+03  0.17030579264E+03  0.00000000000E+00 0. -1.
         -6    2    1    2    0  503  0.67612424124E+02  0.10075194717E+03 -0.89736886577E+01  0.20922678384E+03  0.17021435085E+03 0.  0.
        -24    2    3    3    0    0  0.10974909141E+03  0.93644130038E+02 -0.10980353264E+02  0.16619032840E+03  0.81759225405E+02 0.  0.
          6    2    1    2  501    0 -0.67612424124E+02 -0.10075194717E+03  0.11982081192E+03  0.24223192469E+03  0.17203744830E+03 0.  0.
         24    2    5    5    0    0 -0.50317046195E+02 -0.26083884437E+01  0.15346463630E+02  0.97773392000E+02  0.82374227821E+02 0.  0.
          5    1    5    5  501    0 -0.17295377929E+02 -0.98143558724E+02  0.10447434829E+03  0.14445853269E+03  0.47000000000E+01 0. -1.
        -11    1    6    6    0    0 -0.43353742383E+02 -0.33632100249E+02 -0.11615125188E+02  0.56085437315E+02  0.00000000000E+00 0.  1.
         12    1    6    6    0    0 -0.69633038124E+01  0.31023711805E+02  0.26961588819E+02  0.41687954684E+02  0.00000000000E+00 0. -1.
         -5    1    3    3    0  503 -0.42136667289E+02  0.71078171299E+01  0.20066646062E+01  0.43036455446E+02  0.47000000000E+01 0.  1.
         13    1    4    4    0    0  0.10394309627E+02  0.50448998045E+02  0.17098431562E+02  0.54272455613E+02  0.00000000000E+00 0. -1.
        -14    1    4    4    0    0  0.99354781785E+02  0.43195131993E+02 -0.28078784826E+02  0.11191787279E+03  0.00000000000E+00 0.  1.
</event>
<event>
12    1  0.8526130E-002  0.2008369E+03  0.7818608E-02  0.1150057E+00
         21   -1    0    0  503  502  0.00000000000E+00  0.00000000000E+00  0.57705441725E+03  0.57705441725E+03  0.00000000000E+00 0.  1.
         21   -1    0    0  501  503 -0.00000000000E+00 -0.00000000000E+00 -0.92014381653E+02  0.92014381653E+02  0.00000000000E+00 0.  1.
          6    2    1    2  501    0  0.10419564455E+03  0.62911306192E+01  0.74646098763E+02  0.21426032964E+03  0.17157837314E+03 0.  0.
         24    2    3    3    0    0  0.75535184393E+02 -0.61704321805E+02  0.59263760879E+02  0.13873874434E+03  0.78887631590E+02 0.  0.
         -6    2    1    2    0  502 -0.10419564455E+03 -0.62911306192E+01  0.41039393684E+03  0.45480846926E+03  0.16592543402E+03 0.  0.
        -24    2    5    5    0    0 -0.36832597478E+02 -0.20896931939E+02  0.90077163845E+02  0.12712564304E+03  0.79080412684E+02 0.  0.
          5    1    3    3  501    0  0.28660460159E+02  0.67995452424E+02  0.15382337884E+02  0.75521585296E+02  0.47000000000E+01 0. -1.
        -13    1    4    4    0    0  0.82059436035E+02 -0.25069519393E+02  0.53413535497E+02  0.10107045869E+03  0.00000000000E+00 0.  1.
         14    1    4    4    0    0 -0.65242516417E+01 -0.36634802412E+02  0.58502253819E+01  0.37668285657E+02  0.00000000000E+00 0. -1.
         -5    1    5    5    0  502 -0.67363047073E+02  0.14605801320E+02  0.32031677299E+03  0.32768282622E+03  0.47000000000E+01 0.  1.
         11    1    6    6    0    0 -0.56670601653E+02 -0.33113341657E+02  0.73447189744E+02  0.98501472927E+02  0.00000000000E+00 0. -1.
        -12    1    6    6    0    0  0.19838004175E+02  0.12216409718E+02  0.16629974101E+02  0.28624170112E+02  0.00000000000E+00 0.  1.
</event>
<event>
12    1  0.8526130E-002  0.3520787E+03  0.7818608E-02  0.1061794E+00
         21   -1    0    0  503  502  0.00000000000E+00  0.00000000000E+00  0.29059062579E+03  0.29059062579E+03  0.00000000000E+00 0. -1.
         21   -1    0    0  501  503 -0.00000000000E+00 -0.00000000000E+00 -0.78158052152E+03  0.78158052152E+03  0.00000000000E+00 0.  1.
          6    2    1    2  501    0  0.27060419152E+03 -0.14533533421E+03  0.11603279438E+03  0.37043335409E+03  0.17148840373E+03 0.  0.
         24    2    3    3    0    0  0.86154540458E+02 -0.75997697686E+02 -0.84276798108E+01  0.13731990263E+03  0.74749414557E+02 0.  0.
         -6    2    1    2    0  502 -0.27060419152E+03  0.14533533421E+03 -0.60702269011E+03  0.70173779322E+03  0.17207671629E+03 0.  0.
        -24    2    5    5    0    0 -0.17414791056E+03  0.53880784830E+02 -0.22131913793E+03  0.29374628730E+03  0.63828573252E+02 0.  0.
          5    1    3    3  501    0  0.18444965106E+03 -0.69337636524E+02  0.12446047419E+03  0.23311345146E+03  0.47000000000E+01 0. -1.
        -13    1    4    4    0    0  0.95228936251E+02 -0.78411369938E+02  0.18871471309E+01  0.12337120636E+03  0.00000000000E+00 0.  1.
         14    1    4    4    0    0 -0.90743957933E+01  0.24136722522E+01 -0.10314826942E+02  0.13948696269E+02  0.00000000000E+00 0. -1.
         -5    1    5    5    0  502 -0.96456280964E+02  0.91454549380E+02 -0.38570355219E+03  0.40799150593E+03  0.47000000000E+01 0.  1.
         11    1    6    6    0    0 -0.24645827974E+02  0.11656616975E+02 -0.54723158315E+01  0.27807189652E+02  0.00000000000E+00 0. -1.
        -12    1    6    6    0    0 -0.14950208258E+03  0.42224167855E+02 -0.21584682210E+03  0.26593909764E+03  0.00000000000E+00 0.  1.
</event>
<event>
12    1  0.8526130E-002  0.1794437E+03  0.7818608E-02  0.1168944E+00
         21   -1    0    0  503  502  0.00000000000E+00  0.00000000000E+00  0.54649186751E+02  0.54649186751E+02  0.00000000000E+00 0. -1.
         21   -1    0    0  501  503 -0.00000000000E+00 -0.00000000000E+00 -0.83688335946E+03  0.83688335946E+03  0.00000000000E+00 0. -1.
          6    2    1    2  501    0  0.21126511153E+02 -0.36398284139E+02 -0.63938854083E+03  0.66409167508E+03  0.17443876350E+03 0.  0.
         24    2    3    3    0    0 -0.27324011514E+02  0.25515467803E+02 -0.21661133836E+03  0.23404119113E+03  0.80356496530E+02 0.  0.
         -6    2    1    2    0  502 -0.21126511153E+02  0.36398284139E+02 -0.14284563188E+03  0.22744087113E+03  0.17191076392E+03 0.  0.
        -24    2    5    5    0    0  0.30836901793E+02  0.56119745349E+02 -0.38164574407E+02  0.10882659664E+03  0.79286525131E+02 0.  0.
          5    1    3    3  501    0  0.48450522667E+02 -0.61913751942E+02 -0.42277720246E+03  0.43005048395E+03  0.47000000000E+01 0. -1.
        -13    1    4    4    0    0 -0.34385276076E+02  0.47885930701E+00 -0.30029404853E+02  0.45654590929E+02  0.00000000000E+00 0.  1.
         14    1    4    4    0    0  0.70612645615E+01  0.25036608496E+02 -0.18658193351E+03  0.18838660020E+03  0.00000000000E+00 0. -1.
         -5    1    5    5    0  502 -0.51963412946E+02 -0.19721461210E+02 -0.10468105747E+03  0.11861427448E+03  0.47000000000E+01 0.  1.
         13    1    6    6    0    0 -0.25313290089E+02  0.28538263545E+02 -0.64509860443E+01  0.38688633502E+02  0.00000000000E+00 0. -1.
        -14    1    6    6    0    0  0.56150191883E+02  0.27581481804E+02 -0.31713588363E+02  0.70137963143E+02  0.00000000000E+00 0.  1.
</event>
<event>
12    1  0.8526130E-002  0.3223569E+03  0.7818608E-02  0.1074622E+00
         21   -1    0    0  501  502  0.00000000000E+00  0.00000000000E+00  0.90381994143E+03  0.90381994143E+03  0.00000000000E+00 0. -1.
         21   -1    0    0  502  503 -0.00000000000E+00 -0.00000000000E+00 -0.13288702862E+03  0.13288702862E+03  0.00000000000E+00 0. -1.
         -6    2    1    2    0  503  0.66940592851E+02 -0.26392515852E+03  0.19403394730E+03  0.37585420839E+03  0.17169647927E+03 0.  0.
        -24    2    3    3    0    0  0.10465489546E+03 -0.23904911642E+03  0.14537314641E+03  0.30928732747E+03  0.80175881872E+02 0.  0.
          6    2    1    2  501    0 -0.66940592851E+02  0.26392515852E+03  0.57689896551E+03  0.66085276166E+03  0.17255846521E+03 0.  0.
         24    2    5    5    0    0 -0.16719736267E+02  0.51606785140E+02  0.24538873247E+03  0.26396190673E+03  0.80730714920E+02 0.  0.
          5    1    5    5  501    0 -0.50220856584E+02  0.21231837338E+03  0.33151023304E+03  0.39689085492E+03  0.47000000000E+01 0. -1.
        -11    1    6    6    0    0  0.27223710893E+02  0.41872457804E+02  0.15733403477E+03  0.16507098975E+03  0.00000000000E+00 0.  1.
         12    1    6    6    0    0 -0.43943447160E+02  0.97343273358E+01  0.88054697692E+02  0.98890916988E+02  0.00000000000E+00 0. -1.
         -5    1    3    3    0  503 -0.37714302612E+02 -0.24876042101E+02  0.48660800894E+02  0.66566880923E+02  0.47000000000E+01 0.  1.
         13    1    4    4    0    0  0.87767120221E+02 -0.11956246201E+03  0.10618242145E+03  0.18240876168E+03  0.00000000000E+00 0. -1.
        -14    1    4    4    0    0  0.16887775243E+02 -0.11948665440E+03  0.39190724958E+02  0.12687856579E+03  0.00000000000E+00 0.  1.
</event>
<event>
12    1  0.8526130E-002  0.1794383E+03  0.7818608E-02  0.1168620E+00
         21   -1    0    0  503  502  0.00000000000E+00  0.00000000000E+00  0.16110598247E+04  0.16110598247E+04  0.00000000000E+00 0. -1.
         21   -1    0    0  501  503 -0.00000000000E+00 -0.00000000000E+00 -0.34928876102E+02  0.34928876102E+02  0.00000000000E+00 0. -1.
          6    2    1    2  501    0 -0.42650281096E+02 -0.15707911212E+02  0.24893015219E+03  0.30686206899E+03  0.17358664626E+03 0.  0.
         24    2    3    3    0    0 -0.18132991861E+02  0.18858069965E+02  0.25020856992E+03  0.26420496081E+03  0.80718651252E+02 0.  0.
         -6    2    1    2    0  502  0.42650281096E+02  0.15707911212E+02  0.13272007964E+04  0.13391266318E+04  0.17243084730E+03 0.  0.
        -24    2    5    5    0    0  0.84622527214E+01  0.71699428256E+02  0.95064830345E+03  0.95687312795E+03  0.81618431783E+02 0.  0.
          5    1    3    3  501    0 -0.24517289235E+02 -0.34565981177E+02 -0.12784177261E+01  0.42657108178E+02  0.47000000000E+01 0. -1.
        -11    1    4    4    0    0 -0.23314922854E+02  0.14277282656E+02  0.19954014899E+02  0.33846552828E+02  0.00000000000E+00 0.  1.
         12    1    4    4    0    0  0.51819309934E+01  0.45807873089E+01  0.23025455502E+03  0.23035840798E+03  0.00000000000E+00 0. -1.
         -5    1    5    5    0  502  0.34188028375E+02 -0.55991517043E+02  0.37655249298E+03  0.38225350389E+03  0.47000000000E+01 0.  1.
         13    1    6    6    0    0  0.20115789718E+02  0.64901077678E+02  0.37751061815E+03  0.38357666990E+03  0.00000000000E+00 0. -1.
        -14    1    6    6    0    0 -0.11653536997E+02  0.67983505780E+01  0.57313768531E+03  0.57329645805E+03  0.00000000000E+00 0.  1.
</event>
<event>
12    1  0.8526130E-002  0.1932471E+03  0.7818608E-02  0.1155803E+00
         21   -1    0    0  501  502  0.00000000000E+00  0.00000000000E+00  0.14452843567E+03  0.14452843567E+03  0.00000000000E+00 0.  1.
         21   -1    0    0  502  503 -0.00000000000E+00 -0.00000000000E+00 -0.36960520333E+03  0.36960520333E+03  0.00000000000E+00 0. -1.
         -6    2    1    2    0  503 -0.18800440393E+02  0.85826783705E+02  0.29601937147E+02  0.19443741637E+03  0.17090915961E+03 0.  0.
        -24    2    3    3    0    0 -0.26048610881E+02 -0.15167522580E+02 -0.10378819234E+02  0.85474409992E+02  0.79306815626E+02 0.  0.
          6    2    1    2  501    0  0.18800440393E+02 -0.85826783705E+02 -0.25467870480E+03  0.31969622263E+03  0.17211838579E+03 0.  0.
         24    2    5    5    0    0  0.58137611469E+02 -0.70206282275E+00 -0.14441414178E+03  0.17487220877E+03  0.79651555500E+02 0.  0.
          5    1    5    5  501    0 -0.39337171076E+02 -0.85124720882E+02 -0.11026456302E+03  0.14482401386E+03  0.47000000000E+01 0. -1.
        -11    1    6    6    0    0  0.20028795008E+02  0.37907721512E+02 -0.48954676500E+02  0.65074636618E+02  0.00000000000E+00 0.  1.
         12    1    6    6    0    0  0.38108816461E+02 -0.38609784335E+02 -0.95459465284E+02  0.10979757215E+03  0.00000000000E+00 0. -1.
         -5    1    3    3    0  503  0.72481704877E+01  0.10099430628E+03  0.39980756381E+02  0.10896300637E+03  0.47000000000E+01 0.  1.
         11    1    4    4    0    0  0.81532536191E+01 -0.19157732209E+02 -0.36658158771E+02  0.42158212159E+02  0.00000000000E+00 0. -1.
        -12    1    4    4    0    0 -0.34201864500E+02  0.39902096291E+01  0.26279339537E+02  0.43316197833E+02  0.00000000000E+00 0.  1.
</event>
<event>
12    1  0.8526130E-002  0.2248023E+03  0.7818608E-02  0.1130440E+00
         21   -1    0    0  501  502  0.00000000000E+00  0.00000000000E+00  0.31462460296E+03  0.31462460296E+03  0.00000000000E+00 0. -1.
         21   -1    0    0  502  503 -0.00000000000E+00 -0.00000000000E+00 -0.18537651306E+03  0.18537651306E+03  0.00000000000E+00 0. -1.
         -6    2    1    2    0  503 -0.48945231278E+02  0.13563224816E+03 -0.27302177575E+02  0.22645419543E+03  0.17246550763E+03 0.  0.
        -24    2    3    3    0    0  0.26962661597E+02  0.85593775175E+02 -0.53843549362E+02  0.13162597497E+03  0.79831009074E+02 0.  0.
          6    2    1    2  501    0  0.48945231278E+02 -0.13563224816E+03  0.15655026747E+03  0.27354692059E+03  0.17183768245E+03 0.  0.
         24    2    5    5    0    0  0.19577359558E+02 -0.14532489929E+03  0.69156240533E+02  0.18072329579E+03  0.79848135085E+02 0.  0.
          5    1    5    5  501    0  0.29367871721E+02  0.96926511280E+01  0.87394026937E+02  0.92823624792E+02  0.47000000000E+01 0. -1.
        -11    1    6    6    0    0 -0.17300518671E+01 -0.75363209121E+02  0.76278620657E+02  0.10724287546E+03  0.00000000000E+00 0.  1.
         12    1    6    6    0    0  0.21307411425E+02 -0.69961690172E+02 -0.71223801243E+01  0.73480420330E+02  0.00000000000E+00 0. -1.
         -5    1    3    3    0  503 -0.75907892875E+02  0.50038472990E+02  0.26541371787E+02  0.94828220464E+02  0.47000000000E+01 0.  1.
         11    1    4    4    0    0 -0.14612929554E+02  0.65853054111E+02 -0.10242273988E+02  0.68228048648E+02  0.00000000000E+00 0. -1.
        -12    1    4    4    0    0  0.41575591151E+02  0.19740721064E+02 -0.43601275374E+02  0.63397926322E+02  0.00000000000E+00 0.  1.
</event>
<event>
12    1  0.8526130E-002  0.1951665E+03  0.7818608E-02  0.1153945E+00
         21   -1    0    0  503  502  0.00000000000E+00  0.00000000000E+00  0.32563717361E+02  0.32563717361E+02  0.00000000000E+00 0.  1.
         21   -1    0    0  501  503 -0.00000000000E+00 -0.00000000000E+00 -0.13306286244E+04  0.13306286244E+04  0.00000000000E+00 0. -1.
          6    2    1    2  501    0 -0.79408174849E+02 -0.47956334624E+02 -0.88691569981E+03  0.90807295916E+03  0.17138136516E+03 0.  0.
         24    2    3    3    0    0 -0.40083371297E+01 -0.77853332402E+02 -0.43082437284E+03  0.44480159750E+03  0.78495941080E+02 0.  0.
         -6    2    1    2    0  502  0.79408174849E+02  0.47956334624E+02 -0.41114920720E+03  0.45511938257E+03  0.17171055165E+03 0.  0.
        -24    2    5    5    0    0  0.81431347407E+01 -0.43562410209E+02 -0.19288782589E+03  0.20790589757E+03  0.63680096102E+02 0.  0.
          5    1    3    3  501    0 -0.75399837720E+02  0.29896997777E+02 -0.45609132697E+03  0.46327136167E+03  0.47000000000E+01 0. -1.
        -13    1    4    4    0    0 -0.21899169680E+02 -0.78627147570E+00 -0.36130952616E+02  0.42256805280E+02  0.00000000000E+00 0.  1.
         14    1    4    4    0    0  0.17890832551E+02 -0.77067060926E+02 -0.39469342023E+03  0.40254479222E+03  0.00000000000E+00 0. -1.
         -5    1    5    5    0  502  0.71265040108E+02  0.91518744833E+02 -0.21826138131E+03  0.24721348500E+03  0.47000000000E+01 0.  1.
         13    1    6    6    0    0  0.31242622978E+02 -0.13257664300E+02 -0.53116314060E+02  0.63033403625E+02  0.00000000000E+00 0. -1.
        -14    1    6    6    0    0 -0.23099488237E+02 -0.30304745908E+02 -0.13977151183E+03  0.14487249394E+03  0.00000000000E+00 0.  1.
</event>
<event>
12    1  0.8526130E-002  0.2558316E+03  0.7818608E-02  0.1110227E+00
         21   -1    0    0  501  502  0.00000000000E+00  0.00000000000E+00  0.19575312361E+04  0.19575312361E+04  0.00000000000E+00 0.  1.
         21   -1    0    0  502  503 -0.00000000000E+00 -0.00000000000E+00 -0.45326848767E+02  0.45326848767E+02  0.00000000000E+00 0. -1.
         -6    2    1    2    0  503  0.13148821924E+03  0.12960280138E+03  0.42831003666E+03  0.49707183177E+03  0.17188624295E+03 0.  0.
        -24    2    3    3    0    0  0.33690688363E+02  0.13014440310E+02  0.22689656520E+03  0.24459078403E+03  0.83893755397E+02 0.  0.
          6    2    1    2  501    0 -0.13148821924E+03 -0.12960280138E+03  0.14838943507E+04  0.15057862531E+04  0.17709815956E+03 0.  0.
         24    2    5    5    0    0 -0.99115714752E+02 -0.47340601957E+02  0.12126704169E+04  0.12204801705E+04  0.83290150156E+02 0.  0.
          5    1    5    5  501    0 -0.32372504488E+02 -0.82262199425E+02  0.27122393383E+03  0.28530608263E+03  0.47000000000E+01 0. -1.
        -11    1    6    6    0    0 -0.10768786510E+03 -0.50156043905E+02  0.11922689070E+04  0.11981725467E+04  0.00000000000E+00 0.  1.
         12    1    6    6    0    0  0.85721503505E+01  0.28154419473E+01  0.20401509859E+02  0.22307623798E+02  0.00000000000E+00 0. -1.
         -5    1    3    3    0  503  0.97797530877E+02  0.11658836107E+03  0.20141347146E+03  0.25248104774E+03  0.47000000000E+01 0.  1.
         11    1    4    4    0    0 -0.78950005000E+00 -0.11482468282E+02 -0.21182664437E+01  0.11702881734E+02  0.00000000000E+00 0. -1.
        -12    1    4    4    0    0  0.34480188413E+02  0.24496908591E+02  0.22901483165E+03  0.23288790230E+03  0.00000000000E+00 0.  1.
</event>
<event>
12    1  0.8526130E-002  0.1806646E+03  0.7818608E-02  0.1167833E+00
         21   -1    0    0  503  502  0.00000000000E+00  0.00000000000E+00  0.14080860470E+04  0.14080860470E+04  0.00000000000E+00 0. -1.
         21   -1    0    0  501  503 -0.00000000000E+00 -0.00000000000E+00 -0.91045627448E+02  0.91045627448E+02  0.00000000000E+00 0. -1.
          6    2    1    2  501    0  0.40336692290E+01  0.47623494653E+02  0.84180622002E+01  0.17809717067E+03  0.17135772728E+03 0.  0.
         24    2    3    3    0    0 -0.32311107546E+02  0.12304648508E+02  0.60573394973E+02  0.10522308454E+03  0.78786732994E+02 0.  0.
         -6    2    1    2    0  502 -0.40336692290E+01 -0.47623494653E+02  0.13086223574E+04  0.13210345038E+04  0.17422806403E+03 0.  0.
        -24    2    5    5    0    0  0.11810937925E+02 -0.23134091683E+02  0.12652152873E+04  0.12685269218E+04  0.87841582989E+02 0.  0.
          5    1    3    3  501    0  0.36344776775E+02  0.35318846145E+02 -0.52155332773E+02  0.72874086125E+02  0.47000000000E+01 0. -1.
        -13    1    4    4    0    0 -0.49834632784E+01 -0.29892771636E+02  0.57631311199E+01  0.30848442143E+02  0.00000000000E+00 0.  1.
         14    1    4    4    0    0 -0.27327644268E+02  0.42197420145E+02  0.54810263853E+02  0.74374642398E+02  0.00000000000E+00 0. -1.
         -5    1    5    5    0  502 -0.15844607154E+02 -0.24489402970E+02  0.43407070058E+02  0.52507581973E+02  0.47000000000E+01 0.  1.
         11    1    6    6    0    0  0.63410977902E+01 -0.40793318317E+02  0.26981817969E+03  0.27295815509E+03  0.00000000000E+00 0. -1.
        -12    1    6    6    0    0  0.54698401346E+01  0.17659226635E+02  0.99539710760E+03  0.99556876672E+03  0.00000000000E+00 0.  1.
</event>
<event>
12    1  0.8526130E-002  0.2112349E+03  0.7818608E-02  0.1140622E+00
         21   -1    0    0  501  502  0.00000000000E+00  0.00000000000E+00  0.86608803653E+03  0.86608803653E+03  0.00000000000E+00 0.  1.
         21   -1    0    0  502  503 -0.00000000000E+00 -0.00000000000E+00 -0.78691469172E+02  0.78691469172E+02  0.00000000000E+00 0.  1.
         -6    2    1    2    0  503 -0.87330300402E+02 -0.88071288169E+02  0.11601361330E+03  0.24099652946E+03  0.17098840771E+03 0.  0.
        -24    2    3    3    0    0 -0.79845890856E+00 -0.47673270579E+02  0.11071278622E+03  0.14523668304E+03  0.81012312672E+02 0.  0.
          6    2    1    2  501    0  0.87330300402E+02  0.88071288169E+02  0.67138295406E+03  0.70378297625E+03  0.17079892708E+03 0.  0.
         24    2    5    5    0    0  0.85752152149E+01  0.20337026355E+02  0.46877445312E+03  0.47604938558E+03  0.79914958909E+02 0.  0.
          5    1    5    5  501    0  0.78755085187E+02  0.67734261814E+02  0.20260850094E+03  0.22773359067E+03  0.47000000000E+01 0. -1.
        -13    1    6    6    0    0 -0.11931206887E+02 -0.26085610824E+02  0.10891610928E+03  0.11263006548E+03  0.00000000000E+00 0.  1.
         14    1    6    6    0    0  0.20506422102E+02  0.46422637179E+02  0.35985834384E+03  0.36341932010E+03  0.00000000000E+00 0. -1.
         -5    1    3    3    0  503 -0.86531841494E+02 -0.40398017590E+02  0.53008270858E+01  0.95759846414E+02  0.47000000000E+01 0.  1.
         11    1    4    4    0    0  0.19302646368E+02 -0.22571335432E+02 -0.25762608999E+00  0.29700567523E+02  0.00000000000E+00 0. -1.
        -12    1    4    4    0    0 -0.20101105276E+02 -0.25101935148E+02  0.11097041231E+03  0.11553611552E+03  0.00000000000E+00 0.  1.
</event>
<event>
12    1  0.8526130E-002  0.2159882E+03  0.7818608E-02  0.1136912E+00
         21   -1    0    0  501  502  0.00000000000E+00  0.00000000000E+00  0.11558804212E+03  0.11558804212E+03  0.00000000000E+00 0. -1.
         21   -1    0    0  502  503 -0.00000000000E+00 -0.00000000000E+00 -0.45078076290E+03  0.45078076290E+03  0.00000000000E+00 0.  1.
         -6    2    1    2    0  503 -0.52513028254E+02 -0.11906232167E+03 -0.25924544414E+03  0.33743015524E+03  0.17238751340E+03 0.  0.
        -24    2    3    3    0    0  0.83807741094E+00 -0.13696850275E+03 -0.20595124041E+03  0.25978136936E+03  0.79431563745E+02 0.  0.
          6    2    1    2  501    0  0.52513028254E+02  0.11906232167E+03 -0.75947276632E+02  0.22893864978E+03  0.17237013070E+03 0.  0.
         24    2    5    5    0    0  0.35918810454E+02  0.11008403419E+03  0.95546049278E+01  0.14125376248E+03  0.80328571577E+02 0.  0.
          5    1    5    5  501    0  0.16594217800E+02  0.89782874778E+01 -0.85501881560E+02  0.87684887300E+02  0.47000000000E+01 0. -1.
        -11    1    6    6    0    0  0.49594516856E+01 -0.12126428106E+02 -0.56529488812E+01  0.14268926052E+02  0.00000000000E+00 0.  1.
         12    1    6    6    0    0  0.30959358768E+02  0.12221046230E+03  0.15207553809E+02  0.12698483643E+03  0.00000000000E+00 0. -1.
         -5    1    3    3    0  503 -0.53351105665E+02  0.17906181085E+02 -0.53294203737E+02  0.77648785880E+02  0.47000000000E+01 0.  1.
         13    1    4    4    0    0  0.27408205779E+02 -0.12032787047E+03 -0.18382701972E+03  0.22140998020E+03  0.00000000000E+00 0. -1.
        -14    1    4    4    0    0 -0.26570128368E+02 -0.16640632285E+02 -0.22124220690E+02  0.38371389152E+02  0.00000000000E+00 0.  1.
</event>
<event>
12    1  0.8526130E-002  0.1867465E+03  0.7818608E-02  0.1162799E+00
         21   -1    0    0  501  502  0.00000000000E+00  0.00000000000E+00  0.29584896430E+03  0.29584896430E+03  0.00000000000E+00 0.  1.
         21   -1    0    0  502  503 -0.00000000000E+00 -0.00000000000E+00 -0.11430117654E+03  0.11430117654E+03  0.00000000000E+00 0.  1.
         -6    2    1    2    0  503  0.54373398092E+02  0.17760043212E+02  0.97682649643E+02  0.21075141697E+03  0.17777056606E+03 0.  0.
        -24    2    3    3    0    0  0.28028256884E+02  0.35784818296E+01 -0.22209325608E+02  0.87093182795E+02  0.79332084488E+02 0.  0.
          6    2    1    2  501    0 -0.54373398092E+02 -0.17760043212E+02  0.83865138116E+02  0.19939872388E+03  0.17162343703E+03 0.  0.
         24    2    5    5    0    0  0.13047114505E+02 -0.14188602305E+02 -0.10819201422E+02  0.83013609440E+02  0.80016627025E+02 0.  0.
          5    1    5    5  501    0 -0.67420512597E+02 -0.35714409067E+01  0.94684339538E+02  0.11638511444E+03  0.47000000000E+01 0. -1.
        -11    1    6    6    0    0  0.33299790108E+02  0.22236676579E+02 -0.10249286163E+02  0.41332719163E+02  0.00000000000E+00 0.  1.
         12    1    6    6    0    0 -0.20252675603E+02 -0.36425278884E+02 -0.56991525958E+00  0.41680890277E+02  0.00000000000E+00 0. -1.
         -5    1    3    3    0  503  0.26345141208E+02  0.14181561382E+02  0.11989197525E+03  0.12365823417E+03  0.47000000000E+01 0.  1.
         11    1    4    4    0    0  0.13295570103E+02  0.31708614058E+02 -0.38320984814E+02  0.51485010119E+02  0.00000000000E+00 0. -1.
        -12    1    4    4    0    0  0.14732686781E+02 -0.28130132229E+02  0.16111659206E+02  0.35608172676E+02  0.00000000000E+00 0.  1.
</event>
<event>
12    1  0.8526130E-002  0.2430778E+03  0.7818608E-02  0.1117924E+00
         21   -1    0    0  503  502  0.00000000000E+00  0.00000000000E+00  0.13112746607E+04  0.13112746607E+04  0.00000000000E+00 0. -1.
         21   -1    0    0  501  503 -0.00000000000E+00 -0.00000000000E+00 -0.45459155889E+02  0.45459155889E+02  0.00000000000E+00 0.  1.
          6    2    1    2  501    0  0.53671295353E+02 -0.16103644131E+03  0.71111082613E+03  0.75150875208E+03  0.17399268388E+03 0.  0.
         24    2    3    3    0    0  0.67598271258E+02 -0.18535562943E+03  0.65122468099E+03  0.68522282637E+03  0.80687675639E+02 0.  0.
         -6    2    1    2    0  502 -0.53671295353E+02  0.16103644131E+03  0.55470467873E+03  0.60522506455E+03  0.17258839702E+03 0.  0.
        -24    2    5    5    0    0 -0.64479494367E+02  0.13683481766E+03  0.55270012722E+03  0.57823165832E+03  0.77414775963E+02 0.  0.
          5    1    3    3  501    0 -0.13926975905E+02  0.24319188121E+02  0.59886145139E+02  0.66285925718E+02  0.47000000000E+01 0. -1.
        -11    1    4    4    0    0 -0.47382006906E+01 -0.10450737278E+03  0.31163114286E+03  0.32872208735E+03  0.00000000000E+00 0.  1.
         12    1    4    4    0    0  0.72336471949E+02 -0.80848256645E+02  0.33959353814E+03  0.35650073902E+03  0.00000000000E+00 0. -1.
         -5    1    5    5    0  502  0.10808199014E+02  0.24201623653E+02  0.20045515080E+01  0.26993406234E+02  0.47000000000E+01 0.  1.
         11    1    6    6    0    0 -0.44701383598E+02  0.14249892959E+03  0.48732505964E+03  0.50969586263E+03  0.00000000000E+00 0. -1.
        -12    1    6    6    0    0 -0.19778110770E+02 -0.56641119342E+01  0.65375067578E+02  0.68535795687E+02  0.00000000000E+00 0.  1.
</event>
<event>
12    1  0.8526130E-002  0.2125290E+03  0.7818608E-02  0.1139629E+00
         21   -1    0    0  503  502  0.00000000000E+00  0.00000000000E+00  0.51554087969E+03  0.51554087969E+03  0.00000000000E+00 0.  1.
         21   -1    0    0  501  503 -0.00000000000E+00 -0.00000000000E+00 -0.10566464911E+03  0.10566464911E+03  0.00000000000E+00 0.  1.
          6    2    1    2  501    0  0.77743804290E+02  0.98646194960E+02  0.76286241575E+02  0.22580561251E+03  0.17144507313E+03 0.  0.
         24    2    3    3    0    0  0.10363824435E+03  0.11002781804E+03  0.33140389608E+02  0.17400099966E+03  0.79567933386E+02 0.  0.
         -6    2    1    2    0  502 -0.77743804290E+02 -0.98646194960E+02  0.33358998900E+03  0.39539991629E+03  0.17112463923E+03 0.  0.
        -24    2    5    5    0    0  0.44259105342E+01 -0.14035528642E+01  0.11041793908E+03  0.13842550639E+03  0.83354309448E+02 0.  0.
          5    1    3    3  501    0 -0.25894440064E+02 -0.11381623084E+02  0.43145851967E+02  0.51804612847E+02  0.47000000000E+01 0. -1.
        -11    1    4    4    0    0  0.89055082853E+02  0.46928468537E+02 -0.12555595973E+01  0.10067107515E+03  0.00000000000E+00 0.  1.
         12    1    4    4    0    0  0.14583161501E+02  0.63099349507E+02  0.34395949206E+02  0.73329924515E+02  0.00000000000E+00 0. -1.
         -5    1    5    5    0  502 -0.82169714824E+02 -0.97242642096E+02  0.22317204992E+03  0.25697440990E+03  0.47000000000E+01 0.  1.
         11    1    6    6    0    0 -0.22556956263E+02 -0.47115848137E+01 -0.16545431878E+01  0.23103091145E+02  0.00000000000E+00 0. -1.
        -12    1    6    6    0    0  0.26982866797E+02  0.33080319495E+01  0.11207248227E+03  0.11532241524E+03  0.00000000000E+00 0.  1.
</event>
<event>
12    1  0.8526130E-002  0.1738777E+03  0.7818608E-02  0.1174722E+00
         21   -1    0    0  503  502  0.00000000000E+00  0.00000000000E+00  0.64078034506E+02  0.64078034506E+02  0.00000000000E+00 0.  1.
         21   -1    0    0  501  503 -0.00000000000E+00 -0.00000000000E+00 -0.46778219812E+03  0.46778219812E+03  0.00000000000E+00 0.  1.
          6    2    1    2  501    0  0.38773410053E+02  0.14523773156E+02 -0.22745890661E+03  0.28428027520E+03  0.16541887245E+03 0.  0.
         24    2    3    3    0    0  0.66630371165E+02 -0.37939899173E+02 -0.13646098683E+03  0.17550914576E+03  0.79390282832E+02 0.  0.
         -6    2    1    2    0  502 -0.38773410053E+02 -0.14523773156E+02 -0.17624525700E+03  0.24757995742E+03  0.16887607109E+03 0.  0.
        -24    2    5    5    0    0  0.33491468915E+02  0.19165450255E+02 -0.61179068126E+02  0.10751035212E+03  0.79539955131E+02 0.  0.
          5    1    3    3  501    0 -0.27856961111E+02  0.52463672329E+02 -0.90997919782E+02  0.10877112945E+03  0.47000000000E+01 0. -1.
        -13    1    4    4    0    0  0.68939093912E+02 -0.20478095692E+02 -0.50782069642E+02  0.88038455630E+02  0.00000000000E+00 0.  1.
         14    1    4    4    0    0 -0.23087227474E+01 -0.17461803481E+02 -0.85678917184E+02  0.87470690128E+02  0.00000000000E+00 0. -1.
         -5    1    5    5    0  502 -0.72264878969E+02 -0.33689223410E+02 -0.11506618887E+03  0.14006960530E+03  0.47000000000E+01 0.  1.
         13    1    6    6    0    0  0.72840512463E+01  0.48032907183E+02 -0.41202828310E+02  0.63701574829E+02  0.00000000000E+00 0. -1.
        -14    1    6    6    0    0  0.26207417669E+02 -0.28867456928E+02 -0.19976239816E+02  0.43808777289E+02  0.00000000000E+00 0.  1.
</event>
<event>
12    1  0.8526130E-002  0.1914509E+03  0.7818608E-02  0.1157358E+00
         21   -1    0    0  501  502  0.00000000000E+00  0.00000000000E+00  0.21884082269E+04  0.21884082269E+04  0.00000000000E+00 0.  1.
         21   -1    0    0  502  503 -0.00000000000E+00 -0.00000000000E+00 -0.16967512223E+02  0.16967512223E+02  0.00000000000E+00 0.  1.
         -6    2    1    2    0  503  0.73729690333E+02 -0.34881282519E+02  0.12338488033E+04  0.12486137557E+04  0.17320701549E+03 0.  0.
        -24    2    3    3    0    0  0.48666727363E+01  0.33143463520E+02  0.79145497332E+03  0.79572980573E+03  0.75251413635E+02 0.  0.
          6    2    1    2  501    0 -0.73729690333E+02  0.34881282519E+02  0.93759191130E+03  0.95676198343E+03  0.17222697142E+03 0.  0.
         24    2    5    5    0    0 -0.67278660959E+02  0.61627541915E+02  0.90789523599E+03  0.91600709788E+03  0.80441728488E+02 0.  0.
          5    1    5    5  501    0 -0.64510293744E+01 -0.26746259397E+02  0.29696675312E+02  0.40754885551E+02  0.47000000000E+01 0. -1.
        -11    1    6    6    0    0 -0.72565272605E+02  0.75493131308E+02  0.72674853560E+03  0.73425361127E+03  0.00000000000E+00 0.  1.
         12    1    6    6    0    0  0.52866116464E+01 -0.13865589393E+02  0.18114670039E+03  0.18175348661E+03  0.00000000000E+00 0. -1.
         -5    1    3    3    0  503  0.68863017597E+02 -0.68024746039E+02  0.44239383001E+03  0.45288394993E+03  0.47000000000E+01 0.  1.
         13    1    4    4    0    0 -0.87172960975E+01 -0.10645459825E+02  0.53707684037E+03  0.53725305911E+03  0.00000000000E+00 0. -1.
        -14    1    4    4    0    0  0.13583968834E+02  0.43788923345E+02  0.25437813295E+03  0.25847674661E+03  0.00000000000E+00 0.  1.
</event>
<event>
12    1  0.8526130E-002  0.2375240E+03  0.7818608E-02  0.1121477E+00
         21   -1    0    0  503  502  0.00000000000E+00  0.00000000000E+00  0.44177080162E+03  0.44177080162E+03  0.00000000000E+00 0. -1.
         21   -1    0    0  501  503 -0.00000000000E+00 -0.00000000000E+00 -0.14496819284E+03  0.14496819284E+03  0.00000000000E+00 0.  1.
          6    2    1    2  501    0  0.14867080095E+03 -0.71010973766E+02  0.46908873836E+02  0.24197165120E+03  0.17089257471E+03 0.  0.
         24    2    3    3    0    0  0.12664400404E+03  0.50290074839E+01  0.59806346293E+02  0.16162432190E+03  0.80508556655E+02 0.  0.
         -6    2    1    2    0  502 -0.14867080095E+03  0.71010973766E+02  0.24989373495E+03  0.34476734326E+03  0.17109084359E+03 0.  0.
        -24    2    5    5    0    0 -0.13880841460E+03  0.98830330352E+02  0.15010185804E+03  0.24059588862E+03  0.79502224303E+02 0.  0.
          5    1    3    3  501    0  0.22026796906E+02 -0.76039981250E+02 -0.12897472458E+02  0.80347329304E+02  0.47000000000E+01 0. -1.
        -13    1    4    4    0    0  0.44370358647E+01  0.10113532635E+02 -0.14714552885E+02  0.18398067731E+02  0.00000000000E+00 0.  1.
         14    1    4    4    0    0  0.12220696818E+03 -0.50845251515E+01  0.74520899179E+02  0.14322625416E+03  0.00000000000E+00 0. -1.
         -5    1    5    5    0  502 -0.98623863466E+01 -0.27819356586E+02  0.99791876907E+02  0.10417145464E+03  0.47000000000E+01 0.  1.
         11    1    6    6    0    0 -0.10286495244E+03  0.10807949080E+03  0.13238481850E+03  0.19946958400E+03  0.00000000000E+00 0. -1.
        -12    1    6    6    0    0 -0.35943462162E+02 -0.92491604463E+01  0.17717039540E+02  0.41126304614E+02  0.00000000000E+00 0.  1.
</event>
<event>
12    1  0.8526130E-002  0.1736770E+03  0.7818608E-02  0.1174257E+00
         21   -1    0    0  503  502  0.00000000000E+00  0.00000000000E+00  0.18267929136E+03  0.18267929136E+03  0.00000000000E+00 0.  1.
         21   -1    0    0  501  503 -0.00000000000E+00 -0.00000000000E+00 -0.32144052262E+03  0.32144052262E+03  0.00000000000E+00 0.  1.
          6    2    1    2  501    0 -0.17549992308E+02 -0.18529969978E+01 -0.24563397539E+03  0.30083178956E+03  0.17277812337E+03 0.  0.
         24    2    3    3    0    0 -0.42432319523E+02  0.14259462919E+02 -0.25399299958E+03  0.26967565280E+03  0.78795176600E+02 0.  0.
         -6    2    1    2    0  502  0.17549992308E+02  0.18529969978E+01  0.10687274413E+03  0.20328802443E+03  0.17202558417E+03 0.  0.
        -24    2    5    5    0    0 -0.86988860569E+01  0.54363607304E+02  0.23964286116E+02  0.10159107157E+03  0.81947461196E+02 0.  0.
          5    1    3    3  501    0  0.24882327215E+02 -0.16112459917E+02  0.83590241907E+01  0.31156136757E+02  0.47000000000E+01 0. -1.
        -11    1    4    4    0    0 -0.58236955983E+02  0.16454190219E+02 -0.11669374852E+03  0.13145232733E+03  0.00000000000E+00 0.  1.
         12    1    4    4    0    0  0.15804636460E+02 -0.21947273002E+01 -0.13729925106E+03  0.13822332546E+03  0.00000000000E+00 0. -1.
         -5    1    5    5    0  502  0.26248878365E+02 -0.52510610306E+02  0.82908458012E+02  0.10169695286E+03  0.47000000000E+01 0.  1.
         11    1    6    6    0    0 -0.27172352227E+02  0.80751788541E+01 -0.20354263805E+02  0.34897582927E+02  0.00000000000E+00 0. -1.
        -12    1    6    6    0    0  0.18473466170E+02  0.46288428450E+02  0.44318549920E+02  0.66693488646E+02  0.00000000000E+00 0.  1.
</event>
<event>
12    1  0.8526130E-002  0.2065969E+03  0.7818608E-02  0.1145026E+00
         21   -1    0    0  503  502  0.00000000000E+00  0.00000000000E+00  0.14405043664E+03  0.14405043664E+03  0.00000000000E+00 0.  1.
         21   -1    0    0  501  503 -0.00000000000E+00 -0.00000000000E+00 -0.34577074857E+03  0.34577074857E+03  0.00000000000E+00 0.  1.
          6    2    1    2  501    0  0.72665217529E+02  0.76039590069E+02 -0.19894830604E+03  0.28681475757E+03  0.17782020017E+03 0.  0.
         24    2    3    3    0    0  0.70070429662E+02  0.92807260601E+02 -0.70739511314E+02  0.15740273052E+03  0.79047380613E+02 0.  0.
         -6    2    1    2    0  502 -0.72665217529E+02 -0.76039590069E+02 -0.27720058874E+01  0.20300642764E+03  0.17361357249E+03 0.  0.
        -24    2    5    5    0    0 -0.23542606801E+02  0.18667996734E+02  0.28441429288E+02  0.91745803801E+02  0.81887906178E+02 0.  0.
          5    1    3    3  501    0  0.25947878669E+01 -0.16767670532E+02 -0.12820879473E+03  0.12941202705E+03  0.47000000000E+01 0. -1.
        -13    1    4    4    0    0  0.84059667183E+02  0.82817041305E+02 -0.74834506379E+02  0.13973150440E+03  0.00000000000E+00 0.  1.
         14    1    4    4    0    0 -0.13989237521E+02  0.99902192956E+01  0.40949950653E+01  0.17671226120E+02  0.00000000000E+00 0. -1.
         -5    1    5    5    0  502 -0.49122610728E+02 -0.94707586802E+02 -0.31213435176E+02  0.11126062384E+03  0.47000000000E+01 0.  1.
         11    1    6    6    0    0 -0.46194379938E+02  0.32590445091E+02  0.58128077977E+01  0.56831739227E+02  0.00000000000E+00 0. -1.
        -12    1    6    6    0    0  0.22651773137E+02 -0.13922448358E+02  0.22628621491E+02  0.34914064574E+02  0.00000000000E+00 0.  1.
</event>
<event>
12    1  0.8526130E-002  0.2302301E+03  0.7818608E-02  0.1127541E+00
         21   -1    0    0  503  502  0.00000000000E+00  0.00000000000E+00  0.11243825554E+04  0.11243825554E+04  0.00000000000E+00 0. -1.
         21   -1    0    0  501  503 -0.00000000000E+00 -0.00000000000E+00 -0.48591623121E+02  0.48591623121E+02  0.00000000000E+00 0. -1.
          6    2    1    2  501    0 -0.14386100703E+03  0.52598019986E+02  0.39394417182E+03  0.45330696282E+03  0.16380674887E+03 0.  0.
         24    2    3    3    0    0 -0.69091513511E+02 -0.34130047246E+02  0.18553354821E+03  0.21546392037E+03  0.77868518061E+02 0.  0.
         -6    2    1    2    0  502  0.14386100703E+03 -0.52598019986E+02  0.68184676046E+03  0.71966721571E+03  0.17188180696E+03 0.  0.
        -24    2    5    5    0    0  0.69240915761E+02 -0.13164700814E+02  0.57044833253E+03  0.57982857861E+03  0.76303779164E+02 0.  0.
          5    1    3    3  501    0 -0.74769493519E+02  0.86728067232E+02  0.20841062362E+03  0.23784304245E+03  0.47000000000E+01 0. -1.
        -13    1    4    4    0    0  0.16405943338E+02 -0.95778571813E+01  0.20263767682E+02  0.27776079738E+02  0.00000000000E+00 0.  1.
         14    1    4    4    0    0 -0.85497456849E+02 -0.24552190064E+02  0.16526978053E+03  0.18768784063E+03  0.00000000000E+00 0. -1.
         -5    1    5    5    0  502  0.74620091269E+02 -0.39433319172E+02  0.11139842793E+03  0.13983863711E+03  0.47000000000E+01 0.  1.
         13    1    6    6    0    0  0.74109313073E+02 -0.34372400568E+02  0.42778446586E+03  0.43551486936E+03  0.00000000000E+00 0. -1.
        -14    1    6    6    0    0 -0.48683973113E+01  0.21207699754E+02  0.14266386667E+03  0.14431370924E+03  0.00000000000E+00 0.  1.
</event>
<event>
12    1  0.8526130E-002  0.1850819E+03  0.7818608E-02  0.1163574E+00
         21   -1    0    0  503  502  0.00000000000E+00  0.00000000000E+00  0.20573082014E+04  0.20573082014E+04  0.00000000000E+00 0.  1.
         21   -1    0    0  501  503 -0.00000000000E+00 -0.00000000000E+00 -0.39822026118E+02  0.39822026118E+02  0.00000000000E+00 0.  1.
          6    2    1    2  501    0 -0.29924433825E+02  0.57073622106E+02  0.20206136425E+03  0.27229529329E+03  0.17077195831E+03 0.  0.
         24    2    3    3    0    0 -0.40407790840E+02  0.98826661366E+02  0.12579136542E+03  0.18458885234E+03  0.82765199431E+02 0.  0.
         -6    2    1    2    0  502  0.29924433825E+02 -0.57073622106E+02  0.18154248110E+04  0.18248349342E+04  0.17350049742E+03 0.  0.
        -24    2    5    5    0    0 -0.75204364869E+01 -0.61310032389E+02  0.58282431723E+03  0.59164957395E+03  0.80929330708E+02 0.  0.
          5    1    3    3  501    0  0.10483357015E+02 -0.41753039260E+02  0.76269998833E+02  0.87706440948E+02  0.47000000000E+01 0. -1.
        -13    1    4    4    0    0 -0.42993670153E+02  0.12758315191E+02  0.65856755942E+02  0.79676487015E+02  0.00000000000E+00 0.  1.
         14    1    4    4    0    0  0.25858793129E+01  0.86068346175E+02  0.59934609477E+02  0.10491236533E+03  0.00000000000E+00 0. -1.
         -5    1    5    5    0  502  0.37444870312E+02  0.42364102835E+01  0.12326004938E+04  0.12331853603E+04  0.47000000000E+01 0.  1.
         11    1    6    6    0    0  0.28110854678E+02 -0.46157889029E+02  0.21086883684E+03  0.21768426038E+03  0.00000000000E+00 0. -1.
        -12    1    6    6    0    0 -0.35631291165E+02 -0.15152143360E+02  0.37195548039E+03  0.37396531357E+03  0.00000000000E+00 0.  1.
</event>
<event>
12    1  0.8526130E-002  0.1980506E+03  0.7818608E-02  0.1152086E+00
         21   -1    0    0  501  502  0.00000000000E+00  0.00000000000E+00  0.26141160060E+03  0.26141160060E+03  0.00000000000E+00 0. -1.
         21   -1    0    0  502  503 -0.00000000000E+00 -0.00000000000E+00 -0.21498978144E+03  0.21498978144E+03  0.00000000000E+00 0. -1.
         -6    2    1    2    0  503 -0.89976526414E+02  0.74268186187E+01 -0.11025250545E+03  0.22387244163E+03  0.17266245169E+03 0.  0.
        -24    2    3    3    0    0 -0.35436787487E+02 -0.25299595072E+02  0.61715629967E+01  0.91123599871E+02  0.79809691425E+02 0.  0.
          6    2    1    2  501    0  0.89976526414E+02 -0.74268186187E+01  0.15667432461E+03  0.25252894041E+03  0.17627560470E+03 0.  0.
         24    2    5    5    0    0  0.39357164852E+01 -0.47301176222E+02  0.15247104156E+02  0.82185950969E+02  0.65338849204E+02 0.  0.
          5    1    5    5  501    0  0.86040809929E+02  0.39874357603E+02  0.14142722045E+03  0.17034298944E+03  0.47000000000E+01 0. -1.
        -13    1    6    6    0    0 -0.30859324986E+01 -0.80892424072E+01 -0.24456108516E+02  0.25943401201E+02  0.00000000000E+00 0.  1.
         14    1    6    6    0    0  0.70216489838E+01 -0.39211933815E+02  0.39703212672E+02  0.56242549768E+02  0.00000000000E+00 0. -1.
         -5    1    3    3    0  503 -0.54539738927E+02  0.32726413691E+02 -0.11642406845E+03  0.13274884176E+03  0.47000000000E+01 0.  1.
         13    1    4    4    0    0 -0.54342309384E+01  0.23254795544E+02 -0.17217849040E+02  0.29440969876E+02  0.00000000000E+00 0. -1.
        -14    1    4    4    0    0 -0.30002556548E+02 -0.48554390616E+02  0.23389412037E+02  0.61682629994E+02  0.00000000000E+00 0.  1.
</event>
<event>
12    1  0.8526130E-002  0.2237872E+03  0.7818608E-02  0.1131185E+00
         21   -1    0    0  501  502  0.00000000000E+00  0.00000000000E+00  0.29572858457E+03  0.29572858457E+03  0.00000000000E+00 0.  1.
         21   -1    0    0  502  503 -0.00000000000E+00 -0.00000000000E+00 -0.24241512461E+03  0.24241512461E+03  0.00000000000E+00 0.  1.
         -6    2    1    2    0  503 -0.13982182761E+03 -0.32192824782E+02 -0.12148429439E+03  0.25418071800E+03  0.17106397101E+03 0.  0.
        -24    2    3    3    0    0  0.92914419419E+01 -0.47118792321E+01 -0.28431408766E+02  0.76217522236E+02  0.69944499371E+02 0.  0.
          6    2    1    2  501    0  0.13982182761E+03  0.32192824782E+02  0.17479775436E+03  0.28396299118E+03  0.17173876669E+03 0.  0.
         24    2    5    5    0    0  0.15709634936E+03  0.43786853516E+02  0.18577852717E+03  0.25997345230E+03  0.80473493907E+02 0.  0.
          5    1    5    5  501    0 -0.17274521749E+02 -0.11594028735E+02 -0.10980772809E+02  0.23989538875E+02  0.47000000000E+01 0. -1.
        -13    1    6    6    0    0  0.10221758317E+03  0.11811435828E+01  0.15081711298E+03  0.18219668212E+03  0.00000000000E+00 0.  1.
         14    1    6    6    0    0  0.54878766191E+02  0.42605709934E+02  0.34961414194E+02  0.77776770183E+02  0.00000000000E+00 0. -1.
         -5    1    3    3    0  503 -0.14911326955E+03 -0.27480945549E+02 -0.93052885629E+02  0.17796319577E+03  0.47000000000E+01 0.  1.
         13    1    4    4    0    0  0.10481218583E+02  0.23647320951E+02  0.10602456939E+02  0.27954674462E+02  0.00000000000E+00 0. -1.
        -14    1    4    4    0    0 -0.11897766407E+01 -0.28359200183E+02 -0.39033865704E+02  0.48262847775E+02  0.00000000000E+00 0.  1.
</event>
<event>
12    1  0.8526130E-002  0.2636737E+03  0.7818608E-02  0.1105162E+00
         21   -1    0    0  501  502  0.00000000000E+00  0.00000000000E+00  0.91436154929E+02  0.91436154929E+02  0.00000000000E+00 0. -1.
         21   -1    0    0  502  503 -0.00000000000E+00 -0.00000000000E+00 -0.12018131351E+04  0.12018131351E+04  0.00000000000E+00 0. -1.
         -6    2    1    2    0  503 -0.10472896478E+03  0.16731668844E+03 -0.94794163668E+03  0.98355740599E+03  0.17271014455E+03 0.  0.
        -24    2    3    3    0    0 -0.31836538805E+02  0.79496843995E+01 -0.30139779385E+03  0.31366772967E+03  0.80436632279E+02 0.  0.
          6    2    1    2  501    0  0.10472896478E+03 -0.16731668844E+03 -0.16243534346E+03  0.30969188400E+03  0.17481645208E+03 0.  0.
         24    2    5    5    0    0  0.11813882289E+03 -0.60200234417E+02 -0.98780214099E+02  0.18428126041E+03  0.81370772037E+02 0.  0.
          5    1    5    5  501    0 -0.13409858111E+02 -0.10711645402E+03 -0.63655129358E+02  0.12541062360E+03  0.47000000000E+01 0. -1.
        -11    1    6    6    0    0  0.23883321560E+02  0.20280147694E+02 -0.24623811966E+02  0.39850088519E+02  0.00000000000E+00 0.  1.
         12    1    6    6    0    0  0.94255501333E+02 -0.80480382111E+02 -0.74156402133E+02  0.14443117189E+03  0.00000000000E+00 0. -1.
         -5    1    3    3    0  503 -0.72892425977E+02  0.15936700404E+03 -0.64654384283E+03  0.66988967632E+03  0.47000000000E+01 0.  1.
         11    1    4    4    0    0  0.18219041214E+01  0.39450200758E+02 -0.11265457121E+03  0.11937625429E+03  0.00000000000E+00 0. -1.
        -12    1    4    4    0    0 -0.33658442926E+02 -0.31500516358E+02 -0.18874322264E+03  0.19429147538E+03  0.00000000000E+00 0.  1.
</event>
<event>
12    1  0.8526130E-002  0.2333503E+03  0.7818608E-02  0.1124625E+00
         21   -1    0    0  501  502  0.00000000000E+00  0.00000000000E+00  0.60163359417E+02  0.60163359417E+02  0.00000000000E+00 0. -1.
         21   -1    0    0  502  503 -0.00000000000E+00 -0.00000000000E+00 -0.95314375867E+03  0.95314375867E+03  0.00000000000E+00 0. -1.
         -6    2    1    2    0  503 -0.42248008783E+02 -0.15204388577E+03 -0.57012510881E+03  0.61603166844E+03  0.17190153980E+03 0.  0.
        -24    2    3    3    0    0 -0.65315554443E+02 -0.30800919930E+02 -0.27793618702E+03  0.29881183230E+03  0.82614579497E+02 0.  0.
          6    2    1    2  501    0  0.42248008783E+02  0.15204388577E+03 -0.32285529045E+03  0.39727544965E+03  0.16938124712E+03 0.  0.
         24    2    5    5    0    0  0.46024652413E+02  0.15883268811E+02 -0.10977294795E+03  0.14433246925E+03  0.80070061327E+02 0.  0.
          5    1    5    5  501    0 -0.37766436303E+01  0.13616061696E+03 -0.21308234250E+03  0.25294298040E+03  0.47000000000E+01 0. -1.
        -11    1    6    6    0    0 -0.85029336585E+01 -0.22417993488E+02 -0.47116788976E+02  0.52866417660E+02  0.00000000000E+00 0.  1.
         12    1    6    6    0    0  0.54527586072E+02  0.38301262298E+02 -0.62656158975E+02  0.91466051592E+02  0.00000000000E+00 0. -1.
         -5    1    3    3    0  503  0.23067545660E+02 -0.12124296584E+03 -0.29218892179E+03  0.31721983615E+03  0.47000000000E+01 0.  1.
         13    1    4    4    0    0 -0.31698441354E+02  0.11993613393E+02 -0.20515223971E+03  0.20793287236E+03  0.00000000000E+00 0. -1.
        -14    1    4    4    0    0 -0.33617113089E+02 -0.42794533323E+02 -0.72783947306E+02  0.90878959942E+02  0.00000000000E+00 0.  1.
</event>
<event>
12    1  0.8526130E-002  0.1828031E+03  0.7818608E-02  0.1165384E+00
         21   -1    0    0  501  502  0.00000000000E+00  0.00000000000E+00  0.57461200283E+03  0.57461200283E+03  0.00000000000E+00 0. -1.
         21   -1    0    0  502  503 -0.00000000000E+00 -0.00000000000E+00 -0.27958648602E+03  0.27958648602E+03  0.00000000000E+00 0. -1.
         -6    2    1    2    0  503  0.63861443506E+02 -0.11755883620E+02 -0.23297930240E+03  0.29544446207E+03  0.16968084763E+03 0.  0.
        -24    2    3    3    0    0  0.36221279991E+02  0.58585955771E+02 -0.13512046755E+03  0.17170928289E+03  0.80512370116E+02 0.  0.
          6    2    1    2  501    0 -0.63861443506E+02  0.11755883620E+02  0.52800481921E+03  0.55875402678E+03  0.17088150445E+03 0.  0.
         24    2    5    5    0    0 -0.51572389075E+02  0.50354565689E+02  0.49379592950E+03  0.50552605244E+03  0.80789084096E+02 0.  0.
          5    1    5    5  501    0 -0.12289054431E+02 -0.38598682069E+02  0.34208889716E+02  0.53227974336E+02  0.47000000000E+01 0. -1.
        -11    1    6    6    0    0 -0.44121804885E+02  0.26160148459E+02  0.11542548871E+03  0.12630966107E+03  0.00000000000E+00 0.  1.
         12    1    6    6    0    0 -0.74505841898E+01  0.24194417230E+02  0.37837044078E+03  0.37921639138E+03  0.00000000000E+00 0. -1.
         -5    1    3    3    0  503  0.27640163516E+02 -0.70341839391E+02 -0.97858834850E+02  0.12373517918E+03  0.47000000000E+01 0.  1.
         11    1    4    4    0    0  0.36976458648E+02 -0.71997538084E+01 -0.67908277025E+02  0.77657124835E+02  0.00000000000E+00 0. -1.
        -12    1    4    4    0    0 -0.75517865732E+00  0.65785709579E+02 -0.67212190528E+02  0.94052158057E+02  0.00000000000E+00 0.  1.
</event>
<event>
12    1  0.8526130E-002  0.1796566E+03  0.7818608E-02  0.1168482E+00
         21   -1    0    0  503  502  0.00000000000E+00  0.00000000000E+00  0.56075904283E+03  0.56075904283E+03  0.00000000000E+00 0. -1.
         21   -1    0    0  501  503 -0.00000000000E+00 -0.00000000000E+00 -0.67952294809E+02  0.67952294809E+02  0.00000000000E+00 0. -1.
          6    2    1    2  501    0  0.36405328857E+02 -0.33482729651E+02  0.11997576776E+03  0.21485213784E+03  0.17123321854E+03 0.  0.
         24    2    3    3    0    0  0.39202974426E+01  0.29503363024E+02  0.11952194942E+03  0.14382523387E+03  0.74258900773E+02 0.  0.
         -6    2    1    2    0  502 -0.36405328857E+02  0.33482729651E+02  0.37283098026E+03  0.41385919979E+03  0.17271379869E+03 0.  0.
        -24    2    5    5    0    0  0.38727011165E+02 -0.15171857401E+02  0.18206890035E+03  0.20308823764E+03  0.79785845484E+02 0.  0.
          5    1    3    3  501    0  0.32485031414E+02 -0.62986092675E+02  0.45381833947E+00  0.71026903970E+02  0.47000000000E+01 0. -1.
        -11    1    4    4    0    0 -0.22976968588E+02  0.34558318187E+02  0.10486804284E+03  0.11278087095E+03  0.00000000000E+00 0.  1.
         12    1    4    4    0    0  0.26897266030E+02 -0.50549551632E+01  0.14653906572E+02  0.31044362925E+02  0.00000000000E+00 0. -1.
         -5    1    5    5    0  502 -0.75132340021E+02  0.48654587052E+02  0.19076207991E+03  0.21077096216E+03  0.47000000000E+01 0.  1.
         13    1    6    6    0    0  0.27818871738E+02 -0.42931115744E+02  0.67465551123E+02  0.84667413519E+02  0.00000000000E+00 0. -1.
        -14    1    6    6    0    0  0.10908139427E+02  0.27759258344E+02  0.11460334923E+03  0.11842082412E+03  0.00000000000E+00 0.  1.
</event>
<event>
12    1  0.8526130E-002  0.1959494E+03  0.7818608E-02  0.1153571E+00
         21   -1    0    0  501  502  0.00000000000E+00  0.00000000000E+00  0.14562916106E+03  0.14562916106E+03  0.00000000000E+00 0. -1.
         21   -1    0    0  502  503 -0.00000000000E+00 -0.00000000000E+00 -0.38488903674E+03  0.38488903674E+03  0.00000000000E+00 0. -1.
         -6    2    1    2    0  503 -0.49271452487E+01 -0.91170423819E+02 -0.26953731981E+03  0.33224336520E+03  0.17146126095E+03 0.  0.
        -24    2    3    3    0    0  0.63161002744E+02 -0.66446371883E+02 -0.17454421431E+03  0.21268980091E+03  0.79792456142E+02 0.  0.
          6    2    1    2  501    0  0.49271452487E+01  0.91170423819E+02  0.30277444130E+02  0.19827483260E+03  0.17337780331E+03 0.  0.
         24    2    5    5    0    0 -0.34654021443E+02  0.19778473469E+02 -0.32523016889E+02  0.95175524964E+02  0.80053386623E+02 0.  0.
          5    1    5    5  501    0  0.39581166691E+02  0.71391950350E+02  0.62800461018E+02  0.10309930764E+03  0.47000000000E+01 0. -1.
        -13    1    6    6    0    0  0.24396054937E+02  0.18090434784E+02 -0.11195412664E+02  0.32369253804E+02  0.00000000000E+00 0.  1.
         14    1    6    6    0    0 -0.59050076380E+02  0.16880386851E+01 -0.21327604225E+02  0.62806271160E+02  0.00000000000E+00 0. -1.
         -5    1    3    3    0  503 -0.68088147993E+02 -0.24724051936E+02 -0.94993105502E+02  0.11955356429E+03  0.47000000000E+01 0.  1.
         11    1    4    4    0    0 -0.30616720616E+01 -0.40318960119E+02 -0.10768335054E+03  0.11502476413E+03  0.00000000000E+00 0. -1.
        -12    1    4    4    0    0  0.66222674806E+02 -0.26127411765E+02 -0.66860863774E+02  0.97665036777E+02  0.00000000000E+00 0.  1.
</event>
<event>
12    1  0.8526130E-002  0.2424940E+03  0.7818608E-02  0.1119033E+00
         21   -1    0    0  501  502  0.00000000000E+00  0.00000000000E+00  0.51969083737E+03  0.51969083737E+03  0.00000000000E+00 0. -1.
         21   -1    0    0  502  503 -0.00000000000E+00 -0.00000000000E+00 -0.15535196499E+03  0.15535196499E+03  0.00000000000E+00 0. -1.
         -6    2    1    2    0  503  0.10695456472E+03 -0.12408585739E+03  0.26041432462E+01  0.24250797414E+03  0.17879249716E+03 0.  0.
        -24    2    3    3    0    0  0.13729638744E+03 -0.73953221039E+02 -0.25318185846E+02  0.17742607270E+03  0.80744187597E+02 0.  0.
          6    2    1    2  501    0 -0.10695456472E+03  0.12408585739E+03  0.36173472914E+03  0.43253482821E+03  0.17145782115E+03 0.  0.
         24    2    5    5    0    0 -0.16255055877E+02  0.46086913046E+02  0.67205902631E+02  0.11460471660E+03  0.78926404476E+02 0.  0.
          5    1    5    5  501    0 -0.90699508845E+02  0.77998944349E+02  0.29452882651E+03  0.31793011161E+03  0.47000000000E+01 0. -1.
        -13    1    6    6    0    0  0.29386063833E+01  0.31296326671E+02  0.80885402946E+02  0.86778706376E+02  0.00000000000E+00 0.  1.
         14    1    6    6    0    0 -0.19193662260E+02  0.14790586375E+02 -0.13679500315E+02  0.27826010227E+02  0.00000000000E+00 0. -1.
         -5    1    3    3    0  503 -0.30341822722E+02 -0.50132636356E+02  0.27922329092E+02  0.65081901448E+02  0.47000000000E+01 0.  1.
         13    1    4    4    0    0  0.30022299890E+02 -0.23021452579E+02 -0.43102207878E+02  0.57350903162E+02  0.00000000000E+00 0. -1.
        -14    1    4    4    0    0  0.10727408755E+03 -0.50931768460E+02  0.17784022032E+02  0.12007516953E+03  0.00000000000E+00 0.  1.
</event>
<event>
12    1  0.8526130E-002  0.1875310E+03  0.7818608E-02  0.1161742E+00
         21   -1    0    0  501  502  0.00000000000E+00  0.00000000000E+00  0.87136466350E+03  0.87136466350E+03  0.00000000000E+00 0. -1.
         21   -1    0    0  502  503 -0.00000000000E+00 -0.00000000000E+00 -0.59716152326E+02  0.59716152326E+02  0.00000000000E+00 0. -1.
         -6    2    1    2    0  503 -0.59743616119E+02 -0.11785603518E+02  0.13756194387E+03  0.23257504843E+03  0.17736872507E+03 0.  0.
        -24    2    3    3    0    0 -0.38500996619E+01 -0.36823102826E+02  0.78311889963E+01  0.89037177771E+02  0.80594834420E+02 0.  0.
          6    2    1    2  501    0  0.59743616119E+02  0.11785603518E+02  0.67408656730E+03  0.69850576739E+03  0.17265400877E+03 0.  0.
         24    2    5    5    0    0  0.70859516947E+02  0.39590025282E+02  0.64967035904E+03  0.65958417510E+03  0.79945402482E+02 0.  0.
          5    1    5    5  501    0 -0.11115900828E+02 -0.27804421764E+02  0.24416208257E+02  0.38921592292E+02  0.47000000000E+01 0. -1.
        -11    1    6    6    0    0 -0.35354289764E+01  0.32610406182E+02  0.31340660590E+03  0.31511845149E+03  0.00000000000E+00 0.  1.
         12    1    6    6    0    0  0.74394945923E+02  0.69796191001E+01  0.33626375314E+03  0.34446572361E+03  0.00000000000E+00 0. -1.
         -5    1    3    3    0  503 -0.55893516457E+02  0.25037499308E+02  0.12973075488E+03  0.14353787066E+03  0.47000000000E+01 0.  1.
         13    1    4    4    0    0 -0.28574695593E+02  0.52646326546E+01  0.23926635574E+02  0.37639254444E+02  0.00000000000E+00 0. -1.
        -14    1    4    4    0    0  0.24724595931E+02 -0.42087735481E+02 -0.16095446577E+02  0.51397923327E+02  0.00000000000E+00 0.  1.
</event>
<event>
12    1  0.8526130E-002  0.1851018E+03  0.7818608E-02  0.1164720E+00
         21   -1    0    0  503  502  0.00000000000E+00  0.00000000000E+00  0.37555171673E+02  0.37555171673E+02  0.00000000000E+00 0. -1.
         21   -1    0    0  501  503 -0.00000000000E+00 -0.00000000000E+00 -0.10609144877E+04  0.10609144877E+04  0.00000000000E+00 0. -1.
          6    2    1    2  501    0  0.10178287687E+02 -0.44719779348E+02 -0.29117362051E+03  0.34502862921E+03  0.17932992356E+03 0.  0.
         24    2    3    3    0    0  0.46769636020E+02 -0.14080050554E+02 -0.28064761743E+03  0.29593070161E+03  0.80163884074E+02 0.  0.
         -6    2    1    2    0  502 -0.10178287687E+02  0.44719779348E+02 -0.73218569553E+03  0.75344103018E+03  0.17168004257E+03 0.  0.
        -24    2    5    5    0    0  0.38627887014E+02  0.65762893735E+02 -0.33852763915E+03  0.35618341766E+03  0.80304375349E+02 0.  0.
          5    1    3    3  501    0 -0.36591348333E+02 -0.30639728794E+02 -0.10526003084E+02  0.49097927597E+02  0.47000000000E+01 0. -1.
        -13    1    4    4    0    0  0.78988783740E+01  0.29945183850E+02 -0.58997376843E+02  0.66631800139E+02  0.00000000000E+00 0.  1.
         14    1    4    4    0    0  0.38870757646E+02 -0.44025234403E+02 -0.22165024059E+03  0.22929890147E+03  0.00000000000E+00 0. -1.
         -5    1    5    5    0  502 -0.48806174701E+02 -0.21043114387E+02 -0.39365805638E+03  0.39725761252E+03  0.47000000000E+01 0.  1.
         11    1    6    6    0    0  0.49940694178E+02  0.73495205681E+02 -0.32499977959E+03  0.33692799665E+03  0.00000000000E+00 0. -1.
        -12    1    6    6    0    0 -0.11312807163E+02 -0.77323119461E+01 -0.13527859553E+02  0.19255421004E+02  0.00000000000E+00 0.  1.
</event>
<event>
12    1  0.8526130E-002  0.1740844E+03  0.7818608E-02  0.1175576E+00
         21   -1    0    0  501  502  0.00000000000E+00  0.00000000000E+00  0.33019345458E+03  0.33019345458E+03  0.00000000000E+00 0.  1.
         21   -1    0    0  502  503 -0.00000000000E+00 -0.00000000000E+00 -0.11780416160E+03  0.11780416160E+03  0.00000000000E+00 0.  1.
         -6    2    1    2    0  503 -0.21418242288E+02 -0.15177790285E+02 -0.49046420762E+01  0.17415344081E+03  0.17209375064E+03 0.  0.
        -24    2    3    3    0    0  0.42306252248E+02 -0.21118467098E+02  0.33167710154E+02  0.99536439735E+02  0.81065388462E+02 0.  0.
          6    2    1    2  501    0  0.21418242288E+02  0.15177790285E+02  0.21729393506E+03  0.27384417536E+03  0.16457482112E+03 0.  0.
         24    2    5    5    0    0 -0.40057607986E+01  0.67254435179E+02  0.10907017167E+03  0.15099129653E+03  0.79767563008E+02 0.  0.
          5    1    5    5  501    0  0.25424003086E+02 -0.52076644895E+02  0.10822376339E+03  0.12285287884E+03  0.47000000000E+01 0. -1.
        -13    1    6    6    0    0 -0.20519858375E+02  0.57525316266E+02  0.11560012702E+03  0.13074255606E+03  0.00000000000E+00 0.  1.
         14    1    6    6    0    0  0.16514097577E+02  0.97291189137E+01 -0.65299553475E+01  0.20248740466E+02  0.00000000000E+00 0. -1.
         -5    1    3    3    0  503 -0.63724494536E+02  0.59406768134E+01 -0.38072352230E+02  0.74617001073E+02  0.47000000000E+01 0.  1.
         13    1    4    4    0    0  0.20469312273E+02  0.79521869043E+01  0.53533494358E+02  0.57862466588E+02  0.00000000000E+00 0. -1.
        -14    1    4    4    0    0  0.21836939975E+02 -0.29070654002E+02 -0.20365784204E+02  0.41673973147E+02  0.00000000000E+00 0.  1.
</event>
<event>
12    1  0.8526130E-002  0.2443978E+03  0.7818608E-02  0.1117936E+00
         21   -1    0    0  503  502  0.00000000000E+00  0.00000000000E+00  0.36936348948E+03  0.36936348948E+03  0.00000000000E+00 0. -1.
         21   -1    0    0  501  503 -0.00000000000E+00 -0.00000000000E+00 -0.22717823613E+03  0.22717823613E+03  0.00000000000E+00 0. -1.
          6    2    1    2  501    0  0.75004272227E+02  0.14593782293E+03 -0.94640485252E+02  0.25622320101E+03  0.17253990342E+03 0.  0.
         24    2    3    3    0    0  0.48871294604E+02  0.98980831997E+02  0.13916853106E+02  0.13500159721E+03  0.76460080490E+02 0.  0.
         -6    2    1    2    0  502 -0.75004272227E+02 -0.14593782293E+03  0.23682573861E+03  0.34031852460E+03  0.18112641637E+03 0.  0.
        -24    2    5    5    0    0 -0.79964681192E+02 -0.16368825305E+03  0.24818549803E+03  0.31816412187E+03  0.80275603926E+02 0.  0.
          5    1    3    3  501    0  0.26132977623E+02  0.46956990930E+02 -0.10855733836E+03  0.12122160380E+03  0.47000000000E+01 0. -1.
        -13    1    4    4    0    0 -0.69999395553E+01 -0.97262955289E+01 -0.34830763758E-01  0.11983371465E+02  0.00000000000E+00 0.  1.
         14    1    4    4    0    0  0.55871234160E+02  0.10870712753E+03  0.13951683870E+02  0.12301822574E+03  0.00000000000E+00 0. -1.
         -5    1    5    5    0  502  0.49604089654E+01  0.17750430122E+02 -0.11359759419E+02  0.22154402738E+02  0.47000000000E+01 0.  1.
         11    1    6    6    0    0 -0.92068161678E+02 -0.12802751396E+03  0.22195221036E+03  0.27226893765E+03  0.00000000000E+00 0. -1.
        -12    1    6    6    0    0  0.12103480486E+02 -0.35660739087E+02  0.26233287670E+02  0.45895184215E+02  0.00000000000E+00 0.  1.
</event>
<event>
12    1  0.8526130E-002  0.1820201E+03  0.7818608E-02  0.1166002E+00
         21   -1    0    0  501  502  0.00000000000E+00  0.00000000000E+00  0.69220603740E+02  0.69220603740E+02  0.00000000000E+00 0. -1.
         21   -1    0    0  502  503 -0.00000000000E+00 -0.00000000000E+00 -0.48073432275E+03  0.48073432275E+03  0.00000000000E+00 0. -1.
         -6    2    1    2    0  503  0.11294182239E+02 -0.56144638253E+02 -0.22936353759E+03  0.29244762260E+03  0.17215748786E+03 0.  0.
        -24    2    3    3    0    0 -0.13384542285E+02  0.10717261985E+02 -0.19875656538E+03  0.21474028770E+03  0.79468315730E+02 0.  0.
          6    2    1    2  501    0 -0.11294182239E+02  0.56144638253E+02 -0.18215018142E+03  0.25750730390E+03  0.17277599374E+03 0.  0.
         24    2    5    5    0    0 -0.58618994368E+02 -0.85736225451E+01 -0.80188434894E+02  0.12771370283E+03  0.79817988546E+02 0.  0.
          5    1    5    5  501    0  0.47324812129E+02  0.64718260799E+02 -0.10196174652E+03  0.12979360107E+03  0.47000000000E+01 0. -1.
        -13    1    6    6    0    0 -0.17576956440E+02 -0.27670076378E+02 -0.75370729254E+02  0.82190810634E+02  0.00000000000E+00 0.  1.
         14    1    6    6    0    0 -0.41042037928E+02  0.19096453833E+02 -0.48177056403E+01  0.45522892196E+02  0.00000000000E+00 0. -1.
         -5    1    3    3    0  503  0.24678724524E+02 -0.66861900238E+02 -0.30606972214E+02  0.77707334890E+02  0.47000000000E+01 0.  1.
         13    1    4    4    0    0 -0.39961220703E+02 -0.97172562794E+01 -0.65575246509E+02  0.77404374452E+02  0.00000000000E+00 0. -1.
        -14    1    4    4    0    0  0.26576678418E+02  0.20434518264E+02 -0.13318131887E+03  0.13733591325E+03  0.00000000000E+00 0.  1.
</event>
<event>
12    1  0.8526130E-002  0.1865452E+03  0.7818608E-02  0.1161851E+00
         21   -1    0    0  503  502  0.00000000000E+00  0.00000000000E+00  0.11726501464E+03  0.11726501464E+03  0.00000000000E+00 0. -1.
         21   -1    0    0  501  503 -0.00000000000E+00 -0.00000000000E+00 -0.44635797015E+03  0.44635797015E+03  0.00000000000E+00 0. -1.
          6    2    1    2  501    0  0.68036192184E+02  0.21165316864E+02 -0.32887522451E+03  0.37809788181E+03  0.17240127855E+03 0.  0.
         24    2    3    3    0    0  0.15664468155E+02  0.19055358260E+02 -0.57474960637E+02  0.10164274506E+03  0.80121122572E+02 0.  0.
         -6    2    1    2    0  502 -0.68036192184E+02 -0.21165316864E+02 -0.21773099620E+00  0.18552510298E+03  0.17129688364E+03 0.  0.
        -24    2    5    5    0    0 -0.73336494247E+02 -0.20423809252E+02  0.61145485636E+02  0.12374988634E+03  0.76025591633E+02 0.  0.
          5    1    3    3  501    0  0.52371724030E+02  0.21099586037E+01 -0.27140026388E+03  0.27645513675E+03  0.47000000000E+01 0. -1.
        -11    1    4    4    0    0 -0.19963261681E+02 -0.96393855077E+01 -0.50781346750E+02  0.55409338091E+02  0.00000000000E+00 0.  1.
         12    1    4    4    0    0  0.35627729836E+02  0.28694743768E+02 -0.66936138868E+01  0.46233406970E+02  0.00000000000E+00 0. -1.
         -5    1    5    5    0  502  0.53003020625E+01 -0.74150761221E+00 -0.61363216632E+02  0.61775216640E+02  0.47000000000E+01 0.  1.
         11    1    6    6    0    0 -0.40747254617E+02 -0.27643467950E+02  0.73234794084E+02  0.88248711853E+02  0.00000000000E+00 0. -1.
        -12    1    6    6    0    0 -0.32589239630E+02  0.72196586980E+01 -0.12089308448E+02  0.35501174489E+02  0.00000000000E+00 0.  1.
</event>
<event>
12    1  0.8526130E-002  0.2127562E+03  0.7818608E-02  0.1139545E+00
         21   -1    0    0  503  502  0.00000000000E+00  0.00000000000E+00  0.18843793879E+04  0.18843793879E+04  0.00000000000E+00 0. -1.
         21   -1    0    0  501  503 -0.00000000000E+00 -0.00000000000E+00 -0.39519550180E+02  0.39519550180E+02  0.00000000000E+00 0.  1.
          6    2    1    2  501    0  0.11958724267E+03  0.31653732872E+02  0.31938586541E+03  0.38376101564E+03  0.17309569228E+03 0.  0.
         24    2    3    3    0    0  0.12196197928E+03  0.24139041854E+01  0.32243732316E+03  0.35389450680E+03  0.79968389064E+02 0.  0.
         -6    2    1    2    0  502 -0.11958724267E+03 -0.31653732872E+02  0.15254739724E+04  0.15401379225E+04  0.17219440330E+03 0.  0.
        -24    2    5    5    0    0 -0.16144748106E+02 -0.56550703229E+02  0.94129597070E+03  0.94633135766E+03  0.77757952016E+02 0.  0.
          5    1    3    3  501    0 -0.23747366098E+01  0.29239828686E+02 -0.30514577593E+01  0.29866508836E+02  0.47000000000E+01 0. -1.
        -11    1    4    4    0    0  0.28611937470E+02  0.29671968024E+02  0.51077062143E+02  0.65634860626E+02  0.00000000000E+00 0.  1.
         12    1    4    4    0    0  0.93350041813E+02 -0.27258063839E+02  0.27136026102E+03  0.28825964617E+03  0.00000000000E+00 0. -1.
         -5    1    5    5    0  502 -0.10344249457E+03  0.24896970357E+02  0.58417800165E+03  0.59380656482E+03  0.47000000000E+01 0.  1.
         13    1    6    6    0    0 -0.19810493310E+02  0.11010121340E+02  0.42738570200E+03  0.42798623423E+03  0.00000000000E+00 0. -1.
        -14    1    6    6    0    0  0.36657452031E+01 -0.67560824569E+02  0.51391026871E+03  0.51834512343E+03  0.00000000000E+00 0.  1.
</event>
<event>
12    1  0.8526130E-002  0.1818542E+03  0.7818608E-02  0.1167170E+00
         21   -1    0    0  501  502  0.00000000000E+00  0.00000000000E+00  0.61674260598E+03  0.61674260598E+03  0.00000000000E+00 0. -1.
         21   -1    0    0  502  503 -0.00000000000E+00 -0.00000000000E+00 -0.67514590573E+02  0.67514590573E+02  0.00000000000E+00 0. -1.
         -6    2    1    2    0  503 -0.50098730892E+02 -0.24942908693E+01  0.11465528697E+03  0.21498092189E+03  0.17479947833E+03 0.  0.
        -24    2    3    3    0    0 -0.38563400978E+02  0.69568870131E+01  0.15011821016E+03  0.17622401901E+03  0.83569693576E+02 0.  0.
          6    2    1    2  501    0  0.50098730892E+02  0.24942908693E+01  0.43457272844E+03  0.46927627466E+03  0.16985482429E+03 0.  0.
         24    2    5    5    0    0  0.79663584417E+02  0.44458212453E+02  0.33957934067E+03  0.36119813165E+03  0.82626523319E+02 0.  0.
          5    1    5    5  501    0 -0.29564853525E+02 -0.41963921584E+02  0.94993387761E+02  0.10807814301E+03  0.47000000000E+01 0. -1.
        -11    1    6    6    0    0 -0.40586056477E+01  0.38840485711E+02  0.10046182891E+03  0.10778513199E+03  0.00000000000E+00 0.  1.
         12    1    6    6    0    0  0.83722190065E+02  0.56177267415E+01  0.23911751176E+03  0.25341299965E+03  0.00000000000E+00 0. -1.
         -5    1    3    3    0  503 -0.11535329913E+02 -0.94511778824E+01 -0.35462923189E+02  0.38756902877E+02  0.47000000000E+01 0.  1.
         13    1    4    4    0    0  0.36591476003E+01  0.22351451341E+02  0.12001177529E+03  0.12213027039E+03  0.00000000000E+00 0. -1.
        -14    1    4    4    0    0 -0.42222548579E+02 -0.15394564328E+02  0.30106434868E+02  0.54093748621E+02  0.00000000000E+00 0.  1.
</event>
<event>
12    1  0.8526130E-002  0.1855621E+03  0.7818608E-02  0.1162843E+00
         21   -1    0    0  501  502  0.00000000000E+00  0.00000000000E+00  0.15068298406E+03  0.15068298406E+03  0.00000000000E+00 0. -1.
         21   -1    0    0  502  503 -0.00000000000E+00 -0.00000000000E+00 -0.35303900123E+03  0.35303900123E+03  0.00000000000E+00 0. -1.
         -6    2    1    2    0  503  0.79817133563E+01 -0.69563189352E+02 -0.25151927175E+03  0.31175759126E+03  0.17037636744E+03 0.  0.
        -24    2    3    3    0    0 -0.42605276924E+02 -0.21988559977E+02 -0.21275193387E+03  0.23208711095E+03  0.79387249053E+02 0.  0.
          6    2    1    2  501    0 -0.79817133563E+01  0.69563189352E+02  0.49163254586E+02  0.19196439404E+03  0.17184457488E+03 0.  0.
         24    2    5    5    0    0 -0.78099778736E+01  0.79206794623E+02 -0.24911567458E+02  0.11711656256E+03  0.82225245297E+02 0.  0.
          5    1    5    5  501    0 -0.17173548270E+00 -0.96436052712E+01  0.74074822044E+02  0.74847831475E+02  0.47000000000E+01 0. -1.
        -11    1    6    6    0    0  0.10749415876E+02  0.83843791622E+02  0.14534294000E+01  0.84542556102E+02  0.00000000000E+00 0.  1.
         12    1    6    6    0    0 -0.18559393749E+02 -0.46369969989E+01 -0.26364996858E+02  0.32574006459E+02  0.00000000000E+00 0. -1.
         -5    1    3    3    0  503  0.50586990281E+02 -0.47574629374E+02 -0.38767337879E+02  0.79670480305E+02  0.47000000000E+01 0.  1.
         11    1    4    4    0    0  0.16359428799E+02  0.10556348296E+02 -0.89908675808E+02  0.91992594189E+02  0.00000000000E+00 0. -1.
        -12    1    4    4    0    0 -0.58964705723E+02 -0.32544908273E+02 -0.12284325807E+03  0.14009451676E+03  0.00000000000E+00 0.  1.
</event>
<event>
12    1  0.8526130E-002  0.1821745E+03  0.7818608E-02  0.1166459E+00
         21   -1    0    0  501  502  0.00000000000E+00  0.00000000000E+00  0.16097227296E+03  0.16097227296E+03  0.00000000000E+00 0. -1.
         21   -1    0    0  502  503 -0.00000000000E+00 -0.00000000000E+00 -0.47252759159E+03  0.47252759159E+03  0.00000000000E+00 0. -1.
         -6    2    1    2    0  503 -0.12506038881E+02  0.47635749859E+02 -0.39456633053E+03  0.43330402343E+03  0.17217497456E+03 0.  0.
        -24    2    3    3    0    0 -0.64110789938E+02  0.62205882508E+02 -0.22553369674E+03  0.25590768643E+03  0.81507854863E+02 0.  0.
          6    2    1    2  501    0  0.12506038881E+02 -0.47635749859E+02  0.83011011900E+02  0.20019584112E+03  0.17539093771E+03 0.  0.
         24    2    5    5    0    0 -0.21755569144E+01  0.43313751025E+02  0.42837598383E+02  0.99580960905E+02  0.78743214716E+02 0.  0.
          5    1    5    5  501    0  0.14681595796E+02 -0.90949500884E+02  0.40173413517E+02  0.10061488021E+03  0.47000000000E+01 0. -1.
        -11    1    6    6    0    0  0.37411938846E+02  0.16991181747E+02  0.11596504220E+02  0.42694640595E+02  0.00000000000E+00 0.  1.
         12    1    6    6    0    0 -0.39587495761E+02  0.26322569278E+02  0.31241094162E+02  0.56886320310E+02  0.00000000000E+00 0. -1.
         -5    1    3    3    0  503  0.51604751057E+02 -0.14570132648E+02 -0.16903263379E+03  0.17739633700E+03  0.47000000000E+01 0.  1.
         13    1    4    4    0    0 -0.17523690408E+02  0.36990208265E+01 -0.14461717485E+03  0.14572196040E+03  0.00000000000E+00 0. -1.
        -14    1    4    4    0    0 -0.46587099530E+02  0.58506861681E+02 -0.80916521883E+02  0.11018572603E+03  0.00000000000E+00 0.  1.
</event>
<event>
12    1  0.8526130E-002  0.3167343E+03  0.7818608E-02  0.1077331E+00
         21   -1    0    0  501  502  0.00000000000E+00  0.00000000000E+00  0.12954974684E+03  0.12954974684E+03  0.00000000000E+00 0. -1.
         21   -1    0    0  502  503 -0.00000000000E+00 -0.00000000000E+00 -0.79213196023E+03  0.79213196023E+03  0.00000000000E+00 0. -1.
         -6    2    1    2    0  503 -0.25519894447E+03 -0.69641939534E+02 -0.25649153616E+03  0.40756410032E+03  0.17419554169E+03 0.  0.
        -24    2    3    3    0    0 -0.80266265039E+02  0.28929454696E+02 -0.74273706457E+02  0.13637562424E+03  0.76171784572E+02 0.  0.
          6    2    1    2  501    0  0.25519894447E+03  0.69641939534E+02 -0.40609067723E+03  0.51411760675E+03  0.17155399860E+03 0.  0.
         24    2    5    5    0    0  0.25200032439E+03  0.24310973237E+02 -0.37103497624E+03  0.45653184594E+03  0.81603834800E+02 0.  0.
          5    1    5    5  501    0  0.31986200823E+01  0.45330966297E+02 -0.35055700991E+02  0.57585760808E+02  0.47000000000E+01 0. -1.
        -13    1    6    6    0    0  0.67416400236E+02  0.14671880461E+02 -0.46984979506E+02  0.83473489182E+02  0.00000000000E+00 0.  1.
         14    1    6    6    0    0  0.18458392415E+03  0.96390927758E+01 -0.32404999673E+03  0.37305835676E+03  0.00000000000E+00 0. -1.
         -5    1    3    3    0  503 -0.17493267943E+03 -0.98571394230E+02 -0.18221782970E+03  0.27118847607E+03  0.47000000000E+01 0.  1.
         11    1    4    4    0    0 -0.74257702627E+02  0.95286746190E+01 -0.18642183733E+02  0.77152660704E+02  0.00000000000E+00 0. -1.
        -12    1    4    4    0    0 -0.60085624119E+01  0.19400780077E+02 -0.55631522724E+02  0.59222963540E+02  0.00000000000E+00 0.  1.
</event>
<event>
12    1  0.8526130E-002  0.1747008E+03  0.7818608E-02  0.1173174E+00
         21   -1    0    0  503  502  0.00000000000E+00  0.00000000000E+00  0.48545876857E+03  0.48545876857E+03  0.00000000000E+00 0. -1.
         21   -1    0    0  501  503 -0.00000000000E+00 -0.00000000000E+00 -0.77942708646E+02  0.77942708646E+02  0.00000000000E+00 0. -1.
          6    2    1    2  501    0  0.85271291869E+01  0.30753325895E+02  0.78786048301E+02  0.19113302342E+03  0.17119028082E+03 0.  0.
         24    2    3    3    0    0  0.40799103037E+01 -0.43240821647E+01  0.11669409180E+03  0.13908197085E+03  0.75438320497E+02 0.  0.
         -6    2    1    2    0  502 -0.85271291869E+01 -0.30753325895E+02  0.32873001162E+03  0.37226845380E+03  0.17176117770E+03 0.  0.
        -24    2    5    5    0    0 -0.26078607431E+02 -0.62766162498E+02  0.31768168679E+03  0.33383628527E+03  0.76846121064E+02 0.  0.
          5    1    3    3  501    0  0.44472188831E+01  0.35077408059E+02 -0.37908043497E+02  0.52051052571E+02  0.47000000000E+01 0. -1.
        -13    1    4    4    0    0 -0.23341164690E+02  0.10328200888E+02  0.91188913844E+01  0.27104167258E+02  0.00000000000E+00 0.  1.
         14    1    4    4    0    0  0.27421074994E+02 -0.14652283052E+02  0.10757520041E+03  0.11197780359E+03  0.00000000000E+00 0. -1.
         -5    1    5    5    0  502  0.17551478245E+02  0.32012836604E+02  0.11048324832E+02  0.38432168526E+02  0.47000000000E+01 0.  1.
         13    1    6    6    0    0 -0.22790194200E+02 -0.48079227438E+02  0.82474723273E+02  0.98148280890E+02  0.00000000000E+00 0. -1.
        -14    1    6    6    0    0 -0.32884132313E+01 -0.14686935061E+02  0.23520696352E+03  0.23568800438E+03  0.00000000000E+00 0.  1.
</event>
<event>
12    1  0.8526130E-002  0.2466081E+03  0.7818608E-02  0.1115522E+00
         21   -1    0    0  501  502  0.00000000000E+00  0.00000000000E+00  0.24536983774E+03  0.24536983774E+03  0.00000000000E+00 0.  1.
         21   -1    0    0  502  503 -0.00000000000E+00 -0.00000000000E+00 -0.31000393857E+03  0.31000393857E+03  0.00000000000E+00 0. -1.
         -6    2    1    2    0  503 -0.27116615697E+02 -0.17565737876E+03 -0.15697549093E+03  0.29204419179E+03  0.17046313280E+03 0.  0.
        -24    2    3    3    0    0  0.30555377194E+02 -0.16388487542E+03 -0.13454957744E+03  0.22888041898E+03  0.80565339553E+02 0.  0.
          6    2    1    2  501    0  0.27116615697E+02  0.17565737876E+03  0.92341390107E+02  0.26332958453E+03  0.17095236822E+03 0.  0.
         24    2    5    5    0    0 -0.17764003132E+02  0.12530059969E+03  0.11788638936E+03  0.19104741431E+03  0.81154874330E+02 0.  0.
          5    1    5    5  501    0  0.44880618829E+02  0.50356779063E+02 -0.25544999253E+02  0.72282170214E+02  0.47000000000E+01 0. -1.
        -11    1    6    6    0    0 -0.10922421456E+02  0.13656505030E+03  0.10494865479E+03  0.17257906130E+03  0.00000000000E+00 0.  1.
         12    1    6    6    0    0 -0.68415816759E+01 -0.11264450609E+02  0.12937734566E+02  0.18468353015E+02  0.00000000000E+00 0. -1.
         -5    1    3    3    0  503 -0.57671992891E+02 -0.11772503339E+02 -0.22425913490E+02  0.63163772803E+02  0.47000000000E+01 0.  1.
         11    1    4    4    0    0  0.26572683980E+01 -0.14110924026E+03 -0.76412625924E+02  0.16049226823E+03  0.00000000000E+00 0. -1.
        -12    1    4    4    0    0  0.27898108796E+02 -0.22775635162E+02 -0.58136951520E+02  0.68388150753E+02  0.00000000000E+00 0.  1.
</event>
<event>
12    1  0.8526130E-002  0.4295798E+03  0.7818608E-02  0.1034037E+00
         21   -1    0    0  503  502  0.00000000000E+00  0.00000000000E+00  0.97732997768E+03  0.97732997768E+03  0.00000000000E+00 0. -1.
         21   -1    0    0  501  503 -0.00000000000E+00 -0.00000000000E+00 -0.34109767544E+03  0.34109767544E+03  0.00000000000E+00 0.  1.
          6    2    1    2  501    0  0.27526589582E+03 -0.28003439219E+03 -0.12281173968E+03  0.44625411708E+03  0.17282777380E+03 0.  0.
         24    2    3    3    0    0  0.14917527625E+03 -0.13964712313E+03 -0.13349172273E+03  0.25719438658E+03  0.81082244729E+02 0.  0.
         -6    2    1    2    0  502 -0.27526589582E+03  0.28003439219E+03  0.75904404192E+03  0.87217353604E+03  0.17420747737E+03 0.  0.
        -24    2    5    5    0    0 -0.20655996892E+03  0.23178511987E+03  0.45385164324E+03  0.55560918731E+03  0.79554336128E+02 0.  0.
          5    1    3    3  501    0  0.12609061957E+03 -0.14038726906E+03  0.10679983046E+02  0.18905973050E+03  0.47000000000E+01 0. -1.
        -13    1    4    4    0    0  0.11240229168E+03 -0.58918486310E+02 -0.53423890767E+02  0.13769449992E+03  0.00000000000E+00 0.  1.
         14    1    4    4    0    0  0.36772984567E+02 -0.80728636818E+02 -0.80067831962E+02  0.11949988666E+03  0.00000000000E+00 0. -1.
         -5    1    5    5    0  502 -0.68705926894E+02  0.48249272319E+02  0.30519239868E+03  0.31656434872E+03  0.47000000000E+01 0.  1.
         11    1    6    6    0    0 -0.14788283910E+03  0.18199020512E+03  0.39238642038E+03  0.45711800638E+03  0.00000000000E+00 0. -1.
        -12    1    6    6    0    0 -0.58677129823E+02  0.49794914757E+02  0.61465222860E+02  0.98491180931E+02  0.00000000000E+00 0.  1.
</event>
<event>
12    1  0.8526130E-002  0.1977353E+03  0.7818608E-02  0.1151668E+00
         21   -1    0    0  503  502  0.00000000000E+00  0.00000000000E+00  0.28000577574E+03  0.28000577574E+03  0.00000000000E+00 0. -1.
         21   -1    0    0  501  503 -0.00000000000E+00 -0.00000000000E+00 -0.14188705180E+03  0.14188705180E+03  0.00000000000E+00 0. -1.
          6    2    1    2  501    0  0.66307357138E+02  0.72408933236E+02  0.42407260288E+02  0.20221136755E+03  0.17161393364E+03 0.  0.
         24    2    3    3    0    0  0.74781574107E+02  0.10336504778E+03  0.23645401655E+01  0.15067882622E+03  0.80136762428E+02 0.  0.
         -6    2    1    2    0  502 -0.66307357138E+02 -0.72408933236E+02  0.95711463656E+02  0.21968145998E+03  0.17163781740E+03 0.  0.
        -24    2    5    5    0    0 -0.89125702588E+02 -0.98459585171E+02  0.95746309591E+02  0.18473286102E+03  0.85563972360E+02 0.  0.
          5    1    3    3  501    0 -0.84742169691E+01 -0.30956114549E+02  0.40042720123E+02  0.51532541331E+02  0.47000000000E+01 0. -1.
        -11    1    4    4    0    0 -0.98975978814E+01  0.14331583560E+01 -0.13946987530E+02  0.17162017593E+02  0.00000000000E+00 0.  1.
         12    1    4    4    0    0  0.84679171988E+02  0.10193188943E+03  0.16311527696E+02  0.13351680863E+03  0.00000000000E+00 0. -1.
         -5    1    5    5    0  502  0.22818345451E+02  0.26050651935E+02 -0.34845935314E-01  0.34948598965E+02  0.47000000000E+01 0.  1.
         13    1    6    6    0    0 -0.79741491699E+02 -0.70502652902E+02  0.10904633966E+03  0.15238252445E+03  0.00000000000E+00 0. -1.
        -14    1    6    6    0    0 -0.93842108891E+01 -0.27956932269E+02 -0.13300030074E+02  0.32350336565E+02  0.00000000000E+00 0.  1.
</event>
<event>
12    1  0.8526130E-002  0.1918044E+03  0.7818608E-02  0.1157486E+00
         21   -1    0    0  503  502  0.00000000000E+00  0.00000000000E+00  0.52650329259E+02  0.52650329259E+02  0.00000000000E+00 0.  1.
         21   -1    0    0  501  503 -0.00000000000E+00 -0.00000000000E+00 -0.77399926404E+03  0.77399926404E+03  0.00000000000E+00 0.  1.
          6    2    1    2  501    0 -0.54893588124E+02  0.54206102427E+02 -0.22077681253E+03  0.29058862246E+03  0.17247532865E+03 0.  0.
         24    2    3    3    0    0 -0.20556965491E+02  0.20123980073E+02 -0.22596637276E+03  0.24170492115E+03  0.80826381116E+02 0.  0.
         -6    2    1    2    0  502  0.54893588124E+02 -0.54206102427E+02 -0.50057212225E+03  0.53606097084E+03  0.17560554469E+03 0.  0.
        -24    2    5    5    0    0  0.91787609040E+02 -0.10280569226E+02 -0.41831615360E+03  0.43566796498E+03  0.79293858989E+02 0.  0.
          5    1    3    3  501    0 -0.34336622633E+02  0.34082122354E+02  0.51895602347E+01  0.48883701307E+02  0.47000000000E+01 0. -1.
        -11    1    4    4    0    0  0.82521375460E+01  0.20310076784E+02 -0.10475547850E+02  0.24296791883E+02  0.00000000000E+00 0.  1.
         12    1    4    4    0    0 -0.28809103037E+02 -0.18609671090E+00 -0.21549082491E+03  0.21740812927E+03  0.00000000000E+00 0. -1.
         -5    1    5    5    0  502 -0.36894020916E+02 -0.43925533202E+02 -0.82255968650E+02  0.10039300586E+03  0.47000000000E+01 0.  1.
         13    1    6    6    0    0  0.49593696532E+02 -0.42667224236E+02 -0.18090036865E+03  0.19236675944E+03  0.00000000000E+00 0. -1.
        -14    1    6    6    0    0  0.42193912508E+02  0.32386655011E+02 -0.23741578495E+03  0.24330120554E+03  0.00000000000E+00 0.  1.
</event>
<event>
12    1  0.8526130E-002  0.1748208E+03  0.7818608E-02  0.1172919E+00
         21   -1    0    0  503  502  0.00000000000E+00  0.00000000000E+00  0.50314361711E+03  0.50314361711E+03  0.00000000000E+00 0.  1.
         21   -1    0    0  501  503 -0.00000000000E+00 -0.00000000000E+00 -0.70682185966E+02  0.70682185966E+02  0.00000000000E+00 0.  1.
          6    2    1    2  501    0  0.10758296499E+02 -0.26590946110E+02  0.10860117943E+03  0.20580700613E+03  0.17245140834E+03 0.  0.
         24    2    3    3    0    0  0.60690417482E+01  0.30987675200E+00 -0.27622197184E+02  0.66794266724E+02  0.60510817203E+02 0.  0.
         -6    2    1    2    0  502 -0.10758296499E+02  0.26590946110E+02  0.32386025172E+03  0.36801879695E+03  0.17242259976E+03 0.  0.
        -24    2    5    5    0    0 -0.11087692333E+02  0.84823384569E+00  0.23055411901E+02  0.66077681179E+02  0.60918400424E+02 0.  0.
          5    1    3    3  501    0  0.46892547506E+01 -0.26900822862E+02  0.13622337661E+03  0.13901273940E+03  0.47000000000E+01 0. -1.
        -11    1    4    4    0    0  0.21819141034E+02  0.62086006302E+01  0.10596915183E+02  0.25038295642E+02  0.00000000000E+00 0.  1.
         12    1    4    4    0    0 -0.15750099286E+02 -0.58987238782E+01 -0.38219112367E+02  0.41755971082E+02  0.00000000000E+00 0. -1.
         -5    1    5    5    0  502  0.32939583450E+00  0.25742712265E+02  0.30080483982E+03  0.30194111577E+03  0.47000000000E+01 0.  1.
         11    1    6    6    0    0 -0.33185555342E+02  0.12692413255E+02  0.20128641067E+02  0.40835531450E+02  0.00000000000E+00 0. -1.
        -12    1    6    6    0    0  0.22097863009E+02 -0.11844179409E+02  0.29267708332E+01  0.25242149729E+02  0.00000000000E+00 0.  1.
</event>
<event>
12    1  0.8526130E-002  0.2592803E+03  0.7818608E-02  0.1107891E+00
         21   -1    0    0  501  502  0.00000000000E+00  0.00000000000E+00  0.22617085758E+03  0.22617085758E+03  0.00000000000E+00 0. -1.
         21   -1    0    0  502  503 -0.00000000000E+00 -0.00000000000E+00 -0.31842735574E+03  0.31842735574E+03  0.00000000000E+00 0.  1.
         -6    2    1    2    0  503 -0.26974156560E+02 -0.18987998078E+03 -0.12037938455E+03  0.28586268843E+03  0.17448285929E+03 0.  0.
        -24    2    3    3    0    0 -0.20573917974E+02 -0.58726404576E+02  0.11267941942E+02  0.99864483657E+02  0.77290826657E+02 0.  0.
          6    2    1    2  501    0  0.26974156560E+02  0.18987998078E+03  0.28122886394E+02  0.25873552488E+03  0.17138017060E+03 0.  0.
         24    2    5    5    0    0  0.13680563146E+02  0.19831010566E+03  0.60330281976E+02  0.22258040130E+03  0.79926443084E+02 0.  0.
          5    1    5    5  501    0  0.13293593414E+02 -0.84301248785E+01 -0.32207395583E+02  0.36155123586E+02  0.47000000000E+01 0. -1.
        -11    1    6    6    0    0  0.17808162931E+02  0.27096947819E+02 -0.14701944243E+02  0.35602281003E+02  0.00000000000E+00 0.  1.
         12    1    6    6    0    0 -0.41275997854E+01  0.17121315784E+03  0.75032226220E+02  0.18697812029E+03  0.00000000000E+00 0. -1.
         -5    1    3    3    0  503 -0.64002385858E+01 -0.13115357620E+03 -0.13164732650E+03  0.18599820477E+03  0.47000000000E+01 0.  1.
         13    1    4    4    0    0 -0.44486519097E+00 -0.73013872676E+02  0.15957759393E+02  0.74738702110E+02  0.00000000000E+00 0. -1.
        -14    1    4    4    0    0 -0.20129052783E+02  0.14287468100E+02 -0.46898174512E+01  0.25125781548E+02  0.00000000000E+00 0.  1.
</event>
<event>
12    1  0.8526130E-002  0.1729667E+03  0.7818608E-02  0.1175044E+00
         21   -1    0    0  503  502  0.00000000000E+00  0.00000000000E+00  0.66713034393E+03  0.66713034393E+03  0.00000000000E+00 0.  1.
         21   -1    0    0  501  503 -0.00000000000E+00 -0.00000000000E+00 -0.69959540898E+02  0.69959540898E+02  0.00000000000E+00 0.  1.
          6    2    1    2  501    0  0.63508430332E+00  0.79416151707E+01  0.76088036521E+02  0.18805004894E+03  0.17178462976E+03 0.  0.
         24    2    3    3    0    0 -0.15181152670E+02 -0.54002795004E+02  0.14547380470E+02  0.99187201524E+02  0.80496617339E+02 0.  0.
         -6    2    1    2    0  502 -0.63508430332E+00 -0.79416151707E+01  0.52108276651E+03  0.54903983588E+03  0.17278315674E+03 0.  0.
        -24    2    5    5    0    0  0.18975466839E+02 -0.30319606186E+02  0.14240254420E+03  0.16916334416E+03  0.84014317537E+02 0.  0.
          5    1    3    3  501    0  0.15816236974E+02  0.61944410175E+02  0.61540656051E+02  0.88862847418E+02  0.47000000000E+01 0. -1.
        -11    1    4    4    0    0 -0.61955243001E+01 -0.13480034860E+02 -0.32933990423E+02  0.36121234563E+02  0.00000000000E+00 0.  1.
         12    1    4    4    0    0 -0.89856283703E+01 -0.40522760145E+02  0.47481370892E+02  0.63065966961E+02  0.00000000000E+00 0. -1.
         -5    1    5    5    0  502 -0.19610551142E+02  0.22377991016E+02  0.37868022231E+03  0.37987649173E+03  0.47000000000E+01 0.  1.
         11    1    6    6    0    0  0.46710652796E+02 -0.10014455234E+02  0.44065809729E+02  0.64992076327E+02  0.00000000000E+00 0. -1.
        -12    1    6    6    0    0 -0.27735185957E+02 -0.20305150952E+02  0.98336734468E+02  0.10417126783E+03  0.00000000000E+00 0.  1.
</event>
<event>
12    1  0.8526130E-002  0.1892233E+03  0.7818608E-02  0.1159323E+00
         21   -1    0    0  501  502  0.00000000000E+00  0.00000000000E+00  0.11564278655E+03  0.11564278655E+03  0.00000000000E+00 0. -1.
         21   -1    0    0  502  503 -0.00000000000E+00 -0.00000000000E+00 -0.39502203542E+03  0.39502203542E+03  0.00000000000E+00 0.  1.
         -6    2    1    2    0  503  0.56221362379E+02  0.57902255181E+02 -0.25940515029E+03  0.32108643961E+03  0.17114893210E+03 0.  0.
        -24    2    3    3    0    0  0.21082922013E+02  0.75358738491E+02 -0.75693654394E+02  0.13317304859E+03  0.76694866102E+02 0.  0.
          6    2    1    2  501    0 -0.56221362379E+02 -0.57902255181E+02 -0.19974098578E+02  0.18957838236E+03  0.17037454535E+03 0.  0.
         24    2    5    5    0    0 -0.40576425379E+02 -0.35749540998E+02 -0.78969681261E+02  0.12447787871E+03  0.79586781264E+02 0.  0.
          5    1    5    5  501    0 -0.15644937000E+02 -0.22152714183E+02  0.58995582683E+02  0.65100503651E+02  0.47000000000E+01 0. -1.
        -13    1    6    6    0    0  0.18225545067E+01 -0.49931429883E+02 -0.30502359480E+02  0.58539416883E+02  0.00000000000E+00 0.  1.
         14    1    6    6    0    0 -0.42398979886E+02  0.14181888885E+02 -0.48467321781E+02  0.65938461829E+02  0.00000000000E+00 0. -1.
         -5    1    3    3    0  503  0.35138440366E+02 -0.17456483311E+02 -0.18371149590E+03  0.18791339102E+03  0.47000000000E+01 0.  1.
         11    1    4    4    0    0 -0.59211766526E+01  0.80458316127E+02 -0.65300983853E+02  0.10379219363E+03  0.00000000000E+00 0. -1.
        -12    1    4    4    0    0  0.27004098665E+02 -0.50995776354E+01 -0.10392670541E+02  0.29380854953E+02  0.00000000000E+00 0.  1.
</event>
<event>
12    1  0.8526130E-002  0.1786371E+03  0.7818608E-02  0.1169151E+00
         21   -1    0    0  501  502  0.00000000000E+00  0.00000000000E+00  0.16420181130E+03  0.16420181130E+03  0.00000000000E+00 0.  1.
         21   -1    0    0  502  503 -0.00000000000E+00 -0.00000000000E+00 -0.19488141838E+03  0.19488141838E+03  0.00000000000E+00 0.  1.
         -6    2    1    2    0  503 -0.26672564882E+02  0.47268309339E+02 -0.50711362869E+01  0.17870905416E+03  0.17019251109E+03 0.  0.
        -24    2    3    3    0    0 -0.33359856991E+02  0.87661816751E+02 -0.35260670722E+02  0.12762233077E+03  0.79035879434E+02 0.  0.
          6    2    1    2  501    0  0.26672564882E+02 -0.47268309339E+02 -0.25608470798E+02  0.18037417552E+03  0.17009800302E+03 0.  0.
         24    2    5    5    0    0  0.11970150667E+02 -0.45344939410E+02 -0.80943960983E+02  0.12289403278E+03  0.79696740434E+02 0.  0.
          5    1    5    5  501    0  0.14702414215E+02 -0.19233699296E+01  0.55335490185E+02  0.57480142742E+02  0.47000000000E+01 0. -1.
        -13    1    6    6    0    0  0.42762148895E+02 -0.86356182729E+01 -0.47309696077E+02  0.64353575068E+02  0.00000000000E+00 0.  1.
         14    1    6    6    0    0 -0.30791998228E+02 -0.36709321137E+02 -0.33634264906E+02  0.58540457711E+02  0.00000000000E+00 0. -1.
         -5    1    3    3    0  503  0.66872921093E+01 -0.40393507411E+02  0.30189534435E+02  0.51086723384E+02  0.47000000000E+01 0.  1.
         11    1    4    4    0    0 -0.27954790171E+02  0.16131940884E+02 -0.44844027311E+02  0.55251213522E+02  0.00000000000E+00 0. -1.
        -12    1    4    4    0    0 -0.54050668202E+01  0.71529875866E+02  0.95833565893E+01  0.72371117252E+02  0.00000000000E+00 0.  1.
</event>
<event>
12    1  0.8526130E-002  0.2860016E+03  0.7818608E-02  0.1092720E+00
         21   -1    0    0  501  502  0.00000000000E+00  0.00000000000E+00  0.61433996313E+03  0.61433996313E+03  0.00000000000E+00 0. -1.
         21   -1    0    0  502  503 -0.00000000000E+00 -0.00000000000E+00 -0.16755715977E+03  0.16755715977E+03  0.00000000000E+00 0.  1.
         -6    2    1    2    0  503 -0.15753952711E+03 -0.16589938279E+03  0.44480715665E+02  0.28943991564E+03  0.17162640498E+03 0.  0.
        -24    2    3    3    0    0 -0.14120528802E+03 -0.19264566743E+03  0.50585785454E+02  0.25716712545E+03  0.80775752410E+02 0.  0.
          6    2    1    2  501    0  0.15753952711E+03  0.16589938279E+03  0.40230208770E+03  0.49245720727E+03  0.16830277303E+03 0.  0.
         24    2    5    5    0    0  0.50916056363E+02  0.13671624946E+03  0.29453587322E+03  0.33800376196E+03  0.78812339267E+02 0.  0.
          5    1    5    5  501    0  0.10662347075E+03  0.29183133321E+02  0.10776621448E+03  0.15445344531E+03  0.47000000000E+01 0. -1.
        -13    1    6    6    0    0 -0.46128090217E+01  0.26128577202E+02  0.11154474600E+02  0.28781988417E+02  0.00000000000E+00 0.  1.
         14    1    6    6    0    0  0.55528865385E+02  0.11058767226E+03  0.28338139862E+03  0.30922177354E+03  0.00000000000E+00 0. -1.
         -5    1    3    3    0  503 -0.16334239085E+02  0.26746284648E+02 -0.61050697895E+01  0.32272790181E+02  0.47000000000E+01 0.  1.
         11    1    4    4    0    0 -0.10805173744E+03 -0.80018003965E+02  0.20932742340E+02  0.13607438636E+03  0.00000000000E+00 0. -1.
        -12    1    4    4    0    0 -0.33153550586E+02 -0.11262766347E+03  0.29653043114E+02  0.12109273909E+03  0.00000000000E+00 0.  1.
</event>
<event>
12    1  0.8526130E-002  0.1760373E+03  0.7818608E-02  0.1172439E+00
         21   -1    0    0  503  502  0.00000000000E+00  0.00000000000E+00  0.40129867663E+03  0.40129867663E+03  0.00000000000E+00 0. -1.
         21   -1    0    0  501  503 -0.00000000000E+00 -0.00000000000E+00 -0.13947052418E+03  0.13947052418E+03  0.00000000000E+00 0. -1.
          6    2    1    2  501    0  0.17570769387E+02 -0.18370166765E+02 -0.52191022797E+02  0.18077314385E+03  0.17119822345E+03 0.  0.
         24    2    3    3    0    0  0.70728289399E+02 -0.36098456838E+02 -0.57307101978E+02  0.12430830108E+03  0.76569316778E+02 0.  0.
         -6    2    1    2    0  502 -0.17570769387E+02  0.18370166765E+02  0.31401917525E+03  0.35999605696E+03  0.17419220315E+03 0.  0.
        -24    2    5    5    0    0 -0.33805771369E+02  0.71002470221E+02  0.15401202011E+03  0.19070898022E+03  0.80411639960E+02 0.  0.
          5    1    3    3  501    0 -0.53157520013E+02  0.17728290073E+02  0.51160791815E+01  0.56464842770E+02  0.47000000000E+01 0. -1.
        -11    1    4    4    0    0  0.66861781810E+02 -0.26877192191E+02 -0.63068795542E+01  0.72337113963E+02  0.00000000000E+00 0.  1.
         12    1    4    4    0    0  0.38665075896E+01 -0.92212646472E+01 -0.51000222424E+02  0.51971187113E+02  0.00000000000E+00 0. -1.
         -5    1    5    5    0  502  0.16235001982E+02 -0.52632303456E+02  0.16000715514E+03  0.16928707674E+03  0.47000000000E+01 0.  1.
         11    1    6    6    0    0  0.36132890801E+01  0.26595629134E+02  0.12093797967E+03  0.12388049998E+03  0.00000000000E+00 0. -1.
        -12    1    6    6    0    0 -0.37419060449E+02  0.44406841087E+02  0.33074040437E+02  0.66828480238E+02  0.00000000000E+00 0.  1.
</event>
<event>
12    1  0.8526130E-002  0.2689321E+03  0.7818608E-02  0.1103802E+00
         21   -1    0    0  501  502  0.00000000000E+00  0.00000000000E+00  0.86346492589E+03  0.86346492589E+03  0.00000000000E+00 0.  1.
         21   -1    0    0  502  503 -0.00000000000E+00 -0.00000000000E+00 -0.11524584322E+03  0.11524584322E+03  0.00000000000E+00 0.  1.
         -6    2    1    2    0  503  0.18599421423E+03 -0.36706715505E+02  0.10908454828E+03  0.29021355815E+03  0.19074391201E+03 0.  0.
        -24    2    3    3    0    0  0.85727546624E+02 -0.20806987448E+02 -0.25004804054E+02  0.12196299977E+03  0.80421328698E+02 0.  0.
          6    2    1    2  501    0 -0.18599421423E+03  0.36706715505E+02  0.63913453439E+03  0.68849721096E+03  0.17202972346E+03 0.  0.
         24    2    5    5    0    0 -0.21067006328E+03  0.22188266514E+02  0.57410031217E+03  0.61728469136E+03  0.81086540301E+02 0.  0.
          5    1    5    5  501    0  0.24675849051E+02  0.14518448990E+02  0.65034222218E+02  0.71212519595E+02  0.47000000000E+01 0. -1.
        -11    1    6    6    0    0 -0.18073822439E+03  0.45652439553E+02  0.43915687425E+03  0.47708407141E+03  0.00000000000E+00 0.  1.
         12    1    6    6    0    0 -0.29931838888E+02 -0.23464173039E+02  0.13494343793E+03  0.14020061995E+03  0.00000000000E+00 0. -1.
         -5    1    3    3    0  503  0.10026666761E+03 -0.15899728057E+02  0.13408935233E+03  0.16825055838E+03  0.47000000000E+01 0.  1.
         13    1    4    4    0    0 -0.96729392188E+01 -0.59321717313E+01  0.13832893019E+02  0.17891488028E+02  0.00000000000E+00 0. -1.
        -14    1    4    4    0    0  0.95400485842E+02 -0.14874815716E+02 -0.38837697073E+02  0.10407151174E+03  0.00000000000E+00 0.  1.
</event>
<event>
12    1  0.8526130E-002  0.2357359E+03  0.7818608E-02  0.1122718E+00
         21   -1    0    0  501  502  0.00000000000E+00  0.00000000000E+00  0.27792622415E+03  0.27792622415E+03  0.00000000000E+00 0. -1.
         21   -1    0    0  502  503 -0.00000000000E+00 -0.00000000000E+00 -0.27621411767E+03  0.27621411767E+03  0.00000000000E+00 0. -1.
         -6    2    1    2    0  503 -0.29293160166E+02 -0.15785376609E+03 -0.14497553803E+03  0.27674774471E+03  0.17261375054E+03 0.  0.
        -24    2    3    3    0    0 -0.70194473835E+02 -0.16214083767E+03 -0.10228914738E+03  0.21728755307E+03  0.74390158292E+02 0.  0.
          6    2    1    2  501    0  0.29293160166E+02  0.15785376609E+03  0.14668764452E+03  0.27739259711E+03  0.17220187914E+03 0.  0.
         24    2    5    5    0    0 -0.27569027681E+02  0.14562308473E+03  0.13790719062E+03  0.21838340847E+03  0.81894967961E+02 0.  0.
          5    1    5    5  501    0  0.56862187848E+02  0.12230681352E+02  0.87804538970E+01  0.59009188639E+02  0.47000000000E+01 0. -1.
        -13    1    6    6    0    0 -0.39213577305E+02  0.86725152379E+02  0.39376954015E+02  0.10300243302E+03  0.00000000000E+00 0.  1.
         14    1    6    6    0    0  0.11644549624E+02  0.58897932355E+02  0.98530236604E+02  0.11538097545E+03  0.00000000000E+00 0. -1.
         -5    1    3    3    0  503  0.40901313669E+02  0.42870715863E+01 -0.42686390659E+02  0.59460191642E+02  0.47000000000E+01 0.  1.
         11    1    4    4    0    0  0.89153774167E+01 -0.45465217576E+02 -0.46620773909E+02  0.65727212960E+02  0.00000000000E+00 0. -1.
        -12    1    4    4    0    0 -0.79109851252E+02 -0.11667562010E+03 -0.55668373467E+02  0.15156034011E+03  0.00000000000E+00 0.  1.
</event>
<event>
12    1  0.8526130E-002  0.1727210E+03  0.7818608E-02  0.1175194E+00
         21   -1    0    0  501  502  0.00000000000E+00  0.00000000000E+00  0.46917970132E+03  0.46917970132E+03  0.00000000000E+00 0. -1.
         21   -1    0    0  502  503 -0.00000000000E+00 -0.00000000000E+00 -0.63727315244E+02  0.63727315244E+02  0.00000000000E+00 0. -1.
         -6    2    1    2    0  503 -0.95955767823E+01  0.19691563418E+02  0.18292997878E+03  0.25158680108E+03  0.17132632191E+03 0.  0.
        -24    2    3    3    0    0  0.12001079620E+02  0.49634748258E+01  0.20438892959E+03  0.21744139537E+03  0.73056580039E+02 0.  0.
          6    2    1    2  501    0  0.95955767823E+01 -0.19691563418E+02  0.22252240729E+03  0.28132021548E+03  0.17071909421E+03 0.  0.
         24    2    5    5    0    0  0.36331553388E+02 -0.35365483295E+02  0.23057331781E+03  0.24895678906E+03  0.79023596184E+02 0.  0.
          5    1    5    5  501    0 -0.26735976606E+02  0.15673919877E+02 -0.80509105186E+01  0.32363426419E+02  0.47000000000E+01 0. -1.
        -13    1    6    6    0    0 -0.98092108934E+01  0.28384419040E+01  0.13996154130E+03  0.14033356838E+03  0.00000000000E+00 0.  1.
         14    1    6    6    0    0  0.46140764282E+02 -0.38203925199E+02  0.90611776502E+02  0.10862322068E+03  0.00000000000E+00 0. -1.
         -5    1    3    3    0  503 -0.21596656402E+02  0.14728088592E+02 -0.21458950809E+02  0.34145405711E+02  0.47000000000E+01 0.  1.
         13    1    4    4    0    0 -0.14626670663E+02 -0.23929321493E+02  0.42994507423E+02  0.51333026313E+02  0.00000000000E+00 0. -1.
        -14    1    4    4    0    0  0.26627750283E+02  0.28892796319E+02  0.16139442217E+03  0.16610836906E+03  0.00000000000E+00 0.  1.
</event>
<event>
12    1  0.8526130E-002  0.1769890E+03  0.7818608E-02  0.1170863E+00
         21   -1    0    0  503  502  0.00000000000E+00  0.00000000000E+00  0.16946567246E+03  0.16946567246E+03  0.00000000000E+00 0.  1.
         21   -1    0    0  501  503 -0.00000000000E+00 -0.00000000000E+00 -0.18588906166E+03  0.18588906166E+03  0.00000000000E+00 0.  1.
          6    2    1    2  501    0  0.40108451530E+02 -0.53451812856E+01  0.78814077150E+01  0.17670473828E+03  0.17182895302E+03 0.  0.
         24    2    3    3    0    0 -0.43305473500E+02 -0.20862322875E+02 -0.11422942141E+02  0.89564549526E+02  0.74704246022E+02 0.  0.
         -6    2    1    2    0  502 -0.40108451530E+02  0.53451812856E+01 -0.24304796917E+02  0.17864999585E+03  0.17230159319E+03 0.  0.
        -24    2    5    5    0    0 -0.56980599118E+02  0.56312666288E+02 -0.44648225629E+02  0.12104531736E+03  0.78997466689E+02 0.  0.
          5    1    3    3  501    0  0.83413925030E+02  0.15517141590E+02  0.19304349856E+02  0.87140188750E+02  0.47000000000E+01 0. -1.
        -11    1    4    4    0    0  0.54698498598E+01  0.36139408454E+01  0.23750877618E+02  0.24639074933E+02  0.00000000000E+00 0.  1.
         12    1    4    4    0    0 -0.48775323360E+02 -0.24476263721E+02 -0.35173819759E+02  0.64925474592E+02  0.00000000000E+00 0. -1.
         -5    1    5    5    0  502  0.16872147588E+02 -0.50967485003E+02  0.20343428712E+02  0.57604678486E+02  0.47000000000E+01 0.  1.
         13    1    6    6    0    0 -0.80139223645E+01  0.60417713376E+02 -0.37044816599E+02  0.71322096703E+02  0.00000000000E+00 0. -1.
        -14    1    6    6    0    0 -0.48966676753E+02 -0.41050470877E+01 -0.76034090295E+01  0.49723220659E+02  0.00000000000E+00 0.  1.
</event>
<event>
12    1  0.8526130E-002  0.1916034E+03  0.7818608E-02  0.1157833E+00
         21   -1    0    0  501  502  0.00000000000E+00  0.00000000000E+00  0.20456126546E+03  0.20456126546E+03  0.00000000000E+00 0. -1.
         21   -1    0    0  502  503 -0.00000000000E+00 -0.00000000000E+00 -0.36327151949E+03  0.36327151949E+03  0.00000000000E+00 0. -1.
         -6    2    1    2    0  503 -0.23558705078E+02  0.74403787032E+02 -0.28350205639E+03  0.34217724191E+03  0.17498832188E+03 0.  0.
        -24    2    3    3    0    0  0.48549523574E+02  0.72753308408E+02 -0.19335560379E+03  0.22663160748E+03  0.79532357370E+02 0.  0.
          6    2    1    2  501    0  0.23558705078E+02 -0.74403787032E+02  0.12479180235E+03  0.22565554304E+03  0.17104529828E+03 0.  0.
         24    2    5    5    0    0 -0.18541572144E+02 -0.76027683147E+02  0.21428360059E+02  0.11393642390E+03  0.79989596655E+02 0.  0.
          5    1    5    5  501    0  0.42100277222E+02  0.16238961150E+01  0.10336344229E+03  0.11171911915E+03  0.47000000000E+01 0. -1.
        -11    1    6    6    0    0  0.19035058874E+02 -0.42150415578E+02 -0.18168761897E+02  0.49689988011E+02  0.00000000000E+00 0.  1.
         12    1    6    6    0    0 -0.37576631018E+02 -0.33877267569E+02  0.39597121956E+02  0.64246435884E+02  0.00000000000E+00 0. -1.
         -5    1    3    3    0  503 -0.72108228653E+02  0.16504786237E+01 -0.90146452596E+02  0.11554563442E+03  0.47000000000E+01 0.  1.
         11    1    4    4    0    0  0.52234291653E+02  0.26215612026E+02 -0.53657797937E+02  0.79340020278E+02  0.00000000000E+00 0. -1.
        -12    1    4    4    0    0 -0.36847680784E+01  0.46537696382E+02 -0.13969780586E+03  0.14729158721E+03  0.00000000000E+00 0.  1.
</event>
<event>
12    1  0.8526130E-002  0.1928061E+03  0.7818608E-02  0.1158347E+00
         21   -1    0    0  501  502  0.00000000000E+00  0.00000000000E+00  0.33390683415E+02  0.33390683415E+02  0.00000000000E+00 0.  1.
         21   -1    0    0  502  503 -0.00000000000E+00 -0.00000000000E+00 -0.13879685670E+04  0.13879685670E+04  0.00000000000E+00 0. -1.
         -6    2    1    2    0  503 -0.48946620859E+02  0.72605661605E+02 -0.10404215332E+04  0.10581356988E+04  0.17177554132E+03 0.  0.
        -24    2    3    3    0    0 -0.60827511930E+02  0.40288938966E+02 -0.99596705161E+03  0.10017103759E+04  0.78422729209E+02 0.  0.
          6    2    1    2  501    0  0.48946620859E+02 -0.72605661605E+02 -0.31415635043E+03  0.36322355163E+03  0.15990554135E+03 0.  0.
         24    2    5    5    0    0  0.49704763842E+00 -0.20834991827E+02 -0.85410284007E+02  0.12369397872E+03  0.87011147660E+02 0.  0.
          5    1    5    5  501    0  0.48449573220E+02 -0.51770669778E+02 -0.22874606642E+03  0.23952957291E+03  0.47000000000E+01 0. -1.
        -13    1    6    6    0    0  0.37730180849E+02 -0.94671798027E+01 -0.73200096858E+02  0.82894198955E+02  0.00000000000E+00 0.  1.
         14    1    6    6    0    0 -0.37233133210E+02 -0.11367812025E+02 -0.12210187149E+02  0.40799779768E+02  0.00000000000E+00 0. -1.
         -5    1    3    3    0  503  0.11880891072E+02  0.32316722639E+02 -0.44454481561E+02  0.56425322912E+02  0.47000000000E+01 0.  1.
         13    1    4    4    0    0 -0.15676780488E+01 -0.17377717079E+02 -0.73406074280E+02  0.75451271736E+02  0.00000000000E+00 0. -1.
        -14    1    4    4    0    0 -0.59259833882E+02  0.57666656046E+02 -0.92256097733E+03  0.92625910415E+03  0.00000000000E+00 0.  1.
</event>
<event>
12    1  0.8526130E-002  0.2072208E+03  0.7818608E-02  0.1144087E+00
         21   -1    0    0  501  502  0.00000000000E+00  0.00000000000E+00  0.15753559959E+03  0.15753559959E+03  0.00000000000E+00 0. -1.
         21   -1    0    0  502  503 -0.00000000000E+00 -0.00000000000E+00 -0.45744951341E+03  0.45744951341E+03  0.00000000000E+00 0. -1.
         -6    2    1    2    0  503  0.10756600472E+03  0.39687220538E+02 -0.34614664405E+03  0.40266943898E+03  0.17082054050E+03 0.  0.
        -24    2    3    3    0    0  0.13072848411E+03  0.68971945284E+02 -0.28609023885E+03  0.33179661371E+03  0.79964381530E+02 0.  0.
          6    2    1    2  501    0 -0.10756600472E+03 -0.39687220538E+02  0.46232730226E+02  0.21231567401E+03  0.17261216424E+03 0.  0.
         24    2    5    5    0    0 -0.10282366462E+03 -0.32016471910E+02  0.93624349415E+02  0.16384521143E+03  0.80510707517E+02 0.  0.
          5    1    5    5  501    0 -0.47423400956E+01 -0.76707486280E+01 -0.47391619188E+02  0.48470462587E+02  0.47000000000E+01 0. -1.
        -11    1    6    6    0    0 -0.22329880512E+02  0.14242357097E+02 -0.65318113622E+01  0.27278798709E+02  0.00000000000E+00 0.  1.
         12    1    6    6    0    0 -0.80493784108E+02 -0.46258829007E+02  0.10015616078E+03  0.13656641272E+03  0.00000000000E+00 0. -1.
         -5    1    3    3    0  503 -0.23162479399E+02 -0.29284724746E+02 -0.60056405200E+02  0.70872825264E+02  0.47000000000E+01 0.  1.
         13    1    4    4    0    0  0.55321764487E+02  0.70617303413E+02 -0.18567230297E+03  0.20620743259E+03  0.00000000000E+00 0. -1.
        -14    1    4    4    0    0  0.75406719628E+02 -0.16453581292E+01 -0.10041793588E+03  0.12558918112E+03  0.00000000000E+00 0.  1.
</event>
<event>
12    1  0.8526130E-002  0.2955982E+03  0.7818608E-02  0.1087566E+00
         21   -1    0    0  501  502  0.00000000000E+00  0.00000000000E+00  0.22003083107E+03  0.22003083107E+03  0.00000000000E+00 0.  1.
         21   -1    0    0  502  503 -0.00000000000E+00 -0.00000000000E+00 -0.39804866266E+03  0.39804866266E+03  0.00000000000E+00 0. -1.
         -6    2    1    2    0  503 -0.21972176610E+03  0.97643298784E+02 -0.11120088731E+03  0.31582264696E+03  0.17194894214E+03 0.  0.
        -24    2    3    3    0    0 -0.23458565782E+03  0.64405002598E+02 -0.11217135461E+03  0.27909729581E+03  0.78322745881E+02 0.  0.
          6    2    1    2  501    0  0.21972176610E+03 -0.97643298784E+02 -0.66816944285E+02  0.30225684676E+03  0.17053688480E+03 0.  0.
         24    2    5    5    0    0  0.21878665504E+03 -0.11412324327E+03 -0.28876989366E+02  0.26061560300E+03  0.78707667579E+02 0.  0.
          5    1    5    5  501    0  0.93511105999E+00  0.16479944484E+02 -0.37939954919E+02  0.41641243763E+02  0.47000000000E+01 0. -1.
        -11    1    6    6    0    0  0.22414807806E+02  0.60205700142E+01  0.13039028374E+02  0.26621178284E+02  0.00000000000E+00 0.  1.
         12    1    6    6    0    0  0.19637184723E+03 -0.12014381328E+03 -0.41916017740E+02  0.23399442472E+03  0.00000000000E+00 0. -1.
         -5    1    3    3    0  503  0.14863891720E+02  0.33238296186E+02  0.97046729866E+00  0.36725351151E+02  0.47000000000E+01 0.  1.
         11    1    4    4    0    0 -0.15485999112E+03  0.47885256850E+02 -0.32775463352E+02  0.16537486408E+03  0.00000000000E+00 0. -1.
        -12    1    4    4    0    0 -0.79725666698E+02  0.16519745748E+02 -0.79395891254E+02  0.11372243173E+03  0.00000000000E+00 0.  1.
</event>
<event>
12    1  0.8526130E-002  0.3798957E+03  0.7818608E-02  0.1050987E+00
         21   -1    0    0  501  502  0.00000000000E+00  0.00000000000E+00  0.13666314206E+04  0.13666314206E+04  0.00000000000E+00 0.  1.
         21   -1    0    0  502  503 -0.00000000000E+00 -0.00000000000E+00 -0.15726493993E+03  0.15726493993E+03  0.00000000000E+00 0.  1.
         -6    2    1    2    0  503 -0.73531535978E+02 -0.33072305808E+03  0.16786754060E+03  0.41533149337E+03  0.17186072927E+03 0.  0.
        -24    2    3    3    0    0 -0.67751293036E+02 -0.13745811463E+03  0.13439862697E+03  0.21904851460E+03  0.80214025155E+02 0.  0.
          6    2    1    2  501    0  0.73531535978E+02  0.33072305808E+03  0.10414989401E+04  0.11085648672E+04  0.17149750615E+03 0.  0.
         24    2    5    5    0    0  0.11127882286E+02  0.16027467317E+03  0.68883322189E+03  0.71190119768E+03  0.80624481711E+02 0.  0.
          5    1    5    5  501    0  0.62403653692E+02  0.17044838491E+03  0.35266571820E+03  0.39666366950E+03  0.47000000000E+01 0. -1.
        -11    1    6    6    0    0  0.14260055786E+02  0.10629187053E+03  0.28583839857E+03  0.30529477727E+03  0.00000000000E+00 0.  1.
         12    1    6    6    0    0 -0.31321735001E+01  0.53982802631E+02  0.40299482332E+03  0.40660642041E+03  0.00000000000E+00 0. -1.
         -5    1    3    3    0  503 -0.57802429423E+01 -0.19326494344E+03  0.33468913634E+02  0.19628297877E+03  0.47000000000E+01 0.  1.
         11    1    4    4    0    0 -0.88684820103E+01 -0.25082975661E+02  0.73804692025E+02  0.78453414241E+02  0.00000000000E+00 0. -1.
        -12    1    4    4    0    0 -0.58882811026E+02 -0.11237513897E+03  0.60593934943E+02  0.14059510036E+03  0.00000000000E+00 0.  1.
</event>
<event>
12    1  0.8526130E-002  0.2227728E+03  0.7818608E-02  0.1131931E+00
         21   -1    0    0  501  502  0.00000000000E+00  0.00000000000E+00  0.23459040237E+03  0.23459040237E+03  0.00000000000E+00 0. -1.
         21   -1    0    0  502  503 -0.00000000000E+00 -0.00000000000E+00 -0.21688568828E+03  0.21688568828E+03  0.00000000000E+00 0.  1.
         -6    2    1    2    0  503  0.13685205341E+03  0.36009475682E+02 -0.28199725520E+02  0.22455052217E+03  0.17205390326E+03 0.  0.
        -24    2    3    3    0    0  0.10127295845E+03  0.82944515002E+01  0.46108068369E+02  0.13750034816E+03  0.80345390251E+02 0.  0.
          6    2    1    2  501    0 -0.13685205341E+03 -0.36009475682E+02  0.45904439616E+02  0.22692556848E+03  0.17135585544E+03 0.  0.
         24    2    5    5    0    0 -0.82073694135E+02 -0.28652648442E+02 -0.39910188204E+02  0.12474420081E+03  0.80070137885E+02 0.  0.
          5    1    5    5  501    0 -0.54778359273E+02 -0.73568272396E+01  0.85814627820E+02  0.10218136767E+03  0.47000000000E+01 0. -1.
        -11    1    6    6    0    0 -0.29945945676E+02  0.24157258145E+02  0.37359129509E+01  0.38656045181E+02  0.00000000000E+00 0.  1.
         12    1    6    6    0    0 -0.52127748459E+02 -0.52809906587E+02 -0.43646101155E+02  0.86088155626E+02  0.00000000000E+00 0. -1.
         -5    1    3    3    0  503  0.35579094954E+02  0.27715024182E+02 -0.74307793889E+02  0.87050174014E+02  0.47000000000E+01 0.  1.
         13    1    4    4    0    0  0.42603743215E+02 -0.21006746987E+02  0.53455013446E+02  0.71510844055E+02  0.00000000000E+00 0. -1.
        -14    1    4    4    0    0  0.58669215238E+02  0.29301198488E+02 -0.73469450765E+01  0.65989504101E+02  0.00000000000E+00 0.  1.
</event>
<event>
12    1  0.8526130E-002  0.2808087E+03  0.7818608E-02  0.1095435E+00
         21   -1    0    0  501  502  0.00000000000E+00  0.00000000000E+00  0.18510892009E+03  0.18510892009E+03  0.00000000000E+00 0.  1.
         21   -1    0    0  502  503 -0.00000000000E+00 -0.00000000000E+00 -0.43826082663E+03  0.43826082663E+03  0.00000000000E+00 0. -1.
         -6    2    1    2    0  503 -0.20160878493E+03  0.89681936742E+02 -0.70477508335E+02  0.28951786845E+03  0.17367948937E+03 0.  0.
        -24    2    3    3    0    0 -0.10469732928E+03  0.70489195544E+02 -0.10746687365E+03  0.18392196560E+03  0.79673728742E+02 0.  0.
          6    2    1    2  501    0  0.20160878493E+03 -0.89681936742E+02 -0.18267439820E+03  0.33385187827E+03  0.17145900071E+03 0.  0.
         24    2    5    5    0    0  0.29146111329E+02 -0.60992597255E+02 -0.64483594706E+02  0.12276514723E+03  0.79646435348E+02 0.  0.
          5    1    5    5  501    0  0.17246267360E+03 -0.28689339486E+02 -0.11819080350E+03  0.21108673103E+03  0.47000000000E+01 0. -1.
        -11    1    6    6    0    0  0.35114814196E+02 -0.43520682702E+02 -0.23993656508E+00  0.55920993986E+02  0.00000000000E+00 0.  1.
         12    1    6    6    0    0 -0.59687028674E+01 -0.17471914554E+02 -0.64243658141E+02  0.66844153248E+02  0.00000000000E+00 0. -1.
         -5    1    3    3    0  503 -0.96911455655E+02  0.19192741197E+02  0.36989365313E+02  0.10559590285E+03  0.47000000000E+01 0.  1.
         13    1    4    4    0    0  0.11102603853E+01  0.18380989378E+02  0.68712919122E+01  0.19654722109E+02  0.00000000000E+00 0. -1.
        -14    1    4    4    0    0 -0.10580758966E+03  0.52108206166E+02 -0.11433816556E+03  0.16426724349E+03  0.00000000000E+00 0.  1.
</event>
<event>
12    1  0.8526130E-002  0.2117909E+03  0.7818608E-02  0.1140217E+00
         21   -1    0    0  501  502  0.00000000000E+00  0.00000000000E+00  0.13684367782E+03  0.13684367782E+03  0.00000000000E+00 0. -1.
         21   -1    0    0  502  503 -0.00000000000E+00 -0.00000000000E+00 -0.33400503335E+03  0.33400503335E+03  0.00000000000E+00 0. -1.
         -6    2    1    2    0  503 -0.56679759100E+02 -0.10968332415E+03 -0.13187037181E+03  0.24922218136E+03  0.17169412930E+03 0.  0.
        -24    2    3    3    0    0 -0.57326524889E+01 -0.24453303363E+02 -0.41846557778E+01  0.87402849411E+02  0.83611718026E+02 0.  0.
          6    2    1    2  501    0  0.56679759100E+02  0.10968332415E+03 -0.65290983724E+02  0.22162652981E+03  0.17208247869E+03 0.  0.
         24    2    5    5    0    0  0.59349084440E+02  0.29637168105E+02  0.22881868244E+02  0.10241640348E+03  0.74598017735E+02 0.  0.
          5    1    5    5  501    0 -0.26693253405E+01  0.80046156042E+02 -0.88172851968E+02  0.11921012633E+03  0.47000000000E+01 0. -1.
        -11    1    6    6    0    0  0.70439451149E+01  0.31529656210E+02  0.36088327618E+02  0.48436595399E+02  0.00000000000E+00 0.  1.
         12    1    6    6    0    0  0.52305139326E+02 -0.18924881058E+01 -0.13206459375E+02  0.53979808080E+02  0.00000000000E+00 0. -1.
         -5    1    3    3    0  503 -0.50947106611E+02 -0.85230020784E+02 -0.12768571603E+03  0.16181933195E+03  0.47000000000E+01 0.  1.
         11    1    4    4    0    0 -0.34381004005E+02 -0.28759341425E+02  0.20550095607E+02  0.49309832539E+02  0.00000000000E+00 0. -1.
        -12    1    4    4    0    0  0.28648351516E+02  0.43060380624E+01 -0.24734751384E+02  0.38093016872E+02  0.00000000000E+00 0.  1.
</event>
<event>
12    1  0.8526130E-002  0.2494765E+03  0.7818608E-02  0.1114421E+00
         21   -1    0    0  501  502  0.00000000000E+00  0.00000000000E+00  0.96130881928E+02  0.96130881928E+02  0.00000000000E+00 0.  1.
         21   -1    0    0  502  503 -0.00000000000E+00 -0.00000000000E+00 -0.11064728692E+04  0.11064728692E+04  0.00000000000E+00 0.  1.
         -6    2    1    2    0  503 -0.16723480201E+03  0.66606066949E+02 -0.89488603593E+03  0.92770632469E+03  0.16557222113E+03 0.  0.
        -24    2    3    3    0    0 -0.10900357971E+03  0.10453133088E+03 -0.54269101519E+03  0.56869013630E+03  0.78015085909E+02 0.  0.
          6    2    1    2  501    0  0.16723480201E+03 -0.66606066949E+02 -0.11545595136E+03  0.27489742646E+03  0.17272715829E+03 0.  0.
         24    2    5    5    0    0  0.13289082807E+03  0.36125380773E+01 -0.25876305942E+02  0.15591522648E+03  0.77246048595E+02 0.  0.
          5    1    5    5  501    0  0.34343973936E+02 -0.70218605026E+02 -0.89579645421E+02  0.11898219998E+03  0.47000000000E+01 0. -1.
        -11    1    6    6    0    0  0.11207316830E+03 -0.24083999805E+02 -0.35296996521E+01  0.11468606227E+03  0.00000000000E+00 0.  1.
         12    1    6    6    0    0  0.20817659769E+02  0.27696537882E+02 -0.22346606290E+02  0.41229164212E+02  0.00000000000E+00 0. -1.
         -5    1    3    3    0  503 -0.58231222293E+02 -0.37925263928E+02 -0.35219502074E+03  0.35901618839E+03  0.47000000000E+01 0.  1.
         13    1    4    4    0    0 -0.17774307268E+02  0.32470992608E+02 -0.48520886850E+02  0.61029237424E+02  0.00000000000E+00 0. -1.
        -14    1    4    4    0    0 -0.91229272444E+02  0.72060338269E+02 -0.49417012834E+03  0.50766089887E+03  0.00000000000E+00 0.  1.
</event>
<event>
12    1  0.8526130E-002  0.1980381E+03  0.7818608E-02  0.1153797E+00
         21   -1    0    0  503  502  0.00000000000E+00  0.00000000000E+00  0.64120160915E+03  0.64120160915E+03  0.00000000000E+00 0.  1.
         21   -1    0    0  501  503 -0.00000000000E+00 -0.00000000000E+00 -0.58122074839E+02  0.58122074839E+02  0.00000000000E+00 0.  1.
          6    2    1    2  501    0 -0.38855033512E+01 -0.75911371143E+02  0.30701834685E+03  0.35957543386E+03  0.17104559021E+03 0.  0.
         24    2    3    3    0    0  0.23594517427E+02 -0.69119924930E+02  0.93865312321E+02  0.14449967648E+03  0.82068229978E+02 0.  0.
         -6    2    1    2    0  502  0.38855033512E+01  0.75911371143E+02  0.27606118747E+03  0.33974825013E+03  0.18287006544E+03 0.  0.
        -24    2    5    5    0    0  0.72799742296E+02  0.67301696389E+02  0.17538137125E+03  0.21734802863E+03  0.81561138753E+02 0.  0.
          5    1    3    3  501    0 -0.27480020779E+02 -0.67914462133E+01  0.21315303453E+03  0.21507575738E+03  0.47000000000E+01 0. -1.
        -13    1    4    4    0    0 -0.28862217792E+01 -0.77783251174E+02  0.85016241261E+02  0.11526632517E+03  0.00000000000E+00 0.  1.
         14    1    4    4    0    0  0.26480739207E+02  0.86633262444E+01  0.88490710593E+01  0.29233351316E+02  0.00000000000E+00 0. -1.
         -5    1    5    5    0  502 -0.68914238945E+02  0.86096747544E+01  0.10067981622E+03  0.12240022150E+03  0.47000000000E+01 0.  1.
         13    1    6    6    0    0 -0.13018708186E+02  0.29796367122E+02  0.29000335416E+02  0.43569825691E+02  0.00000000000E+00 0. -1.
        -14    1    6    6    0    0  0.85818450482E+02  0.37505329267E+02  0.14638103583E+03  0.17377820294E+03  0.00000000000E+00 0.  1.
</event>
<event>
12    1  0.8526130E-002  0.2577242E+03  0.7818608E-02  0.1108611E+00
         21   -1    0    0  501  502  0.00000000000E+00  0.00000000000E+00  0.78333390246E+03  0.78333390246E+03  0.00000000000E+00 0. -1.
         21   -1    0    0  502  503 -0.00000000000E+00 -0.00000000000E+00 -0.97668624575E+02  0.97668624575E+02  0.00000000000E+00 0. -1.
         -6    2    1    2    0  503 -0.39970189898E+02 -0.18775309454E+03  0.18200912703E+03  0.31551400440E+03  0.17196779949E+03 0.  0.
        -24    2    3    3    0    0 -0.35036070231E+02 -0.20885733328E+03  0.13178136624E+03  0.26060815422E+03  0.75507414708E+02 0.  0.
          6    2    1    2  501    0  0.39970189898E+02  0.18775309454E+03  0.50365615086E+03  0.56548852264E+03  0.17105236142E+03 0.  0.
         24    2    5    5    0    0 -0.25468050811E+02  0.56396990171E+02  0.11225612950E+03  0.14745424627E+03  0.72883976424E+02 0.  0.
          5    1    5    5  501    0  0.65438240709E+02  0.13135610437E+03  0.39140002136E+03  0.41803427637E+03  0.47000000000E+01 0. -1.
        -13    1    6    6    0    0  0.98314674594E+01  0.31749393676E+02  0.73251887266E+01  0.34034396440E+02  0.00000000000E+00 0.  1.
         14    1    6    6    0    0 -0.35299518270E+02  0.24647596496E+02  0.10493094077E+03  0.11341984983E+03  0.00000000000E+00 0. -1.
         -5    1    3    3    0  503 -0.49341196673E+01  0.21104238742E+02  0.50227760789E+02  0.54905850177E+02  0.47000000000E+01 0.  1.
         11    1    4    4    0    0 -0.58807411340E+02 -0.14504575635E+03  0.97130478390E+02  0.18420345517E+03  0.00000000000E+00 0. -1.
        -12    1    4    4    0    0  0.23771341109E+02 -0.63811576928E+02  0.34650887846E+02  0.76404699048E+02  0.00000000000E+00 0.  1.
</event>
<event>
12    1  0.8526130E-002  0.2172790E+03  0.7818608E-02  0.1136023E+00
         21   -1    0    0  501  502  0.00000000000E+00  0.00000000000E+00  0.18901469428E+04  0.18901469428E+04  0.00000000000E+00 0.  1.
         21   -1    0    0  502  503 -0.00000000000E+00 -0.00000000000E+00 -0.27100512874E+02  0.27100512874E+02  0.00000000000E+00 0.  1.
         -6    2    1    2    0  503  0.13390928610E+03  0.64867893540E+01  0.65859410458E+03  0.69335384592E+03  0.17035135964E+03 0.  0.
        -24    2    3    3    0    0  0.10016980649E+03  0.21291447079E+02  0.63793200190E+03  0.65085040063E+03  0.78496427309E+02 0.  0.
          6    2    1    2  501    0 -0.13390928610E+03 -0.64867893540E+01  0.12044523253E+04  0.12238936097E+04  0.17098651588E+03 0.  0.
         24    2    5    5    0    0 -0.21236880392E+02  0.41723649896E+02  0.42704739005E+03  0.43687401604E+03  0.79357195592E+02 0.  0.
          5    1    5    5  501    0 -0.11267240571E+03 -0.48210439250E+02  0.77740493529E+03  0.78701959371E+03  0.47000000000E+01 0. -1.
        -13    1    6    6    0    0 -0.13359551852E+02 -0.21125321372E+02  0.71857907976E+02  0.76080981641E+02  0.00000000000E+00 0.  1.
         14    1    6    6    0    0 -0.78773285398E+01  0.62848971268E+02  0.35518948207E+03  0.36079303440E+03  0.00000000000E+00 0. -1.
         -5    1    3    3    0  503  0.33739479611E+02 -0.14804657725E+02  0.20662102680E+02  0.42503445295E+02  0.47000000000E+01 0.  1.
         13    1    4    4    0    0 -0.47202184207E+01  0.20739003952E+02  0.64867149693E+02  0.68265173084E+02  0.00000000000E+00 0. -1.
        -14    1    4    4    0    0  0.10489002491E+03  0.55244312693E+00  0.57306485221E+03  0.58258522755E+03  0.00000000000E+00 0.  1.
</event>
<event>
12    1  0.8526130E-002  0.1732249E+03  0.7818608E-02  0.1176092E+00
         21   -1    0    0  501  502  0.00000000000E+00  0.00000000000E+00  0.14912972935E+04  0.14912972935E+04  0.00000000000E+00 0.  1.
         21   -1    0    0  502  503 -0.00000000000E+00 -0.00000000000E+00 -0.19576371274E+02  0.19576371274E+02  0.00000000000E+00 0.  1.
         -6    2    1    2    0  503  0.14594591901E+02 -0.19892019654E+02  0.81510321376E+03  0.83330672775E+03  0.17145891307E+03 0.  0.
        -24    2    3    3    0    0 -0.34481247250E+02 -0.54369596217E+02  0.37230840329E+03  0.38644380083E+03  0.81118768704E+02 0.  0.
          6    2    1    2  501    0 -0.14594591901E+02  0.19892019654E+02  0.65661770848E+03  0.67756693703E+03  0.16535248568E+03 0.  0.
         24    2    5    5    0    0 -0.71530326034E+02  0.25769959244E+01  0.38898668539E+03  0.40335909181E+03  0.79149776243E+02 0.  0.
          5    1    5    5  501    0  0.56935734134E+02  0.17315023730E+02  0.26763102308E+03  0.27420784523E+03  0.47000000000E+01 0. -1.
        -11    1    6    6    0    0 -0.60229416524E+02  0.14684388599E+02  0.37896256619E+03  0.38399979226E+03  0.00000000000E+00 0.  1.
         12    1    6    6    0    0 -0.11300909511E+02 -0.12107392675E+02  0.10024119206E+02  0.19359299548E+02  0.00000000000E+00 0. -1.
         -5    1    3    3    0  503  0.49075839151E+02  0.34477576563E+02  0.44279481048E+03  0.44686292692E+03  0.47000000000E+01 0.  1.
         13    1    4    4    0    0 -0.17440341170E+02 -0.33298914844E+01  0.10441407417E+02  0.20597977237E+02  0.00000000000E+00 0. -1.
        -14    1    4    4    0    0 -0.17040906080E+02 -0.51039704733E+02  0.36186699587E+03  0.36584582359E+03  0.00000000000E+00 0.  1.
</event>
<event>
12    1  0.8526130E-002  0.3584952E+03  0.7818608E-02  0.1059200E+00
         21   -1    0    0  503  502  0.00000000000E+00  0.00000000000E+00  0.95387921901E+03  0.95387921901E+03  0.00000000000E+00 0. -1.
         21   -1    0    0  501  503 -0.00000000000E+00 -0.00000000000E+00 -0.13546640512E+03  0.13546640512E+03  0.00000000000E+00 0. -1.
          6    2    1    2  501    0  0.14674403802E+03 -0.27791694962E+03  0.36734281911E+03  0.51328310479E+03  0.17247363662E+03 0.  0.
         24    2    3    3    0    0  0.15061406259E+02 -0.60967217632E+02  0.13803042102E+03  0.17121035283E+03  0.79477922744E+02 0.  0.
         -6    2    1    2    0  502 -0.14674403802E+03  0.27791694962E+03  0.45106999478E+03  0.57606251934E+03  0.17208208045E+03 0.  0.
        -24    2    5    5    0    0 -0.11432774204E+03  0.87860501017E+02  0.17546115988E+03  0.23967793322E+03  0.76606741260E+02 0.  0.
          5    1    3    3  501    0  0.13168263177E+03 -0.21694973199E+03  0.22931239809E+03  0.34207275196E+03  0.47000000000E+01 0. -1.
        -13    1    4    4    0    0  0.34368944477E+02 -0.31421570839E+02  0.25117424794E+02  0.52909587852E+02  0.00000000000E+00 0.  1.
         14    1    4    4    0    0 -0.19307538218E+02 -0.29545646793E+02  0.11291299623E+03  0.11830076498E+03  0.00000000000E+00 0. -1.
         -5    1    5    5    0  502 -0.32416295981E+02  0.19005644861E+03  0.27560883490E+03  0.33638458612E+03  0.47000000000E+01 0.  1.
         11    1    6    6    0    0 -0.83428063450E+02  0.97387323103E+02  0.15598558313E+03  0.20193076689E+03  0.00000000000E+00 0. -1.
        -12    1    6    6    0    0 -0.30899678593E+02 -0.95268220864E+01  0.19475576751E+02  0.37747166331E+02  0.00000000000E+00 0.  1.
</event>
<event>
12    1  0.8526130E-002  0.2074666E+03  0.7818608E-02  0.1143594E+00
         21   -1    0    0  501  502  0.00000000000E+00  0.00000000000E+00  0.81383193018E+03  0.81383193018E+03  0.00000000000E+00 0. -1.
         21   -1    0    0  502  503 -0.00000000000E+00 -0.00000000000E+00 -0.53046484110E+02  0.53046484110E+02  0.00000000000E+00 0.  1.
         -6    2    1    2    0  503  0.79743439147E+02 -0.83447536773E+02  0.35613768727E+03  0.41214529956E+03  0.17235773315E+03 0.  0.
        -24    2    3    3    0    0  0.16133546995E+02 -0.52020242811E+01  0.26122989379E+03  0.27358788233E+03  0.79510499665E+02 0.  0.
          6    2    1    2  501    0 -0.79743439147E+02  0.83447536773E+02  0.40464775881E+03  0.45473311474E+03  0.17239457488E+03 0.  0.
         24    2    5    5    0    0 -0.11974117376E+03  0.53788554606E+02  0.27473689276E+03  0.31552680341E+03  0.82738419878E+02 0.  0.
          5    1    5    5  501    0  0.39997734610E+02  0.29658982167E+02  0.12991086605E+03  0.13920631133E+03  0.47000000000E+01 0. -1.
        -11    1    6    6    0    0 -0.69336702966E+02  0.69902827074E+02  0.14356492990E+03  0.17408294778E+03  0.00000000000E+00 0.  1.
         12    1    6    6    0    0 -0.50404470791E+02 -0.16114272468E+02  0.13117196286E+03  0.14144385562E+03  0.00000000000E+00 0. -1.
         -5    1    3    3    0  503  0.63609892152E+02 -0.78245512492E+02  0.94907793480E+02  0.13855741722E+03  0.47000000000E+01 0.  1.
         13    1    4    4    0    0  0.47764815935E+02 -0.30672041445E+01  0.18354309587E+03  0.18968118891E+03  0.00000000000E+00 0. -1.
        -14    1    4    4    0    0 -0.31631268940E+02 -0.21348201366E+01  0.77686797913E+02  0.83906693427E+02  0.00000000000E+00 0.  1.
</event>
<event>
12    1  0.8526130E-002  0.2067552E+03  0.7818608E-02  0.1144377E+00
         21   -1    0    0  503  502  0.00000000000E+00  0.00000000000E+00  0.99563473019E+02  0.99563473019E+02  0.00000000000E+00 0.  1.
         21   -1    0    0  501  503 -0.00000000000E+00 -0.00000000000E+00 -0.55603248448E+03  0.55603248448E+03  0.00000000000E+00 0.  1.
          6    2    1    2  501    0  0.30971672392E+02  0.10648254553E+03 -0.38650426556E+03  0.43833005965E+03  0.17449904557E+03 0.  0.
         24    2    3    3    0    0  0.60843758685E+01  0.11424397110E+03 -0.17032480796E+03  0.22053367506E+03  0.80844647722E+02 0.  0.
         -6    2    1    2    0  502 -0.30971672392E+02 -0.10648254553E+03 -0.69964745903E+02  0.21726589785E+03  0.17323864380E+03 0.  0.
        -24    2    5    5    0    0 -0.40168212923E+02 -0.80930593733E+02  0.20781557554E+02  0.12242676990E+03  0.79957454453E+02 0.  0.
          5    1    3    3  501    0  0.24887296523E+02 -0.77614255637E+01 -0.21617945760E+03  0.21779638460E+03  0.47000000000E+01 0. -1.
        -11    1    4    4    0    0  0.32865660447E+01  0.39665609696E+02 -0.12947486826E+03  0.13545443374E+03  0.00000000000E+00 0.  1.
         12    1    4    4    0    0  0.27978098238E+01  0.74578361402E+02 -0.40849939697E+02  0.85079241313E+02  0.00000000000E+00 0. -1.
         -5    1    5    5    0  502  0.91965405312E+01 -0.25551951801E+02 -0.90746303457E+02  0.94839127947E+02  0.47000000000E+01 0.  1.
         13    1    6    6    0    0 -0.36655037157E+02 -0.17486789578E+02  0.39020065740E+02  0.56320023873E+02  0.00000000000E+00 0. -1.
        -14    1    6    6    0    0 -0.35131757663E+01 -0.63443804155E+02 -0.18238508186E+02  0.66106746028E+02  0.00000000000E+00 0.  1.
</event>
<event>
12    1  0.8526130E-002  0.2920113E+03  0.7818608E-02  0.1089355E+00
         21   -1    0    0  503  502  0.00000000000E+00  0.00000000000E+00  0.86811565526E+03  0.86811565526E+03  0.00000000000E+00 0.  1.
         21   -1    0    0  501  503 -0.00000000000E+00 -0.00000000000E+00 -0.14233133316E+03  0.14233133316E+03  0.00000000000E+00 0. -1.
          6    2    1    2  501    0  0.19058249948E+02 -0.23518214569E+03  0.81393990389E+02  0.30314286746E+03  0.17203708285E+03 0.  0.
         24    2    3    3    0    0  0.38224817598E+02 -0.23416317514E+03  0.34790000937E+02  0.25252254101E+03  0.79143921336E+02 0.  0.
         -6    2    1    2    0  502 -0.19058249948E+02  0.23518214569E+03  0.64439033172E+03  0.70730412096E+03  0.17136616170E+03 0.  0.
        -24    2    5    5    0    0  0.27375219618E+02  0.16905288383E+03  0.55632255211E+03  0.58769153728E+03  0.80983213220E+02 0.  0.
          5    1    3    3  501    0 -0.19166567650E+02 -0.10189705559E+01  0.46603989452E+02  0.50620326444E+02  0.47000000000E+01 0. -1.
        -11    1    4    4    0    0  0.66216457785E+01 -0.61241715343E+02 -0.25524251346E+02  0.66677442196E+02  0.00000000000E+00 0.  1.
         12    1    4    4    0    0  0.31603171820E+02 -0.17292145979E+03  0.60314252284E+02  0.18584509882E+03  0.00000000000E+00 0. -1.
         -5    1    5    5    0  502 -0.46433469566E+02  0.66129261863E+02  0.88067779610E+02  0.11961258369E+03  0.47000000000E+01 0.  1.
         13    1    6    6    0    0 -0.12638946216E+02 -0.23970058940E+01  0.50193558625E+02  0.51815846284E+02  0.00000000000E+00 0. -1.
        -14    1    6    6    0    0  0.40014165834E+02  0.17144988972E+03  0.50612899348E+03  0.53587569099E+03  0.00000000000E+00 0.  1.
</event>
<event>
12    1  0.8526130E-002  0.1762390E+03  0.7818608E-02  0.1172062E+00
         21   -1    0    0  501  502  0.00000000000E+00  0.00000000000E+00  0.19753733439E+04  0.19753733439E+04  0.00000000000E+00 0.  1.
         21   -1    0    0  502  503 -0.00000000000E+00 -0.00000000000E+00 -0.19605707083E+02  0.19605707083E+02  0.00000000000E+00 0.  1.
         -6    2    1    2    0  503  0.31048529571E+02 -0.12407111422E+02  0.51761136596E+03  0.54606440354E+03  0.17072451212E+03 0.  0.
        -24    2    3    3    0    0  0.47095752070E+01  0.56391789144E+02  0.33151351291E+03  0.34586068193E+03  0.80722909276E+02 0.  0.
          6    2    1    2  501    0 -0.31048529571E+02  0.12407111422E+02  0.14381562708E+04  0.14489146474E+04  0.17303828643E+03 0.  0.
         24    2    5    5    0    0 -0.18215197298E+02  0.16121342124E+02  0.14302947453E+04  0.14327163910E+04  0.79633583045E+02 0.  0.
          5    1    5    5  501    0 -0.12833332273E+02 -0.37142307012E+01  0.78615255255E+01  0.16198256404E+02  0.47000000000E+01 0. -1.
        -11    1    6    6    0    0 -0.42527799218E+02  0.44492588320E+01  0.44430187001E+03  0.44635474827E+03  0.00000000000E+00 0.  1.
         12    1    6    6    0    0  0.24312601920E+02  0.11672083292E+02  0.98599287530E+03  0.98636164275E+03  0.00000000000E+00 0. -1.
         -5    1    3    3    0  503  0.26338954364E+02 -0.68798900567E+02  0.18609785305E+03  0.20020372160E+03  0.47000000000E+01 0.  1.
         13    1    4    4    0    0 -0.33096932069E+02  0.36847932168E+02  0.11513690918E+03  0.12533828175E+03  0.00000000000E+00 0. -1.
        -14    1    4    4    0    0  0.37806507276E+02  0.19543856976E+02  0.21637660373E+03  0.22052240018E+03  0.00000000000E+00 0.  1.
</event>
<event>
12    1  0.8526130E-002  0.1812360E+03  0.7818608E-02  0.1166816E+00
         21   -1    0    0  501  502  0.00000000000E+00  0.00000000000E+00  0.13411960170E+04  0.13411960170E+04  0.00000000000E+00 0.  1.
         21   -1    0    0  502  503 -0.00000000000E+00 -0.00000000000E+00 -0.38310545838E+02  0.38310545838E+02  0.00000000000E+00 0.  1.
         -6    2    1    2    0  503  0.26002870347E+02 -0.45554165614E+02  0.23642723375E+03  0.29789982653E+03  0.17347950460E+03 0.  0.
        -24    2    3    3    0    0  0.20013726038E+01  0.35425012918E+02  0.16750538606E+03  0.18878516052E+03  0.79516321843E+02 0.  0.
          6    2    1    2  501    0 -0.26002870347E+02  0.45554165614E+02  0.10664582374E+04  0.10816067363E+04  0.17259382556E+03 0.  0.
         24    2    5    5    0    0  0.32319285779E+02  0.23992396470E+02  0.88121182801E+03  0.88614649489E+03  0.84268340713E+02 0.  0.
          5    1    5    5  501    0 -0.58322156126E+02  0.21561769144E+02  0.18524640942E+03  0.19546024145E+03  0.47000000000E+01 0. -1.
        -11    1    6    6    0    0  0.12411503722E+02  0.55030315932E+02  0.55290499709E+03  0.55577541948E+03  0.00000000000E+00 0.  1.
         12    1    6    6    0    0  0.19907782057E+02 -0.31037919462E+02  0.32830683093E+03  0.33037107540E+03  0.00000000000E+00 0. -1.
         -5    1    3    3    0  503  0.24001497743E+02 -0.80979178531E+02  0.68921847692E+02  0.10911466601E+03  0.47000000000E+01 0.  1.
         11    1    4    4    0    0  0.36217449423E+02  0.22235437030E+01  0.97978560150E+02  0.10448179764E+03  0.00000000000E+00 0. -1.
        -12    1    4    4    0    0 -0.34216076819E+02  0.33201469214E+02  0.69526825913E+02  0.84303362878E+02  0.00000000000E+00 0.  1.
</event>
<event>
12    1  0.8526130E-002  0.1993483E+03  0.7818608E-02  0.1150406E+00
         21   -1    0    0  503  502  0.00000000000E+00  0.00000000000E+00  0.38601874178E+03  0.38601874178E+03  0.00000000000E+00 0.  1.
         21   -1    0    0  501  503 -0.00000000000E+00 -0.00000000000E+00 -0.13687367207E+03  0.13687367207E+03  0.00000000000E+00 0. -1.
          6    2    1    2  501    0  0.70274026472E+02  0.72124035251E+02 -0.62596316775E+01  0.19889966599E+03  0.17141055651E+03 0.  0.
         24    2    3    3    0    0  0.38394521389E+02 -0.28863731019E+01  0.49579195888E+02  0.99990976431E+02  0.77830766926E+02 0.  0.
         -6    2    1    2    0  502 -0.70274026472E+02 -0.72124035251E+02  0.25540470138E+03  0.32399274786E+03  0.17204483115E+03 0.  0.
        -24    2    5    5    0    0  0.69669315836E+01 -0.88693158729E+02  0.16955516820E+03  0.20723259284E+03  0.79255144508E+02 0.  0.
          5    1    3    3  501    0  0.31879505084E+02  0.75010408353E+02 -0.55838827565E+02  0.98908689555E+02  0.47000000000E+01 0. -1.
        -11    1    4    4    0    0 -0.61137962187E+01 -0.22308584420E+02  0.45766798247E+02  0.51280125437E+02  0.00000000000E+00 0.  1.
         12    1    4    4    0    0  0.44508317607E+02  0.19422211318E+02  0.38123976404E+01  0.48710850993E+02  0.00000000000E+00 0. -1.
         -5    1    5    5    0  502 -0.77240958056E+02  0.16569123478E+02  0.85849533175E+02  0.11676015502E+03  0.47000000000E+01 0.  1.
         11    1    6    6    0    0  0.33161610275E+02 -0.38091666759E+02  0.12526881965E+03  0.13506644531E+03  0.00000000000E+00 0. -1.
        -12    1    6    6    0    0 -0.26194678691E+02 -0.50601491970E+02  0.44286348552E+02  0.72166147531E+02  0.00000000000E+00 0.  1.
</event>
<event>
12    1  0.8526130E-002  0.4056173E+03  0.7818608E-02  0.1041876E+00
         21   -1    0    0  501  502  0.00000000000E+00  0.00000000000E+00  0.10775318009E+04  0.10775318009E+04  0.00000000000E+00 0.  1.
         21   -1    0    0  502  503 -0.00000000000E+00 -0.00000000000E+00 -0.21471596397E+03  0.21471596397E+03  0.00000000000E+00 0. -1.
         -6    2    1    2    0  503  0.35418754159E+03 -0.95943262888E+02  0.77910156372E+03  0.87836474438E+03  0.17283359992E+03 0.  0.
        -24    2    3    3    0    0  0.18751256404E+03 -0.97476413956E+02  0.33601269970E+03  0.40493816072E+03  0.80048527137E+02 0.  0.
          6    2    1    2  501    0 -0.35418754159E+03  0.95943262888E+02  0.83714273230E+02  0.41388302051E+03  0.17215443885E+03 0.  0.
         24    2    5    5    0    0 -0.34155627920E+03  0.10369478682E+03  0.40426679205E+02  0.36788801307E+03  0.79334564325E+02 0.  0.
          5    1    5    5  501    0 -0.12631262392E+02 -0.77515239360E+01  0.43287594025E+02  0.45995007440E+02  0.47000000000E+01 0. -1.
        -11    1    6    6    0    0 -0.47411359278E+02  0.35276402466E+02  0.28617769163E+02  0.65660020343E+02  0.00000000000E+00 0.  1.
         12    1    6    6    0    0 -0.29414491992E+03  0.68418384358E+02  0.11808910042E+02  0.30222799273E+03  0.00000000000E+00 0. -1.
         -5    1    3    3    0  503  0.16667497755E+03  0.15331510682E+01  0.44308886402E+03  0.47342658365E+03  0.47000000000E+01 0.  1.
         13    1    4    4    0    0  0.59331943489E+02 -0.50668598581E+02  0.65165080736E+02  0.10165664832E+03  0.00000000000E+00 0. -1.
        -14    1    4    4    0    0  0.12818062055E+03 -0.46807815375E+02  0.27084761896E+03  0.30328151240E+03  0.00000000000E+00 0.  1.
</event>
<event>
12    1  0.8526130E-002  0.2584527E+03  0.7818608E-02  0.1108184E+00
         21   -1    0    0  503  502  0.00000000000E+00  0.00000000000E+00  0.53184767481E+03  0.53184767481E+03  0.00000000000E+00 0. -1.
         21   -1    0    0  501  503 -0.00000000000E+00 -0.00000000000E+00 -0.22840128189E+03  0.22840128189E+03  0.00000000000E+00 0.  1.
          6    2    1    2  501    0 -0.18855564836E+03 -0.40237831727E+02 -0.10384286747E+03  0.27787737973E+03  0.17105607681E+03 0.  0.
         24    2    3    3    0    0 -0.21602896636E+02 -0.28262003518E+02 -0.54311476377E+02  0.10325753414E+03  0.80292938080E+02 0.  0.
         -6    2    1    2    0  502  0.18855564836E+03  0.40237831727E+02  0.40728926039E+03  0.48237157697E+03  0.17212054210E+03 0.  0.
        -24    2    5    5    0    0  0.16279569792E+03  0.80168422234E+02  0.36927819092E+03  0.42133913882E+03  0.90724155695E+02 0.  0.
          5    1    3    3  501    0 -0.16695275172E+03 -0.11975828209E+02 -0.49531391091E+02  0.17461984559E+03  0.47000000000E+01 0. -1.
        -11    1    4    4    0    0 -0.46439774919E+02 -0.23137539213E+02 -0.57785625192E+02  0.77660652162E+02  0.00000000000E+00 0.  1.
         12    1    4    4    0    0  0.24836878283E+02 -0.51244643048E+01  0.34741488153E+01  0.25596881983E+02  0.00000000000E+00 0. -1.
         -5    1    5    5    0  502  0.25759950435E+02 -0.39930590508E+02  0.38011069466E+02  0.61032438151E+02  0.47000000000E+01 0.  1.
         11    1    6    6    0    0  0.11461608123E+03  0.14465545141E+02  0.26436713828E+03  0.28850664096E+03  0.00000000000E+00 0. -1.
        -12    1    6    6    0    0  0.48179616690E+02  0.65702877093E+02  0.10491105264E+03  0.13283249786E+03  0.00000000000E+00 0.  1.
</event>
<event>
12    1  0.8526130E-002  0.2204338E+03  0.7818608E-02  0.1136847E+00
         21   -1    0    0  503  502  0.00000000000E+00  0.00000000000E+00  0.10261874178E+04  0.10261874178E+04  0.00000000000E+00 0.  1.
         21   -1    0    0  501  503 -0.00000000000E+00 -0.00000000000E+00 -0.52391625660E+02  0.52391625660E+02  0.00000000000E+00 0.  1.
          6    2    1    2  501    0 -0.81855543103E+02 -0.76831683604E+02  0.25216454664E+03  0.32403101252E+03  0.16972242324E+03 0.  0.
         24    2    3    3    0    0  0.14345788404E+02 -0.91345017603E+01  0.62560521061E+02  0.10085085854E+03  0.77251770892E+02 0.  0.
         -6    2    1    2    0  502  0.81855543103E+02  0.76831683604E+02  0.72163124554E+03  0.75454803098E+03  0.18970408265E+03 0.  0.
        -24    2    5    5    0    0  0.94796756805E+02  0.31219798013E+02  0.24626905298E+03  0.27680414223E+03  0.77530547615E+02 0.  0.
          5    1    3    3  501    0 -0.96201331507E+02 -0.67697181844E+02  0.18960402558E+03  0.22318015398E+03  0.47000000000E+01 0. -1.
        -11    1    4    4    0    0 -0.22915501502E+02 -0.24524640481E+02  0.10834134134E+02  0.35269769807E+02  0.00000000000E+00 0.  1.
         12    1    4    4    0    0  0.37261289906E+02  0.15390138720E+02  0.51726386926E+02  0.65581088735E+02  0.00000000000E+00 0. -1.
         -5    1    5    5    0  502 -0.12941213701E+02  0.45611885591E+02  0.47536219256E+03  0.47774388875E+03  0.47000000000E+01 0.  1.
         13    1    6    6    0    0  0.50932038422E+02 -0.23530652094E+02  0.10344670368E+03  0.11768170898E+03  0.00000000000E+00 0. -1.
        -14    1    6    6    0    0  0.43864718383E+02  0.54750450107E+02  0.14282234930E+03  0.15912243325E+03  0.00000000000E+00 0.  1.
</event>
<event>
12    1  0.8526130E-002  0.2369582E+03  0.7818608E-02  0.1121964E+00
         21   -1    0    0  503  502  0.00000000000E+00  0.00000000000E+00  0.63253981400E+03  0.63253981400E+03  0.00000000000E+00 0.  1.
         21   -1    0    0  501  503 -0.00000000000E+00 -0.00000000000E+00 -0.14553906398E+03  0.14553906398E+03  0.00000000000E+00 0. -1.
          6    2    1    2  501    0  0.12885655388E+03 -0.98366449788E+02  0.15285639240E+00  0.23695822350E+03  0.17282709972E+03 0.  0.
         24    2    3    3    0    0  0.12859815941E+03 -0.11506172534E+03  0.38378938909E+02  0.19498058210E+03  0.82266622634E+02 0.  0.
         -6    2    1    2    0  502 -0.12885655388E+03  0.98366449788E+02  0.48684789363E+03  0.54112065448E+03  0.17178684832E+03 0.  0.
        -24    2    5    5    0    0 -0.16131637048E+03  0.81139591817E+02  0.42833038090E+03  0.47186176606E+03  0.81117238141E+02 0.  0.
          5    1    3    3  501    0  0.25839446558E+00  0.16695275554E+02 -0.38226082516E+02  0.41977641407E+02  0.47000000000E+01 0. -1.
        -11    1    4    4    0    0  0.35926868552E+02  0.82475687418E+01  0.92453868669E+01  0.38003150560E+02  0.00000000000E+00 0.  1.
         12    1    4    4    0    0  0.92671290862E+02 -0.12330929408E+03  0.29133552042E+02  0.15697743154E+03  0.00000000000E+00 0. -1.
         -5    1    5    5    0  502  0.32459816600E+02  0.17226857971E+02  0.58517512726E+02  0.69258888418E+02  0.47000000000E+01 0.  1.
         13    1    6    6    0    0 -0.13702309358E+03  0.28567031719E+02  0.30872659905E+03  0.33897421205E+03  0.00000000000E+00 0. -1.
        -14    1    6    6    0    0 -0.24293276901E+02  0.52572560098E+02  0.11960378185E+03  0.13288755401E+03  0.00000000000E+00 0.  1.
</event>
<event>
12    1  0.8526130E-002  0.2035618E+03  0.7818608E-02  0.1146815E+00
         21   -1    0    0  503  502  0.00000000000E+00  0.00000000000E+00  0.10233786963E+03  0.10233786963E+03  0.00000000000E+00 0.  1.
         21   -1    0    0  501  503 -0.00000000000E+00 -0.00000000000E+00 -0.41109745291E+03  0.41109745291E+03  0.00000000000E+00 0.  1.
          6    2    1    2  501    0 -0.11006103573E+03  0.29176975257E+01 -0.18691808952E+03  0.27619545206E+03  0.17094914742E+03 0.  0.
         24    2    3    3    0    0 -0.56210972917E+01  0.38146769603E+02 -0.52854242171E+02  0.10257519568E+03  0.79002070142E+02 0.  0.
         -6    2    1    2    0  502  0.11006103573E+03 -0.29176975257E+01 -0.12184149376E+03  0.23723987048E+03  0.17121758671E+03 0.  0.
        -24    2    5    5    0    0 -0.43770348473E+01 -0.27442575919E+02 -0.36206312553E+02  0.92143296026E+02  0.80045215515E+02 0.  0.
          5    1    3    3  501    0 -0.10443993844E+03 -0.35229072078E+02 -0.13406384735E+03  0.17362025638E+03  0.47000000000E+01 0. -1.
        -13    1    4    4    0    0 -0.18715831620E+01 -0.19323140256E+02 -0.38658604895E+02  0.43259384014E+02  0.00000000000E+00 0.  1.
         14    1    4    4    0    0 -0.37495141297E+01  0.57469909860E+02 -0.14195637276E+02  0.59315811663E+02  0.00000000000E+00 0. -1.
         -5    1    5    5    0  502  0.11443807058E+03  0.24524878393E+02 -0.85635181208E+02  0.14509657445E+03  0.47000000000E+01 0.  1.
         11    1    6    6    0    0  0.12796118607E+02 -0.26174004754E+02  0.18686962762E+02  0.34612450846E+02  0.00000000000E+00 0. -1.
        -12    1    6    6    0    0 -0.17173153455E+02 -0.12685711648E+01 -0.54893275315E+02  0.57530845181E+02  0.00000000000E+00 0.  1.
</event>
<event>
12    1  0.8526130E-002  0.3058233E+03  0.7818608E-02  0.1082399E+00
         21   -1    0    0  501  502  0.00000000000E+00  0.00000000000E+00  0.67582291694E+03  0.67582291694E+03  0.00000000000E+00 0. -1.
         21   -1    0    0  502  503 -0.00000000000E+00 -0.00000000000E+00 -0.28694041671E+04  0.28694041671E+04  0.00000000000E+00 0.  1.
         -6    2    1    2    0  503  0.15685412255E+03  0.19786165364E+03 -0.28261451078E+04  0.28426141367E+04  0.17206542377E+03 0.  0.
        -24    2    3    3    0    0  0.24912821990E+02  0.49204999530E+02 -0.12904857075E+04  0.12941377270E+04  0.79983214144E+02 0.  0.
          6    2    1    2  501    0 -0.15685412255E+03 -0.19786165364E+03  0.63256385759E+03  0.70261294739E+03  0.17255570165E+03 0.  0.
         24    2    5    5    0    0 -0.18278082976E+03 -0.18700206346E+03  0.60079741860E+03  0.65993600407E+03  0.78609082142E+02 0.  0.
          5    1    5    5  501    0  0.25926707211E+02 -0.10859590175E+02  0.31766438983E+02  0.42676943322E+02  0.47000000000E+01 0. -1.
        -11    1    6    6    0    0 -0.11343027020E+03 -0.11642174670E+03  0.27501957297E+03  0.31946238404E+03  0.00000000000E+00 0.  1.
         12    1    6    6    0    0 -0.69350559560E+02 -0.70580316765E+02  0.32577784563E+03  0.34047362002E+03  0.00000000000E+00 0. -1.
         -5    1    3    3    0  503  0.13194130056E+03  0.14865665411E+03 -0.15356594003E+04  0.15484764097E+04  0.47000000000E+01 0.  1.
         13    1    4    4    0    0 -0.13217741673E+02  0.56110536169E+02 -0.84887864913E+03  0.85083374517E+03  0.00000000000E+00 0. -1.
        -14    1    4    4    0    0  0.38130563663E+02 -0.69055366395E+01 -0.44160705838E+03  0.44330398186E+03  0.00000000000E+00 0.  1.
</event>
<event>
12    1  0.8526130E-002  0.2168867E+03  0.7818608E-02  0.1136695E+00
         21   -1    0    0  503  502  0.00000000000E+00  0.00000000000E+00  0.16558466026E+03  0.16558466026E+03  0.00000000000E+00 0. -1.
         21   -1    0    0  501  503 -0.00000000000E+00 -0.00000000000E+00 -0.28303933244E+03  0.28303933244E+03  0.00000000000E+00 0.  1.
          6    2    1    2  501    0  0.21233112631E+02 -0.12972031670E+03 -0.38776167251E+02  0.21790737155E+03  0.16941613204E+03 0.  0.
         24    2    3    3    0    0 -0.28662199417E+01 -0.34199542144E+02 -0.74653608376E+02  0.11295844596E+03  0.77515323456E+02 0.  0.
         -6    2    1    2    0  502 -0.21233112631E+02  0.12972031670E+03 -0.78678504920E+02  0.23071662115E+03  0.17251564133E+03 0.  0.
        -24    2    5    5    0    0 -0.59834659915E+02  0.11776166754E+03 -0.10048353859E+03  0.18455778412E+03  0.80725691595E+02 0.  0.
          5    1    3    3  501    0  0.24099332572E+02 -0.95520774552E+02  0.35877441125E+02  0.10494892559E+03  0.47000000000E+01 0. -1.
        -11    1    4    4    0    0 -0.23737009614E+02 -0.23564090172E+02 -0.81877312045E+02  0.88445498465E+02  0.00000000000E+00 0.  1.
         12    1    4    4    0    0  0.20870789672E+02 -0.10635451971E+02  0.72237036688E+01  0.24512947495E+02  0.00000000000E+00 0. -1.
         -5    1    5    5    0  502  0.38601547285E+02  0.11958649156E+02  0.21805033668E+02  0.46158837027E+02  0.47000000000E+01 0.  1.
         13    1    6    6    0    0 -0.15544897741E+02 -0.28978934693E+01  0.67256377108E+01  0.17183592027E+02  0.00000000000E+00 0. -1.
        -14    1    6    6    0    0 -0.44289762174E+02  0.12065956101E+03 -0.10720917630E+03  0.16737419209E+03  0.00000000000E+00 0.  1.
</event>
<event>
12    1  0.8526130E-002  0.2724993E+03  0.7818608E-02  0.1100193E+00
         21   -1    0    0  503  502  0.00000000000E+00  0.00000000000E+00  0.30373523393E+03  0.30373523393E+03  0.00000000000E+00 0.  1.
         21   -1    0    0  501  503 -0.00000000000E+00 -0.00000000000E+00 -0.30284577608E+03  0.30284577608E+03  0.00000000000E+00 0.  1.
          6    2    1    2  501    0 -0.12144727828E+03  0.17307785528E+03 -0.13508983209E+03  0.30414654464E+03  0.17190250868E+03 0.  0.
         24    2    3    3    0    0 -0.73168204250E+00  0.80059960022E+02 -0.22601124472E+02  0.11467257979E+03  0.78923109235E+02 0.  0.
         -6    2    1    2    0  502  0.12144727828E+03 -0.17307785528E+03  0.13597928994E+03  0.30243446538E+03  0.16813938613E+03 0.  0.
        -24    2    5    5    0    0  0.38518009852E+02 -0.54149768032E+02  0.34024066948E+02  0.12512651014E+03  0.10041499861E+03 0.  0.
          5    1    3    3  501    0 -0.12071559623E+03  0.93017895254E+02 -0.11248870762E+03  0.18947396484E+03  0.47000000000E+01 0. -1.
        -11    1    4    4    0    0 -0.31523735603E+02  0.74356916969E+02 -0.20282629473E+02  0.83271135851E+02  0.00000000000E+00 0.  1.
         12    1    4    4    0    0  0.30792053560E+02  0.57030430528E+01 -0.23184949987E+01  0.31401443941E+02  0.00000000000E+00 0. -1.
         -5    1    5    5    0  502  0.82929268425E+02 -0.11892808724E+03  0.10195522299E+03  0.17730795524E+03  0.47000000000E+01 0.  1.
         11    1    6    6    0    0  0.30988011147E+02 -0.54807615480E+02 -0.23428344412E+02  0.67179006179E+02  0.00000000000E+00 0. -1.
        -12    1    6    6    0    0  0.75299987051E+01  0.65784744775E+00  0.57452411360E+02  0.57947503957E+02  0.00000000000E+00 0.  1.
</event>
<event>
12    1  0.8526130E-002  0.1763731E+03  0.7818608E-02  0.1172049E+00
         21   -1    0    0  501  502  0.00000000000E+00  0.00000000000E+00  0.79312219768E+03  0.79312219768E+03  0.00000000000E+00 0.  1.
         21   -1    0    0  502  503 -0.00000000000E+00 -0.00000000000E+00 -0.69052087191E+02  0.69052087191E+02  0.00000000000E+00 0.  1.
         -6    2    1    2    0  503 -0.80675315700E+01  0.32453030716E+02  0.74230190764E+02  0.18882490016E+03  0.17037146895E+03 0.  0.
        -24    2    3    3    0    0  0.74974990349E+00  0.67896312504E+02  0.52850907107E-01  0.10600981443E+03  0.81410113530E+02 0.  0.
          6    2    1    2  501    0  0.80675315700E+01 -0.32453030716E+02  0.64983991972E+03  0.67334938471E+03  0.17317386742E+03 0.  0.
         24    2    5    5    0    0  0.65340760506E+02  0.37658858800E+01  0.45956631772E+03  0.47131432267E+03  0.81562206307E+02 0.  0.
          5    1    5    5  501    0 -0.57273228936E+02 -0.36218916596E+02  0.19027360201E+03  0.20203506204E+03  0.47000000000E+01 0. -1.
        -11    1    6    6    0    0  0.74445074802E+01  0.36826220000E+02  0.18411218157E+03  0.18790659003E+03  0.00000000000E+00 0.  1.
         12    1    6    6    0    0  0.57896253026E+02 -0.33060334120E+02  0.27545413614E+03  0.28340773265E+03  0.00000000000E+00 0. -1.
         -5    1    3    3    0  503 -0.88172814735E+01 -0.35443281788E+02  0.74177339857E+02  0.82815085732E+02  0.47000000000E+01 0.  1.
         13    1    4    4    0    0 -0.16515466595E+02  0.30788990005E+01  0.28553034416E+02  0.33128779486E+02  0.00000000000E+00 0. -1.
        -14    1    4    4    0    0  0.17265216498E+02  0.64817413503E+02 -0.28500183508E+02  0.72881034941E+02  0.00000000000E+00 0.  1.
</event>
<event>
12    1  0.8526130E-002  0.1933880E+03  0.7818608E-02  0.1155443E+00
         21   -1    0    0  501  502  0.00000000000E+00  0.00000000000E+00  0.40053300913E+02  0.40053300913E+02  0.00000000000E+00 0. -1.
         21   -1    0    0  502  503 -0.00000000000E+00 -0.00000000000E+00 -0.13242509510E+04  0.13242509510E+04  0.00000000000E+00 0. -1.
         -6    2    1    2    0  503 -0.35592376522E+02 -0.81869783013E+02 -0.10125527061E+04  0.10308527390E+04  0.17153690009E+03 0.  0.
        -24    2    3    3    0    0 -0.19070060221E+02 -0.71046623091E+00 -0.23172245227E+03  0.24562805967E+03  0.79206545484E+02 0.  0.
          6    2    1    2  501    0  0.35592376522E+02  0.81869783013E+02 -0.27164494396E+03  0.33345151296E+03  0.17155015966E+03 0.  0.
         24    2    5    5    0    0 -0.60474135720E+01  0.11464096701E+03 -0.18340649704E+03  0.23041784790E+03  0.79216910743E+02 0.  0.
          5    1    5    5  501    0  0.41639790094E+02 -0.32771183998E+02 -0.88238446924E+02  0.10303366506E+03  0.47000000000E+01 0. -1.
        -13    1    6    6    0    0 -0.39808134666E+02  0.55918672057E+02 -0.68120753958E+02  0.96705856028E+02  0.00000000000E+00 0.  1.
         14    1    6    6    0    0  0.33760721094E+02  0.58722294954E+02 -0.11528574308E+03  0.13371199187E+03  0.00000000000E+00 0. -1.
         -5    1    3    3    0  503 -0.16522316302E+02 -0.81159316782E+02 -0.78083025386E+03  0.78522467930E+03  0.47000000000E+01 0.  1.
         13    1    4    4    0    0 -0.70851908362E+01 -0.38884548412E+02 -0.14180641260E+03  0.14721163911E+03  0.00000000000E+00 0. -1.
        -14    1    4    4    0    0 -0.11984869385E+02  0.38174082181E+02 -0.89916039678E+02  0.98416420560E+02  0.00000000000E+00 0.  1.
</event>
<event>
12    1  0.8526130E-002  0.1961958E+03  0.7818608E-02  0.1153093E+00
         21   -1    0    0  503  502  0.00000000000E+00  0.00000000000E+00  0.40715436203E+02  0.40715436203E+02  0.00000000000E+00 0.  1.
         21   -1    0    0  501  503 -0.00000000000E+00 -0.00000000000E+00 -0.94378817227E+03  0.94378817227E+03  0.00000000000E+00 0.  1.
          6    2    1    2  501    0 -0.86557077752E+02 -0.34923127738E+02 -0.46431085060E+03  0.50387404236E+03  0.17202538191E+03 0.  0.
         24    2    3    3    0    0 -0.10887899820E+03 -0.13626112009E+02 -0.22829751197E+03  0.26580636916E+03  0.80578934837E+02 0.  0.
         -6    2    1    2    0  502  0.86557077752E+02  0.34923127738E+02 -0.43876188547E+03  0.48062956611E+03  0.17257182598E+03 0.  0.
        -24    2    5    5    0    0 -0.15939208846E+01 -0.24296931454E+01 -0.28259225640E+03  0.29738962824E+03  0.92594619788E+02 0.  0.
          5    1    3    3  501    0  0.22321920443E+02 -0.21297015728E+02 -0.23601333863E+03  0.23806767320E+03  0.47000000000E+01 0. -1.
        -11    1    4    4    0    0 -0.24572059978E+02 -0.24024356788E+02 -0.13640123019E+03  0.14066361096E+03  0.00000000000E+00 0.  1.
         12    1    4    4    0    0 -0.84306938217E+02  0.10398244778E+02 -0.91896281780E+02  0.12514275820E+03  0.00000000000E+00 0. -1.
         -5    1    5    5    0  502  0.88150998637E+02  0.37352820883E+02 -0.15616962906E+03  0.18323993787E+03  0.47000000000E+01 0.  1.
         13    1    6    6    0    0  0.20519175241E+02 -0.39143124496E+02 -0.19406045612E+03  0.19902934803E+03  0.00000000000E+00 0. -1.
        -14    1    6    6    0    0 -0.22113096126E+02  0.36713431350E+02 -0.88531800287E+02  0.98360280215E+02  0.00000000000E+00 0.  1.
</event>
<event>
12    1  0.8526130E-002  0.1806687E+03  0.7818608E-02  0.1168121E+00
         21   -1    0    0  503  502  0.00000000000E+00  0.00000000000E+00  0.38096720402E+02  0.38096720402E+02  0.00000000000E+00 0. -1.
         21   -1    0    0  501  503 -0.00000000000E+00 -0.00000000000E+00 -0.16618393993E+04  0.16618393993E+04  0.00000000000E+00 0. -1.
          6    2    1    2  501    0  0.21319648093E+02  0.31204457164E+02 -0.14147820209E+04  0.14262711290E+04  0.17667179016E+03 0.  0.
         24    2    3    3    0    0  0.78398471902E+02 -0.12983674487E+01 -0.75017692456E+03  0.75841152571E+03  0.79212486563E+02 0.  0.
         -6    2    1    2    0  502 -0.21319648093E+02 -0.31204457164E+02 -0.20896065804E+03  0.27366499067E+03  0.17262596840E+03 0.  0.
        -24    2    5    5    0    0  0.31472167133E+02  0.19219489834E+02 -0.56222840068E+02  0.10431186485E+03  0.79750055230E+02 0.  0.
          5    1    3    3  501    0 -0.57078823810E+02  0.32502824612E+02 -0.66460509630E+03  0.66785960333E+03  0.47000000000E+01 0. -1.
        -13    1    4    4    0    0  0.55702012022E+02  0.20897133215E+02 -0.66247467745E+03  0.66514066375E+03  0.00000000000E+00 0.  1.
         14    1    4    4    0    0  0.22696459881E+02 -0.22195500664E+02 -0.87702247118E+02  0.93270861958E+02  0.00000000000E+00 0. -1.
         -5    1    5    5    0  502 -0.52791815226E+02 -0.50423946998E+02 -0.15273781797E+03  0.16935312582E+03  0.47000000000E+01 0.  1.
         13    1    6    6    0    0  0.41053099413E+02  0.37225076249E+02 -0.61957360745E+02  0.83125073375E+02  0.00000000000E+00 0. -1.
        -14    1    6    6    0    0 -0.95809322801E+01 -0.18005586415E+02  0.57345206767E+01  0.21186791472E+02  0.00000000000E+00 0.  1.
</event>
<event>
12    1  0.8526130E-002  0.1903263E+03  0.7818608E-02  0.1158447E+00
         21   -1    0    0  503  502  0.00000000000E+00  0.00000000000E+00  0.33420206639E+03  0.33420206639E+03  0.00000000000E+00 0.  1.
         21   -1    0    0  501  503 -0.00000000000E+00 -0.00000000000E+00 -0.25509727787E+03  0.25509727787E+03  0.00000000000E+00 0.  1.
          6    2    1    2  501    0 -0.50525047032E+02  0.63150798453E+02 -0.18437796167E+03  0.26498932587E+03  0.17228843940E+03 0.  0.
         24    2    3    3    0    0 -0.34079371170E+01  0.71281049039E+02 -0.18644903116E+03  0.21690084128E+03  0.84794644520E+02 0.  0.
         -6    2    1    2    0  502  0.50525047032E+02 -0.63150798453E+02  0.26348275018E+03  0.32431001839E+03  0.17091818118E+03 0.  0.
        -24    2    5    5    0    0 -0.16488611367E+02  0.18378632851E+02  0.11134887242E+03  0.13909477781E+03  0.79618699896E+02 0.  0.
          5    1    3    3  501    0 -0.47117109915E+02 -0.81302505860E+01  0.20710694916E+01  0.48088484591E+02  0.47000000000E+01 0. -1.
        -11    1    4    4    0    0 -0.20871944246E+02  0.84352696426E+02 -0.12984994932E+03  0.15624347919E+03  0.00000000000E+00 0.  1.
         12    1    4    4    0    0  0.17464007129E+02 -0.13071647386E+02 -0.56599081844E+02  0.60657362092E+02  0.00000000000E+00 0. -1.
         -5    1    5    5    0  502  0.67013658399E+02 -0.81529431304E+02  0.15213387776E+03  0.18521524058E+03  0.47000000000E+01 0.  1.
         13    1    6    6    0    0  0.62179615453E+01  0.10671979503E+02  0.11427283940E+03  0.11493840097E+03  0.00000000000E+00 0. -1.
        -14    1    6    6    0    0 -0.22706572912E+02  0.77066533482E+01 -0.29239669757E+01  0.24156376841E+02  0.00000000000E+00 0.  1.
</event>
<event>
12    1  0.8526130E-002  0.1758232E+03  0.7818608E-02  0.1171976E+00
         21   -1    0    0  501  502  0.00000000000E+00  0.00000000000E+00  0.81575252140E+03  0.81575252140E+03  0.00000000000E+00 0.  1.
         21   -1    0    0  502  503 -0.00000000000E+00 -0.00000000000E+00 -0.69368592248E+02  0.69368592248E+02  0.00000000000E+00 0.  1.
         -6    2    1    2    0  503  0.31393889275E+02  0.10781360198E+02  0.74657140578E+02  0.19076481080E+03  0.17238245384E+03 0.  0.
        -24    2    3    3    0    0  0.48959290705E+02  0.50617559247E+02 -0.66506625029E+00  0.10363851785E+03  0.76035193293E+02 0.  0.
          6    2    1    2  501    0 -0.31393889275E+02 -0.10781360198E+02  0.67172678857E+03  0.69435630284E+03  0.17266146877E+03 0.  0.
         24    2    5    5    0    0 -0.81680294730E+02 -0.38579776946E+02  0.47423401337E+03  0.48862113131E+03  0.75449591062E+02 0.  0.
          5    1    5    5  501    0  0.50286405455E+02  0.27798416748E+02  0.19749277521E+03  0.20573517154E+03  0.47000000000E+01 0. -1.
        -13    1    6    6    0    0 -0.11008857852E+02  0.21678217710E+02  0.11807252419E+03  0.12054982805E+03  0.00000000000E+00 0.  1.
         14    1    6    6    0    0 -0.70671436877E+02 -0.60257994655E+02  0.35616148917E+03  0.36807130326E+03  0.00000000000E+00 0. -1.
         -5    1    3    3    0  503 -0.17565401431E+02 -0.39836199049E+02  0.75322206828E+02  0.87126292952E+02  0.47000000000E+01 0.  1.
         11    1    4    4    0    0  0.19575145393E+02  0.43199633216E+02  0.33426849065E+02  0.58023692278E+02  0.00000000000E+00 0. -1.
        -12    1    4    4    0    0  0.29384145312E+02  0.74179260303E+01 -0.34091915315E+02  0.45614825575E+02  0.00000000000E+00 0.  1.
</event>
<event>
12    1  0.8526130E-002  0.2249805E+03  0.7818608E-02  0.1130318E+00
         21   -1    0    0  501  502  0.00000000000E+00  0.00000000000E+00  0.52039530409E+02  0.52039530409E+02  0.00000000000E+00 0.  1.
         21   -1    0    0  502  503 -0.00000000000E+00 -0.00000000000E+00 -0.11796537808E+04  0.11796537808E+04  0.00000000000E+00 0. -1.
         -6    2    1    2    0  503  0.13783615181E+03  0.34382080049E+02 -0.82373506882E+03  0.85390612604E+03  0.17445709014E+03 0.  0.
        -24    2    3    3    0    0  0.86557408151E+02  0.58160286739E+02 -0.74470443989E+03  0.75662898086E+03  0.83832619097E+02 0.  0.
          6    2    1    2  501    0 -0.13783615181E+03 -0.34382080049E+02 -0.30387918162E+03  0.37778718522E+03  0.17378051710E+03 0.  0.
         24    2    5    5    0    0 -0.88222000374E+02  0.10991860964E+02 -0.79563423696E+02  0.14356505177E+03  0.79853887461E+02 0.  0.
          5    1    5    5  501    0 -0.49614151434E+02 -0.45373941013E+02 -0.22431575792E+03  0.23422213345E+03  0.47000000000E+01 0. -1.
        -11    1    6    6    0    0 -0.19474422542E+02  0.23708776702E+02 -0.65388177965E+02  0.72228616515E+02  0.00000000000E+00 0.  1.
         12    1    6    6    0    0 -0.68747577832E+02 -0.12716915738E+02 -0.14175245731E+02  0.71336435257E+02  0.00000000000E+00 0. -1.
         -5    1    3    3    0  503  0.51278743657E+02 -0.23778206690E+02 -0.79030628934E+02  0.97277145179E+02  0.47000000000E+01 0.  1.
         13    1    4    4    0    0 -0.14623586064E+02  0.15241895820E+02 -0.18769763801E+03  0.18888241838E+03  0.00000000000E+00 0. -1.
        -14    1    4    4    0    0  0.10118099421E+03  0.42918390919E+02 -0.55700680188E+03  0.56774656248E+03  0.00000000000E+00 0.  1.
</event>
<event>
12    1  0.8526130E-002  0.1820155E+03  0.7818608E-02  0.1166133E+00
         21   -1    0    0  503  502  0.00000000000E+00  0.00000000000E+00  0.96157192730E+02  0.96157192730E+02  0.00000000000E+00 0.  1.
         21   -1    0    0  501  503 -0.00000000000E+00 -0.00000000000E+00 -0.87517916588E+03  0.87517916588E+03  0.00000000000E+00 0.  1.
          6    2    1    2  501    0  0.49989564606E+02 -0.30570685632E+02 -0.76796653658E+03  0.78898545601E+03  0.17114883902E+03 0.  0.
         24    2    3    3    0    0  0.84079314200E+02 -0.64018165537E+02 -0.56097829243E+03  0.57650706145E+03  0.80598329541E+02 0.  0.
         -6    2    1    2    0  502 -0.49989564606E+02  0.30570685632E+02 -0.11055436569E+02  0.18235090260E+03  0.17232558026E+03 0.  0.
        -24    2    5    5    0    0  0.43023391074E+01  0.14593564935E+02  0.52847727520E+02  0.96860648330E+02  0.79734689010E+02 0.  0.
          5    1    3    3  501    0 -0.34089749594E+02  0.33447479905E+02 -0.20698824415E+03  0.21247839456E+03  0.47000000000E+01 0. -1.
        -11    1    4    4    0    0 -0.67827395712E+01 -0.15913898170E+02 -0.21186893829E+03  0.21257399823E+03  0.00000000000E+00 0.  1.
         12    1    4    4    0    0  0.90862053771E+02 -0.48104267367E+02 -0.34910935414E+03  0.36393306321E+03  0.00000000000E+00 0. -1.
         -5    1    5    5    0  502 -0.54291903713E+02  0.15977120697E+02 -0.63903164089E+02  0.85490254270E+02  0.47000000000E+01 0.  1.
         13    1    6    6    0    0 -0.26133117078E+01 -0.32314244486E+02  0.30231598209E+02  0.44328200111E+02  0.00000000000E+00 0. -1.
        -14    1    6    6    0    0  0.69156508152E+01  0.46907809421E+02  0.22616129311E+02  0.52532448219E+02  0.00000000000E+00 0.  1.
</event>
<event>
12    1  0.8526130E-002  0.1731673E+03  0.7818608E-02  0.1175273E+00
         21   -1    0    0  501  502  0.00000000000E+00  0.00000000000E+00  0.94892746045E+02  0.94892746045E+02  0.00000000000E+00 0.  1.
         21   -1    0    0  502  503 -0.00000000000E+00 -0.00000000000E+00 -0.31510017536E+03  0.31510017536E+03  0.00000000000E+00 0.  1.
         -6    2    1    2    0  503  0.51914970260E+01 -0.10889119957E+02 -0.87952726549E+02  0.19422307477E+03  0.17274662396E+03 0.  0.
        -24    2    3    3    0    0  0.18865274814E+02 -0.70905169515E+02 -0.38525357438E+02  0.11514050260E+03  0.79935539752E+02 0.  0.
          6    2    1    2  501    0 -0.51914970260E+01  0.10889119957E+02 -0.13225470276E+03  0.21576984663E+03  0.17005821279E+03 0.  0.
         24    2    5    5    0    0 -0.35892762392E+02 -0.70053684835E+00 -0.15322083663E+03  0.17654540770E+03  0.80017967110E+02 0.  0.
          5    1    5    5  501    0  0.30701265366E+02  0.11589656805E+02  0.20966133867E+02  0.39224438928E+02  0.47000000000E+01 0. -1.
        -11    1    6    6    0    0 -0.37362699775E+02  0.13781389622E+02 -0.23976813680E+02  0.46484251404E+02  0.00000000000E+00 0.  1.
         12    1    6    6    0    0  0.14699373834E+01 -0.14481926470E+02 -0.12924402295E+03  0.13006115630E+03  0.00000000000E+00 0. -1.
         -5    1    3    3    0  503 -0.13673777788E+02  0.60016049557E+02 -0.49427369111E+02  0.79082572168E+02  0.47000000000E+01 0.  1.
         11    1    4    4    0    0 -0.21896065569E+02 -0.10025972397E+01 -0.24744631605E+02  0.33056613285E+02  0.00000000000E+00 0. -1.
        -12    1    4    4    0    0  0.40761340383E+02 -0.69902572275E+02 -0.13780725833E+02  0.82083889314E+02  0.00000000000E+00 0.  1.
</event>
<event>
12    1  0.8526130E-002  0.2116805E+03  0.7818608E-02  0.1140482E+00
         21   -1    0    0  501  502  0.00000000000E+00  0.00000000000E+00  0.18689647920E+03  0.18689647920E+03  0.00000000000E+00 0.  1.
         21   -1    0    0  502  503 -0.00000000000E+00 -0.00000000000E+00 -0.29906347117E+03  0.29906347117E+03  0.00000000000E+00 0. -1.
         -6    2    1    2    0  503 -0.11492533747E+03  0.40291814854E+02 -0.16567228101E+03  0.26880465773E+03  0.17313975796E+03 0.  0.
        -24    2    3    3    0    0 -0.12297421178E+03 -0.20581826343E+02 -0.10256407492E+03  0.18062801544E+03  0.80998902202E+02 0.  0.
          6    2    1    2  501    0  0.11492533747E+03 -0.40291814854E+02  0.53505289035E+02  0.21715529265E+03  0.17164597763E+03 0.  0.
         24    2    5    5    0    0  0.83118650301E+02 -0.66338018655E+02  0.90842317759E+02  0.16142187543E+03  0.80593128895E+02 0.  0.
          5    1    5    5  501    0  0.31806687167E+02  0.26046203801E+02 -0.37337028725E+02  0.55733417220E+02  0.47000000000E+01 0. -1.
        -13    1    6    6    0    0  0.84963517718E+02 -0.52115893461E+02  0.10247604515E+03  0.14295525707E+03  0.00000000000E+00 0.  1.
         14    1    6    6    0    0 -0.18448674173E+01 -0.14222125194E+02 -0.11633727389E+02  0.18466618363E+02  0.00000000000E+00 0. -1.
         -5    1    3    3    0  503  0.80488743099E+01  0.60873641197E+02 -0.63108206083E+02  0.88176642289E+02  0.47000000000E+01 0.  1.
         11    1    4    4    0    0 -0.28949054009E+02 -0.33823517989E+02 -0.64403814703E+02  0.78293865951E+02  0.00000000000E+00 0. -1.
        -12    1    4    4    0    0 -0.94025157769E+02  0.13241691646E+02 -0.38160260220E+02  0.10233414949E+03  0.00000000000E+00 0.  1.
</event>
<event>
12    1  0.8526130E-002  0.3111711E+03  0.7818608E-02  0.1080232E+00
         21   -1    0    0  501  502  0.00000000000E+00  0.00000000000E+00  0.79213883097E+03  0.79213883097E+03  0.00000000000E+00 0. -1.
         21   -1    0    0  502  503 -0.00000000000E+00 -0.00000000000E+00 -0.16615351875E+03  0.16615351875E+03  0.00000000000E+00 0.  1.
         -6    2    1    2    0  503 -0.24447543878E+03  0.73494790868E+02  0.61241214233E+02  0.31349521702E+03  0.17134479952E+03 0.  0.
        -24    2    3    3    0    0 -0.53654582885E+02  0.61100677736E+02  0.42153931829E+02  0.12126455496E+03  0.79473462475E+02 0.  0.
          6    2    1    2  501    0  0.24447543878E+03 -0.73494790868E+02  0.56474409799E+03  0.64479713269E+03  0.17792616914E+03 0.  0.
         24    2    5    5    0    0  0.12541626411E+03 -0.38414523189E+01  0.41004428665E+03  0.43747902863E+03  0.86646335285E+02 0.  0.
          5    1    5    5  501    0  0.11905917467E+03 -0.69653338549E+02  0.15469981135E+03  0.20731810407E+03  0.47000000000E+01 0. -1.
        -13    1    6    6    0    0  0.23212252025E+02  0.34486856187E+02  0.14489941917E+03  0.15074479616E+03  0.00000000000E+00 0.  1.
         14    1    6    6    0    0  0.10220401208E+03 -0.38328308506E+02  0.26514486748E+03  0.28673423247E+03  0.00000000000E+00 0. -1.
         -5    1    3    3    0  503 -0.19082085589E+03  0.12394113132E+02  0.19087282404E+02  0.19223066206E+03  0.47000000000E+01 0.  1.
         11    1    4    4    0    0 -0.67653260066E+02  0.57072432335E+02  0.14063010408E+02  0.89621394722E+02  0.00000000000E+00 0. -1.
        -12    1    4    4    0    0  0.13998677181E+02  0.40282454009E+01  0.28090921421E+02  0.31643160242E+02  0.00000000000E+00 0.  1.
</event>
<event>
12    1  0.8526130E-002  0.3544181E+03  0.7818608E-02  0.1060864E+00
         21   -1    0    0  503  502  0.00000000000E+00  0.00000000000E+00  0.77074514711E+03  0.77074514711E+03  0.00000000000E+00 0.  1.
         21   -1    0    0  501  503 -0.00000000000E+00 -0.00000000000E+00 -0.17036153481E+03  0.17036153481E+03  0.00000000000E+00 0. -1.
          6    2    1    2  501    0 -0.12217150710E+03  0.28437450229E+03  0.20058752192E+03  0.40683228611E+03  0.17170445648E+03 0.  0.
         24    2    3    3    0    0 -0.40584905355E+01  0.17447128387E+03  0.11879169894E+03  0.22588464519E+03  0.80347401645E+02 0.  0.
         -6    2    1    2    0  502  0.12217150710E+03 -0.28437450229E+03  0.39979609038E+03  0.53427439581E+03  0.17267739124E+03 0.  0.
        -24    2    5    5    0    0  0.86615166664E+02 -0.77545093968E+02  0.19976526521E+03  0.24431391832E+03  0.79168812083E+02 0.  0.
          5    1    3    3  501    0 -0.11811301657E+03  0.10990321841E+03  0.81795822979E+02  0.18094764093E+03  0.47000000000E+01 0. -1.
        -11    1    4    4    0    0  0.14700674098E+02  0.95838633565E+02  0.10665323398E+03  0.14413905030E+03  0.00000000000E+00 0.  1.
         12    1    4    4    0    0 -0.18759164633E+02  0.78632650308E+02  0.12138464967E+02  0.81745594890E+02  0.00000000000E+00 0. -1.
         -5    1    5    5    0  502  0.35556340438E+02 -0.20682940832E+03  0.20003082517E+03  0.28996047749E+03  0.47000000000E+01 0.  1.
         13    1    6    6    0    0  0.52266238523E+02 -0.44905023980E+02  0.44615980158E+02  0.82090234215E+02  0.00000000000E+00 0. -1.
        -14    1    6    6    0    0  0.34348928141E+02 -0.32640069988E+02  0.15514928505E+03  0.16222368410E+03  0.00000000000E+00 0.  1.
</event>
<event>
12    1  0.8526130E-002  0.1993013E+03  0.7818608E-02  0.1151624E+00
         21   -1    0    0  503  502  0.00000000000E+00  0.00000000000E+00  0.97599314708E+02  0.97599314708E+02  0.00000000000E+00 0. -1.
         21   -1    0    0  501  503 -0.00000000000E+00 -0.00000000000E+00 -0.39480218422E+03  0.39480218422E+03  0.00000000000E+00 0. -1.
          6    2    1    2  501    0 -0.71030484260E+02  0.70686980027E+02 -0.15030712014E+03  0.24962622749E+03  0.17227606987E+03 0.  0.
         24    2    3    3    0    0 -0.94644759846E+02  0.17797058958E+02 -0.14337134334E+03  0.19110125195E+03  0.81792301186E+02 0.  0.
         -6    2    1    2    0  502  0.71030484260E+02 -0.70686980027E+02 -0.14689574938E+03  0.24277527144E+03  0.16528609257E+03 0.  0.
        -24    2    5    5    0    0  0.69941502046E+02  0.89889453627E+01 -0.47483266132E+02  0.11528264109E+03  0.77864060558E+02 0.  0.
          5    1    3    3  501    0  0.23614275586E+02  0.52889921069E+02 -0.69357768001E+01  0.58524975540E+02  0.47000000000E+01 0. -1.
        -11    1    4    4    0    0 -0.87099651872E+00  0.22162304850E+01  0.10208602454E+02  0.10482646449E+02  0.00000000000E+00 0.  1.
         12    1    4    4    0    0 -0.93773763327E+02  0.15580828473E+02 -0.15357994579E+03  0.18061860550E+03  0.00000000000E+00 0. -1.
         -5    1    5    5    0  502  0.10889822137E+01 -0.79675925390E+02 -0.99412483245E+02  0.12749263035E+03  0.47000000000E+01 0.  1.
         13    1    6    6    0    0  0.50148629977E+02 -0.32024616423E+02 -0.26187330315E+02  0.65009517877E+02  0.00000000000E+00 0. -1.
        -14    1    6    6    0    0  0.19792872069E+02  0.41013561785E+02 -0.21295935817E+02  0.50273123211E+02  0.00000000000E+00 0.  1.
</event>
<event>
12    1  0.8526130E-002  0.1740063E+03  0.7818608E-02  0.1174167E+00
         21   -1    0    0  503  502  0.00000000000E+00  0.00000000000E+00  0.26835473041E+03  0.26835473041E+03  0.00000000000E+00 0. -1.
         21   -1    0    0  501  503 -0.00000000000E+00 -0.00000000000E+00 -0.11516834524E+03  0.11516834524E+03  0.00000000000E+00 0. -1.
          6    2    1    2  501    0 -0.54780633546E+01 -0.26325866131E+02  0.43068158269E+02  0.17760025162E+03  0.17018790414E+03 0.  0.
         24    2    3    3    0    0 -0.30909847884E+02 -0.65169270098E+02  0.67785563538E+02  0.12479281068E+03  0.75999411254E+02 0.  0.
         -6    2    1    2    0  502  0.54780633546E+01  0.26325866131E+02  0.11011822691E+03  0.20592282402E+03  0.17191604100E+03 0.  0.
        -24    2    5    5    0    0 -0.30529012562E+02  0.51211024341E+02  0.12506064093E+03  0.15943469272E+03  0.78896563376E+02 0.  0.
          5    1    3    3  501    0  0.25431784530E+02  0.38843403967E+02 -0.24717405269E+02  0.52807440947E+02  0.47000000000E+01 0. -1.
        -13    1    4    4    0    0 -0.86217848839E+01 -0.89533026424E+01  0.62907054892E+02  0.64123274698E+02  0.00000000000E+00 0.  1.
         14    1    4    4    0    0 -0.22288063000E+02 -0.56215967456E+02  0.48785086466E+01  0.60669535979E+02  0.00000000000E+00 0. -1.
         -5    1    5    5    0  502  0.36007075916E+02 -0.24885158210E+02 -0.14942414022E+02  0.46488131302E+02  0.47000000000E+01 0.  1.
         13    1    6    6    0    0  0.14387498688E+02  0.51405284092E+02  0.76531141452E+02  0.93308729297E+02  0.00000000000E+00 0. -1.
        -14    1    6    6    0    0 -0.44916511249E+02 -0.19425975102E+00  0.48529499475E+02  0.66125963426E+02  0.00000000000E+00 0.  1.
</event>
<event>
12    1  0.8526130E-002  0.1845898E+03  0.7818608E-02  0.1163503E+00
         21   -1    0    0  501  502  0.00000000000E+00  0.00000000000E+00  0.12600482502E+04  0.12600482502E+04  0.00000000000E+00 0. -1.
         21   -1    0    0  502  503 -0.00000000000E+00 -0.00000000000E+00 -0.53389635132E+02  0.53389635132E+02  0.00000000000E+00 0.  1.
         -6    2    1    2    0  503 -0.63598145270E+02 -0.16407866409E+02  0.14135441394E+03  0.23225961487E+03  0.17219034874E+03 0.  0.
        -24    2    3    3    0    0 -0.11028921870E+03 -0.12701635337E+02  0.11250612855E+03  0.17704995941E+03  0.79774782127E+02 0.  0.
          6    2    1    2  501    0  0.63598145270E+02  0.16407866409E+02  0.10653042011E+04  0.10811782704E+04  0.17250933135E+03 0.  0.
         24    2    5    5    0    0 -0.21389878229E+02  0.41659861656E+02  0.42220125664E+03  0.43197559439E+03  0.78459811855E+02 0.  0.
          5    1    5    5  501    0  0.84988023499E+02 -0.25251995246E+02  0.64310294445E+03  0.64920267603E+03  0.47000000000E+01 0. -1.
        -13    1    6    6    0    0 -0.13718847760E+02 -0.65211223977E+00  0.87296319738E+01  0.16273859672E+02  0.00000000000E+00 0.  1.
         14    1    6    6    0    0 -0.76710304694E+01  0.42311973895E+02  0.41347162466E+03  0.41570173471E+03  0.00000000000E+00 0. -1.
         -5    1    3    3    0  503  0.46691073431E+02 -0.37062310724E+01  0.28848285392E+02  0.55209655468E+02  0.47000000000E+01 0.  1.
         13    1    4    4    0    0  0.33682185646E+00 -0.18882418033E+02  0.41110384808E+02  0.45240721687E+02  0.00000000000E+00 0. -1.
        -14    1    4    4    0    0 -0.11062604056E+03  0.61807826957E+01  0.71395743738E+02  0.13180923772E+03  0.00000000000E+00 0.  1.
</event>
<event>
12    1  0.8526130E-002  0.1881095E+03  0.7818608E-02  0.1160327E+00
         21   -1    0    0  503  502  0.00000000000E+00  0.00000000000E+00  0.22594956879E+03  0.22594956879E+03  0.00000000000E+00 0.  1.
         21   -1    0    0  501  503 -0.00000000000E+00 -0.00000000000E+00 -0.24539574593E+03  0.24539574593E+03  0.00000000000E+00 0. -1.
          6    2    1    2  501    0 -0.13985780790E+02 -0.72945006496E+02 -0.15190617706E+03  0.24127829487E+03  0.17211377896E+03 0.  0.
         24    2    3    3    0    0  0.33034190671E+02  0.13723696295E+02 -0.49022072397E+02  0.98696491150E+02  0.77834672158E+02 0.  0.
         -6    2    1    2    0  502  0.13985780790E+02  0.72945006496E+02  0.13245999993E+03  0.23006701985E+03  0.17282536274E+03 0.  0.
        -24    2    5    5    0    0 -0.10161216462E+02  0.15817514143E+02  0.14364351925E+03  0.16687058828E+03  0.82818406977E+02 0.  0.
          5    1    3    3  501    0 -0.47019971461E+02 -0.86668702792E+02 -0.10288410466E+03  0.14258180372E+03  0.47000000000E+01 0. -1.
        -13    1    4    4    0    0  0.17117599727E+02  0.27868364503E+02  0.11397387015E+02  0.34634641492E+02  0.00000000000E+00 0.  1.
         14    1    4    4    0    0  0.15916590944E+02 -0.14144668208E+02 -0.60419459412E+02  0.64061849658E+02  0.00000000000E+00 0. -1.
         -5    1    5    5    0  502  0.24146997252E+02  0.57127492353E+02 -0.11183519330E+02  0.63196431572E+02  0.47000000000E+01 0.  1.
         13    1    6    6    0    0  0.25214497310E+02 -0.20852491152E+02  0.42682355587E+02  0.53780858494E+02  0.00000000000E+00 0. -1.
        -14    1    6    6    0    0 -0.35375713772E+02  0.36670005295E+02  0.10096116367E+03  0.11308972978E+03  0.00000000000E+00 0.  1.
</event>
<event>
12    1  0.8526130E-002  0.2037798E+03  0.7818608E-02  0.1148795E+00
         21   -1    0    0  501  502  0.00000000000E+00  0.00000000000E+00  0.21370425517E+03  0.21370425517E+03  0.00000000000E+00 0.  1.
         21   -1    0    0  502  503 -0.00000000000E+00 -0.00000000000E+00 -0.19172674649E+03  0.19172674649E+03  0.00000000000E+00 0.  1.
         -6    2    1    2    0  503 -0.73910438515E+02  0.46332343205E+02 -0.28064185013E+02  0.20570315348E+03  0.18416500732E+03 0.  0.
        -24    2    3    3    0    0  0.32525336199E+02  0.48358353285E+02 -0.20775381639E+01  0.96021456419E+02  0.76284835326E+02 0.  0.
          6    2    1    2  501    0  0.73910438515E+02 -0.46332343205E+02  0.50041693700E+02  0.19972784818E+03  0.17256188247E+03 0.  0.
         24    2    5    5    0    0  0.66065299735E+02 -0.68647222757E+02 -0.19723894954E+02  0.12591167508E+03  0.79922793164E+02 0.  0.
          5    1    5    5  501    0  0.78451387794E+01  0.22314879551E+02  0.69765588654E+02  0.73816173106E+02  0.47000000000E+01 0. -1.
        -11    1    6    6    0    0  0.80221438815E+02 -0.56864987416E+02  0.80078906864E+00  0.98334873277E+02  0.00000000000E+00 0.  1.
         12    1    6    6    0    0 -0.14156139080E+02 -0.11782235341E+02 -0.20524684022E+02  0.27576801799E+02  0.00000000000E+00 0. -1.
         -5    1    3    3    0  503 -0.10643577471E+03 -0.20260100799E+01 -0.25986646849E+02  0.10968169706E+03  0.47000000000E+01 0.  1.
         11    1    4    4    0    0  0.33316946475E+02  0.13851656165E+02  0.31478215605E+02  0.47882829476E+02  0.00000000000E+00 0. -1.
        -12    1    4    4    0    0 -0.79161027611E+00  0.34506697120E+02 -0.33555753769E+02  0.48138626943E+02  0.00000000000E+00 0.  1.
</event>
<event>
12    1  0.8526130E-002  0.2095786E+03  0.7818608E-02  0.1144182E+00
         21   -1    0    0  503  502  0.00000000000E+00  0.00000000000E+00  0.11334146783E+03  0.11334146783E+03  0.00000000000E+00 0.  1.
         21   -1    0    0  501  503 -0.00000000000E+00 -0.00000000000E+00 -0.41145577500E+03  0.41145577500E+03  0.00000000000E+00 0.  1.
          6    2    1    2  501    0 -0.17090004645E+02 -0.97377452996E+02 -0.23148174440E+03  0.30488116032E+03  0.17202990238E+03 0.  0.
         24    2    3    3    0    0 -0.20591220225E+02  0.56109588922E+01 -0.57469785065E+02  0.10259145844E+03  0.82260257346E+02 0.  0.
         -6    2    1    2    0  502  0.17090004645E+02  0.97377452996E+02 -0.66632562766E+02  0.21991608252E+03  0.18479379946E+03 0.  0.
        -24    2    5    5    0    0  0.56967966643E+02  0.12493979071E+03 -0.37769106693E+02  0.16330227316E+03  0.79911366354E+02 0.  0.
          5    1    3    3  501    0  0.35012155801E+01 -0.10298841189E+03 -0.17401195934E+03  0.20228970188E+03  0.47000000000E+01 0. -1.
        -11    1    4    4    0    0  0.28220665873E+02  0.10509331551E+02 -0.40943727853E+02  0.50825592790E+02  0.00000000000E+00 0.  1.
         12    1    4    4    0    0 -0.48811886098E+02 -0.48983726592E+01 -0.16526057212E+02  0.51765865647E+02  0.00000000000E+00 0. -1.
         -5    1    5    5    0  502 -0.39877961998E+02 -0.27562337716E+02 -0.28863456072E+02  0.56613809357E+02  0.47000000000E+01 0.  1.
         11    1    6    6    0    0  0.48275870958E+02  0.55623893480E+02  0.15728301436E+02  0.75312394124E+02  0.00000000000E+00 0. -1.
        -12    1    6    6    0    0  0.86920956853E+01  0.69315897232E+02 -0.53497408129E+02  0.87989879037E+02  0.00000000000E+00 0.  1.
</event>
<event>
12    1  0.8526130E-002  0.2287161E+03  0.7818608E-02  0.1128017E+00
         21   -1    0    0  503  502  0.00000000000E+00  0.00000000000E+00  0.13726959870E+03  0.13726959870E+03  0.00000000000E+00 0.  1.
         21   -1    0    0  501  503 -0.00000000000E+00 -0.00000000000E+00 -0.53042068433E+03  0.53042068433E+03  0.00000000000E+00 0. -1.
          6    2    1    2  501    0 -0.13200858007E+03 -0.61024244415E+02 -0.37710340110E+03  0.44104197031E+03  0.17652427830E+03 0.  0.
         24    2    3    3    0    0 -0.13815271435E+03  0.54388754839E+01 -0.23687166635E+03  0.28566460347E+03  0.79876939780E+02 0.  0.
         -6    2    1    2    0  502  0.13200858007E+03  0.61024244415E+02 -0.16047684528E+02  0.22664831273E+03  0.17309449981E+03 0.  0.
        -24    2    5    5    0    0  0.15109226384E+02 -0.14951737374E+02 -0.24957017101E+02  0.86865356300E+02  0.80441868763E+02 0.  0.
          5    1    3    3  501    0  0.61441342801E+01 -0.66463119899E+02 -0.14023173475E+03  0.15537736684E+03  0.47000000000E+01 0. -1.
        -11    1    4    4    0    0 -0.51083731032E+02 -0.29717438322E+02 -0.53812667333E+02  0.79927948066E+02  0.00000000000E+00 0.  1.
         12    1    4    4    0    0 -0.87068983317E+02  0.35156313806E+02 -0.18305899901E+03  0.20573665540E+03  0.00000000000E+00 0. -1.
         -5    1    5    5    0  502  0.11689935369E+03  0.75975981789E+02  0.89093325732E+01  0.13978295643E+03  0.47000000000E+01 0.  1.
         13    1    6    6    0    0  0.87013530640E+01  0.33041986402E+02 -0.15549610744E+02  0.37540335705E+02  0.00000000000E+00 0. -1.
        -14    1    6    6    0    0  0.64078733198E+01 -0.47993723776E+02 -0.94074063568E+01  0.49325020595E+02  0.00000000000E+00 0.  1.
</event>
<event>
12    1  0.8526130E-002  0.2051132E+03  0.7818608E-02  0.1147220E+00
         21   -1    0    0  501  502  0.00000000000E+00  0.00000000000E+00  0.70602021301E+03  0.70602021301E+03  0.00000000000E+00 0. -1.
         21   -1    0    0  502  503 -0.00000000000E+00 -0.00000000000E+00 -0.11411095484E+03  0.11411095484E+03  0.00000000000E+00 0. -1.
         -6    2    1    2    0  503 -0.62847655487E+02 -0.89776385150E+02  0.33742924895E+01  0.19687774068E+03  0.16352318428E+03 0.  0.
        -24    2    3    3    0    0 -0.91423742880E+02 -0.73714610883E+02 -0.34420568223E+02  0.14662721970E+03  0.80762747718E+02 0.  0.
          6    2    1    2  501    0  0.62847655487E+02  0.89776385150E+02  0.58853496568E+03  0.62325342717E+03  0.17338339458E+03 0.  0.
         24    2    5    5    0    0 -0.12792366267E+02 -0.39782608287E+01  0.30223735788E+03  0.31260932732E+03  0.78725471349E+02 0.  0.
          5    1    5    5  501    0  0.75640021754E+02  0.93754645979E+02  0.28629760780E+03  0.31064409984E+03  0.47000000000E+01 0. -1.
        -11    1    6    6    0    0 -0.29137794714E+02  0.16361444120E+01  0.38522627996E+02  0.48328882846E+02  0.00000000000E+00 0.  1.
         12    1    6    6    0    0  0.16345428447E+02 -0.56144052407E+01  0.26371472988E+03  0.26428044448E+03  0.00000000000E+00 0. -1.
         -5    1    3    3    0  503  0.28576087393E+02 -0.16061774267E+02  0.37794860713E+02  0.50250520988E+02  0.47000000000E+01 0.  1.
         13    1    4    4    0    0 -0.34414916870E+02 -0.78013904539E+02 -0.23177364265E+02  0.88361450978E+02  0.00000000000E+00 0. -1.
        -14    1    4    4    0    0 -0.57008826010E+02  0.42992936563E+01 -0.11243203958E+02  0.58265768718E+02  0.00000000000E+00 0.  1.
</event>
<event>
12    1  0.8526130E-002  0.2015066E+03  0.7818608E-02  0.1148641E+00
         21   -1    0    0  501  502  0.00000000000E+00  0.00000000000E+00  0.62560637276E+02  0.62560637276E+02  0.00000000000E+00 0.  1.
         21   -1    0    0  502  503 -0.00000000000E+00 -0.00000000000E+00 -0.65605459158E+03  0.65605459158E+03  0.00000000000E+00 0. -1.
         -6    2    1    2    0  503 -0.88320290768E+02  0.54076442969E+02 -0.34074029799E+03  0.39586469834E+03  0.17285882469E+03 0.  0.
        -24    2    3    3    0    0 -0.34297389688E+02  0.71148136355E+02 -0.10225939267E+03  0.15070118402E+03  0.77559623698E+02 0.  0.
          6    2    1    2  501    0  0.88320290768E+02 -0.54076442969E+02 -0.25275365632E+03  0.32275053051E+03  0.17192660853E+03 0.  0.
         24    2    5    5    0    0  0.63809083995E+02  0.17638505053E+02 -0.69961725270E+02  0.12481414406E+03  0.79380170657E+02 0.  0.
          5    1    5    5  501    0  0.24511206773E+02 -0.71714948022E+02 -0.18279193105E+03  0.19793638646E+03  0.47000000000E+01 0. -1.
        -11    1    6    6    0    0 -0.68243574788E+01 -0.59942243512E+01  0.11355547326E+02  0.14541356046E+02  0.00000000000E+00 0.  1.
         12    1    6    6    0    0  0.70633441474E+02  0.23632729404E+02 -0.81317272596E+02  0.11027278801E+03  0.00000000000E+00 0. -1.
         -5    1    3    3    0  503 -0.54022901080E+02 -0.17071693386E+02 -0.23848090531E+03  0.24516351432E+03  0.47000000000E+01 0.  1.
         13    1    4    4    0    0  0.13344118381E+02 -0.18901555150E+01  0.32062270832E+01  0.13853449944E+02  0.00000000000E+00 0. -1.
        -14    1    4    4    0    0 -0.47641508070E+02  0.73038291870E+02 -0.10546561976E+03  0.13684773407E+03  0.00000000000E+00 0.  1.
</event>
<event>
12    1  0.8526130E-002  0.2110467E+03  0.7818608E-02  0.1141163E+00
         21   -1    0    0  503  502  0.00000000000E+00  0.00000000000E+00  0.17182910160E+04  0.17182910160E+04  0.00000000000E+00 0.  1.
         21   -1    0    0  501  503 -0.00000000000E+00 -0.00000000000E+00 -0.35092304713E+02  0.35092304713E+02  0.00000000000E+00 0.  1.
          6    2    1    2  501    0 -0.11069561652E+03 -0.46081916878E+02  0.39020723564E+03  0.44362415228E+03  0.17367682388E+03 0.  0.
         24    2    3    3    0    0 -0.53914166839E+02 -0.44492505448E+02  0.36668886292E+03  0.38196490226E+03  0.80932959568E+02 0.  0.
         -6    2    1    2    0  502  0.11069561652E+03  0.46081916878E+02  0.12929914756E+04  0.13097591684E+04  0.17107033828E+03 0.  0.
        -24    2    5    5    0    0  0.11764139184E+03  0.82871570832E+02  0.89922864562E+03  0.91419251319E+03  0.80178549178E+02 0.  0.
          5    1    3    3  501    0 -0.56781449682E+02 -0.15894114299E+01  0.23518372726E+02  0.61659250015E+02  0.47000000000E+01 0. -1.
        -13    1    4    4    0    0 -0.37870154376E+02 -0.52259173723E+02  0.13544504012E+03  0.15003509164E+03  0.00000000000E+00 0.  1.
         14    1    4    4    0    0 -0.16044012463E+02  0.77666682752E+01  0.23124382280E+03  0.23192981062E+03  0.00000000000E+00 0. -1.
         -5    1    5    5    0  502 -0.69457753221E+01 -0.36789653955E+02  0.39376282998E+03  0.39556665520E+03  0.47000000000E+01 0.  1.
         13    1    6    6    0    0  0.78489482233E+02  0.15450456552E+02  0.32525337738E+03  0.33494637620E+03  0.00000000000E+00 0. -1.
        -14    1    6    6    0    0  0.39151909610E+02  0.67421114280E+02  0.57397526823E+03  0.57924613699E+03  0.00000000000E+00 0.  1.
</event>
<event>
12    1  0.8526130E-002  0.2004421E+03  0.7818608E-02  0.1149845E+00
         21   -1    0    0  501  502  0.00000000000E+00  0.00000000000E+00  0.33248874518E+03  0.33248874518E+03  0.00000000000E+00 0. -1.
         21   -1    0    0  502  503 -0.00000000000E+00 -0.00000000000E+00 -0.52259219761E+03  0.52259219761E+03  0.00000000000E+00 0.  1.
         -6    2    1    2    0  503 -0.11675182465E+02 -0.98339073718E+02 -0.47067375783E+03  0.51157678019E+03  0.17427028552E+03 0.  0.
        -24    2    3    3    0    0  0.13823447719E+01 -0.33277419844E+02 -0.41831255843E+03  0.42691685446E+03  0.78506729220E+02 0.  0.
          6    2    1    2  501    0  0.11675182465E+02  0.98339073718E+02  0.28057030540E+03  0.34350416259E+03  0.17166400362E+03 0.  0.
         24    2    5    5    0    0  0.52824413828E+02  0.56171761531E+02  0.82206074675E+02  0.13652155586E+03  0.77036426517E+02 0.  0.
          5    1    5    5  501    0 -0.41149231364E+02  0.42167312187E+02  0.19836423073E+03  0.20698260674E+03  0.47000000000E+01 0. -1.
        -13    1    6    6    0    0  0.11210221905E+02 -0.19362369972E+02  0.21745980598E+02  0.31200290355E+02  0.00000000000E+00 0.  1.
         14    1    6    6    0    0  0.41614191923E+02  0.75534131503E+02  0.60460094077E+02  0.10532126550E+03  0.00000000000E+00 0. -1.
         -5    1    3    3    0  503 -0.13057527236E+02 -0.65061653874E+02 -0.52361199406E+02  0.84659925736E+02  0.47000000000E+01 0.  1.
         13    1    4    4    0    0 -0.12738917533E+02  0.19671855773E+02 -0.21757820574E+03  0.21883678289E+03  0.00000000000E+00 0. -1.
        -14    1    4    4    0    0  0.14121262305E+02 -0.52949275617E+02 -0.20073435268E+03  0.20808007157E+03  0.00000000000E+00 0.  1.
</event>
<event>
12    1  0.8526130E-002  0.1722754E+03  0.7818608E-02  0.1176397E+00
         21   -1    0    0  503  502  0.00000000000E+00  0.00000000000E+00  0.49651347862E+03  0.49651347862E+03  0.00000000000E+00 0.  1.
         21   -1    0    0  501  503 -0.00000000000E+00 -0.00000000000E+00 -0.72707236395E+02  0.72707236395E+02  0.00000000000E+00 0.  1.
          6    2    1    2  501    0 -0.12296199376E+02 -0.94704891842E+01  0.84678851841E+02  0.18884431172E+03  0.16807968180E+03 0.  0.
         24    2    3    3    0    0  0.27833894992E+02  0.36228773692E+02  0.23601526314E+01  0.86387953491E+02  0.73280682545E+02 0.  0.
         -6    2    1    2    0  502  0.12296199376E+02  0.94704891842E+01  0.33912739038E+03  0.38037640330E+03  0.17157486585E+03 0.  0.
        -24    2    5    5    0    0 -0.27421874292E+02  0.31115979919E+02  0.91765985404E+02  0.12886933119E+03  0.80412343884E+02 0.  0.
          5    1    3    3  501    0 -0.40130094368E+02 -0.45699262876E+02  0.82318699209E+02  0.10245635823E+03  0.47000000000E+01 0. -1.
        -13    1    4    4    0    0  0.11761764380E+02  0.31889749013E+02  0.35594955604E+02  0.49216826979E+02  0.00000000000E+00 0.  1.
         14    1    4    4    0    0  0.16072130612E+02  0.43390246790E+01 -0.33234802972E+02  0.37171126512E+02  0.00000000000E+00 0. -1.
         -5    1    5    5    0  502  0.39718073668E+02 -0.21645490735E+02  0.24736140498E+03  0.25150707210E+03  0.47000000000E+01 0.  1.
         13    1    6    6    0    0 -0.37445746074E+02 -0.38353933433E+01  0.93448795022E+01  0.38784286948E+02  0.00000000000E+00 0. -1.
        -14    1    6    6    0    0  0.10023871783E+02  0.34951373262E+02  0.82421105902E+02  0.90085044245E+02  0.00000000000E+00 0.  1.
</event>
<event>
12    1  0.8526130E-002  0.1796784E+03  0.7818608E-02  0.1169726E+00
         21   -1    0    0  503  502  0.00000000000E+00  0.00000000000E+00  0.14485817853E+04  0.14485817853E+04  0.00000000000E+00 0. -1.
         21   -1    0    0  501  503 -0.00000000000E+00 -0.00000000000E+00 -0.23785459212E+02  0.23785459212E+02  0.00000000000E+00 0. -1.
          6    2    1    2  501    0  0.28034383911E+02  0.12853460755E+02  0.47166929450E+03  0.50245205200E+03  0.17039660515E+03 0.  0.
         24    2    3    3    0    0  0.41129543323E+01  0.37266290501E+02  0.12376636718E+03  0.15284261579E+03  0.81468145642E+02 0.  0.
         -6    2    1    2    0  502 -0.28034383911E+02 -0.12853460755E+02  0.95312703157E+03  0.96991519250E+03  0.17701187586E+03 0.  0.
        -24    2    5    5    0    0 -0.68540501345E+02  0.18438468362E+02  0.82459477970E+03  0.83148629324E+03  0.79844396847E+02 0.  0.
          5    1    3    3  501    0  0.23921429579E+02 -0.24412829746E+02  0.34790292732E+03  0.34960943621E+03  0.47000000000E+01 0. -1.
        -11    1    4    4    0    0 -0.32734341314E+02  0.38452048261E+02  0.88103661649E+02  0.10154975289E+03  0.00000000000E+00 0.  1.
         12    1    4    4    0    0  0.36847295647E+02 -0.11857577601E+01  0.35662705533E+02  0.51292862894E+02  0.00000000000E+00 0. -1.
         -5    1    5    5    0  502  0.40506117434E+02 -0.31291929118E+02  0.12853225188E+03  0.13842889926E+03  0.47000000000E+01 0.  1.
         11    1    6    6    0    0 -0.62942350805E+02  0.24325923285E+02  0.33018787421E+03  0.33701264419E+03  0.00000000000E+00 0. -1.
        -12    1    6    6    0    0 -0.55981505395E+01 -0.58874549223E+01  0.49440690549E+03  0.49447364906E+03  0.00000000000E+00 0.  1.
</event>
<event>
12    1  0.8526130E-002  0.2040989E+03  0.7818608E-02  0.1146720E+00
         21   -1    0    0  501  502  0.00000000000E+00  0.00000000000E+00  0.17667993203E+03  0.17667993203E+03  0.00000000000E+00 0.  1.
         21   -1    0    0  502  503 -0.00000000000E+00 -0.00000000000E+00 -0.24279195853E+03  0.24279195853E+03  0.00000000000E+00 0.  1.
         -6    2    1    2    0  503  0.39283065378E+02 -0.10324621642E+03  0.79593647264E+01  0.20234763777E+03  0.16934661082E+03 0.  0.
        -24    2    3    3    0    0 -0.15647211287E+02 -0.59723244021E+02  0.49369176815E+02  0.12080962849E+03  0.91356169023E+02 0.  0.
          6    2    1    2  501    0 -0.39283065378E+02  0.10324621642E+03 -0.74071391226E+02  0.21712425279E+03  0.17162001550E+03 0.  0.
         24    2    5    5    0    0 -0.42438697673E+02  0.71560101288E+02  0.20225527202E+02  0.11748507007E+03  0.80447365293E+02 0.  0.
          5    1    5    5  501    0  0.31556322958E+01  0.31686115133E+02 -0.94296918428E+02  0.99639182717E+02  0.47000000000E+01 0. -1.
        -11    1    6    6    0    0 -0.48601393097E+02  0.69684973018E+01 -0.13209232109E+01  0.49116190851E+02  0.00000000000E+00 0.  1.
         12    1    6    6    0    0  0.61626954237E+01  0.64591603986E+02  0.21546450413E+02  0.68368879220E+02  0.00000000000E+00 0. -1.
         -5    1    3    3    0  503  0.54930276665E+02 -0.43522972399E+02 -0.41409812089E+02  0.81538009285E+02  0.47000000000E+01 0.  1.
         13    1    4    4    0    0 -0.48625658121E+02 -0.56847111130E+02  0.22335264341E+02  0.78069921895E+02  0.00000000000E+00 0. -1.
        -14    1    4    4    0    0  0.32978446834E+02 -0.28761328920E+01  0.27033912474E+02  0.42739706594E+02  0.00000000000E+00 0.  1.
</event>
<event>
12    1  0.8526130E-002  0.2617540E+03  0.7818608E-02  0.1106713E+00
         21   -1    0    0  501  502  0.00000000000E+00  0.00000000000E+00  0.85898757121E+03  0.85898757121E+03  0.00000000000E+00 0.  1.
         21   -1    0    0  502  503 -0.00000000000E+00 -0.00000000000E+00 -0.81969338126E+02  0.81969338126E+02  0.00000000000E+00 0.  1.
         -6    2    1    2    0  503  0.16683031071E+03 -0.93351576654E+02  0.29482641251E+03  0.39425599493E+03  0.17879683048E+03 0.  0.
        -24    2    3    3    0    0  0.14633375695E+03 -0.65446991635E+02  0.11709809942E+03  0.21312560583E+03  0.77547932500E+02 0.  0.
          6    2    1    2  501    0 -0.16683031071E+03  0.93351576654E+02  0.48219182058E+03  0.54670091441E+03  0.17270225404E+03 0.  0.
         24    2    5    5    0    0 -0.10047607737E+03  0.38574179376E+02  0.41833885824E+03  0.43945009468E+03  0.80781037123E+02 0.  0.
          5    1    5    5  501    0 -0.66354233336E+02  0.54777397277E+02  0.63852962337E+02  0.10725081973E+03  0.47000000000E+01 0. -1.
        -13    1    6    6    0    0 -0.58292719788E+02  0.52985182548E+02  0.17294990877E+03  0.19004510436E+03  0.00000000000E+00 0.  1.
         14    1    6    6    0    0 -0.42183357585E+02 -0.14411003172E+02  0.24538894948E+03  0.24940499032E+03  0.00000000000E+00 0. -1.
         -5    1    3    3    0  503  0.20496553757E+02 -0.27904585018E+02  0.17772831309E+03  0.18113038909E+03  0.47000000000E+01 0.  1.
         13    1    4    4    0    0  0.16188982588E+01  0.35775759224E+01  0.30787451376E+02  0.31036865874E+02  0.00000000000E+00 0. -1.
        -14    1    4    4    0    0  0.14471485869E+03 -0.69024567558E+02  0.86310648043E+02  0.18208873996E+03  0.00000000000E+00 0.  1.
</event>
<event>
12    1  0.8526130E-002  0.2024348E+03  0.7818608E-02  0.1149460E+00
         21   -1    0    0  503  502  0.00000000000E+00  0.00000000000E+00  0.85679816384E+02  0.85679816384E+02  0.00000000000E+00 0.  1.
         21   -1    0    0  501  503 -0.00000000000E+00 -0.00000000000E+00 -0.65769345587E+03  0.65769345587E+03  0.00000000000E+00 0. -1.
          6    2    1    2  501    0 -0.38818726420E+02 -0.98298865236E+02 -0.48614508958E+03  0.52347953827E+03  0.16286257532E+03 0.  0.
         24    2    3    3    0    0 -0.56315909765E+02 -0.90919204204E+02 -0.21396956211E+03  0.25060187598E+03  0.74703034417E+02 0.  0.
         -6    2    1    2    0  502  0.38818726420E+02  0.98298865236E+02 -0.85868549898E+02  0.21989373397E+03  0.17265655491E+03 0.  0.
        -24    2    5    5    0    0  0.39365904855E+02  0.11974422941E+03 -0.11139242825E+03  0.18622236015E+03  0.79888293300E+02 0.  0.
          5    1    3    3  501    0  0.17497183345E+02 -0.73796610317E+01 -0.27217552748E+03  0.27287766229E+03  0.47000000000E+01 0. -1.
        -11    1    4    4    0    0 -0.27566054604E+02 -0.26467239221E+02 -0.17864751789E+02  0.42184730352E+02  0.00000000000E+00 0.  1.
         12    1    4    4    0    0 -0.28749855161E+02 -0.64451964983E+02 -0.19610481032E+03  0.20841714563E+03  0.00000000000E+00 0. -1.
         -5    1    5    5    0  502 -0.54717843523E+00 -0.21445364175E+02  0.25523878354E+02  0.33671373822E+02  0.47000000000E+01 0.  1.
         11    1    6    6    0    0  0.51025500818E+01 -0.86481146243E+01 -0.26992374679E+02  0.28799551988E+02  0.00000000000E+00 0. -1.
        -12    1    6    6    0    0  0.34263354773E+02  0.12839234404E+03 -0.84400053573E+02  0.15742280816E+03  0.00000000000E+00 0.  1.
</event>
<event>
12    1  0.8526130E-002  0.2322253E+03  0.7818608E-02  0.1125207E+00
         21   -1    0    0  501  502  0.00000000000E+00  0.00000000000E+00  0.87614426282E+02  0.87614426282E+02  0.00000000000E+00 0. -1.
         21   -1    0    0  502  503 -0.00000000000E+00 -0.00000000000E+00 -0.61789804634E+03  0.61789804634E+03  0.00000000000E+00 0. -1.
         -6    2    1    2    0  503  0.14096484442E+02 -0.15592939315E+03 -0.29481634069E+03  0.37529359918E+03  0.17151071198E+03 0.  0.
        -24    2    3    3    0    0 -0.16104193668E+02 -0.24929179245E+02 -0.17698820651E+03  0.19646771681E+03  0.79962050195E+02 0.  0.
          6    2    1    2  501    0 -0.14096484442E+02  0.15592939315E+03 -0.23546727936E+03  0.33021887344E+03  0.17054904926E+03 0.  0.
         24    2    5    5    0    0 -0.67005486126E+02  0.13647246532E+03 -0.15500825636E+03  0.23186401142E+03  0.81356568828E+02 0.  0.
          5    1    5    5  501    0  0.52909001684E+02  0.19456927827E+02 -0.80459023005E+02  0.98354862018E+02  0.47000000000E+01 0. -1.
        -11    1    6    6    0    0  0.16426799691E+01 -0.75382474433E+01  0.20588914007E+01  0.79851490780E+01  0.00000000000E+00 0.  1.
         12    1    6    6    0    0 -0.68648166095E+02  0.14401071277E+03 -0.15706714776E+03  0.22387886235E+03  0.00000000000E+00 0. -1.
         -5    1    3    3    0  503  0.30200678110E+02 -0.13100021390E+03 -0.11782813418E+03  0.17882588237E+03  0.47000000000E+01 0.  1.
         11    1    4    4    0    0  0.35957050793E+01 -0.43874582638E+02 -0.50203632653E+02  0.66770598531E+02  0.00000000000E+00 0. -1.
        -12    1    4    4    0    0 -0.19699898747E+02  0.18945403392E+02 -0.12678457386E+03  0.12969711828E+03  0.00000000000E+00 0.  1.
</event>
<event>
12    1  0.8526130E-002  0.2907631E+03  0.7818608E-02  0.1090451E+00
         21   -1    0    0  503  502  0.00000000000E+00  0.00000000000E+00  0.74283738736E+03  0.74283738736E+03  0.00000000000E+00 0. -1.
         21   -1    0    0  501  503 -0.00000000000E+00 -0.00000000000E+00 -0.11434463493E+03  0.11434463493E+03  0.00000000000E+00 0. -1.
          6    2    1    2  501    0  0.13669968413E+03 -0.18718912787E+03  0.25523176011E+03  0.38403620112E+03  0.16915667049E+03 0.  0.
         24    2    3    3    0    0  0.10031691780E+03 -0.43475618816E+02  0.91413495668E+02  0.16304798394E+03  0.79212400851E+02 0.  0.
         -6    2    1    2    0  502 -0.13669968413E+03  0.18718912787E+03  0.37326099232E+03  0.47314582117E+03  0.17554665041E+03 0.  0.
        -24    2    5    5    0    0 -0.16518980844E+03  0.12628669881E+03  0.27361755631E+03  0.35284745298E+03  0.79992217437E+02 0.  0.
          5    1    3    3  501    0  0.36382766334E+02 -0.14371350905E+03  0.16381826444E+03  0.22098821719E+03  0.47000000000E+01 0. -1.
        -13    1    4    4    0    0 -0.83639273432E+01 -0.22497428672E+02  0.20751824838E+02  0.31728974322E+02  0.00000000000E+00 0.  1.
         14    1    4    4    0    0  0.10868084514E+03 -0.20978190144E+02  0.70661670829E+02  0.13131900962E+03  0.00000000000E+00 0. -1.
         -5    1    5    5    0  502  0.28490124305E+02  0.60902429058E+02  0.99643436011E+02  0.12029836819E+03  0.47000000000E+01 0.  1.
         11    1    6    6    0    0 -0.14942342204E+03  0.13344229420E+03  0.22512226792E+03  0.30135401184E+03  0.00000000000E+00 0. -1.
        -12    1    6    6    0    0 -0.15766386394E+02 -0.71555953936E+01  0.48495288389E+02  0.51493441149E+02  0.00000000000E+00 0.  1.
</event>
<event>
12    1  0.8526130E-002  0.1851544E+03  0.7818608E-02  0.1165956E+00
         21   -1    0    0  501  502  0.00000000000E+00  0.00000000000E+00  0.51442491166E+02  0.51442491166E+02  0.00000000000E+00 0.  1.
         21   -1    0    0  502  503 -0.00000000000E+00 -0.00000000000E+00 -0.65279373435E+03  0.65279373435E+03  0.00000000000E+00 0. -1.
         -6    2    1    2    0  503  0.64738696565E+02  0.20163749911E+02 -0.36719992552E+03  0.40572492204E+03  0.15867971330E+03 0.  0.
        -24    2    3    3    0    0  0.69553836091E+02 -0.32072570616E+02 -0.16007937471E+03  0.19201289308E+03  0.73329114272E+02 0.  0.
          6    2    1    2  501    0 -0.64738696565E+02 -0.20163749911E+02 -0.23415131766E+03  0.29851130348E+03  0.17229185442E+03 0.  0.
         24    2    5    5    0    0 -0.13290229736E+02  0.16412171254E+02 -0.21871389885E+03  0.23335651358E+03  0.78571644419E+02 0.  0.
          5    1    5    5  501    0 -0.51448466829E+02 -0.36575921166E+02 -0.15437418812E+02  0.65154789906E+02  0.47000000000E+01 0. -1.
        -13    1    6    6    0    0 -0.24474746756E+02  0.13924255730E+02 -0.20545317916E+02  0.34856967950E+02  0.00000000000E+00 0.  1.
         14    1    6    6    0    0  0.11184517020E+02  0.24879155245E+01 -0.19816858093E+03  0.19849954563E+03  0.00000000000E+00 0. -1.
         -5    1    3    3    0  503 -0.48151395265E+01  0.52236320527E+02 -0.20712055082E+03  0.21371202896E+03  0.47000000000E+01 0.  1.
         13    1    4    4    0    0  0.33187930040E+02 -0.19260985964E+02 -0.14601230452E+03  0.15097025320E+03  0.00000000000E+00 0. -1.
        -14    1    4    4    0    0  0.36365906051E+02 -0.12811584651E+02 -0.14067070188E+02  0.41042639875E+02  0.00000000000E+00 0.  1.
</event>
<event>
12    1  0.8526130E-002  0.1804727E+03  0.7818608E-02  0.1167460E+00
         21   -1    0    0  501  502  0.00000000000E+00  0.00000000000E+00  0.26485696026E+03  0.26485696026E+03  0.00000000000E+00 0. -1.
         21   -1    0    0  502  503 -0.00000000000E+00 -0.00000000000E+00 -0.13710557074E+03  0.13710557074E+03  0.00000000000E+00 0.  1.
         -6    2    1    2    0  503  0.36632505355E+02  0.35498894819E+02  0.12905425157E+03  0.22148515870E+03  0.17262260482E+03 0.  0.
        -24    2    3    3    0    0 -0.38313125149E+02 -0.61432684149E+01  0.36061771737E+02  0.94912615884E+02  0.78754796474E+02 0.  0.
          6    2    1    2  501    0 -0.36632505355E+02 -0.35498894819E+02 -0.13028620399E+01  0.18047737230E+03  0.17311346707E+03 0.  0.
         24    2    5    5    0    0 -0.77629418881E+02 -0.44233595876E+02 -0.15595721488E+02  0.13594179380E+03  0.10126207134E+03 0.  0.
          5    1    5    5  501    0  0.40996913526E+02  0.87347010573E+01  0.14292859448E+02  0.44535578501E+02  0.47000000000E+01 0. -1.
        -13    1    6    6    0    0  0.93713927684E+01 -0.19091472642E+01 -0.35842299802E+02  0.37096338105E+02  0.00000000000E+00 0.  1.
         14    1    6    6    0    0 -0.87000811649E+02 -0.42324448612E+02  0.20246578314E+02  0.98845455694E+02  0.00000000000E+00 0. -1.
         -5    1    3    3    0  503  0.74945630504E+02  0.41642163234E+02  0.92992479830E+02  0.12657254282E+03  0.47000000000E+01 0.  1.
         13    1    4    4    0    0 -0.22155383870E+01 -0.15847908857E+02  0.51903965374E+02  0.54314698260E+02  0.00000000000E+00 0. -1.
        -14    1    4    4    0    0 -0.36097586762E+02  0.97046404420E+01 -0.15842193638E+02  0.40597917624E+02  0.00000000000E+00 0.  1.
</event>
<event>
12    1  0.8526130E-002  0.1729084E+03  0.7818608E-02  0.1174930E+00
         21   -1    0    0  503  502  0.00000000000E+00  0.00000000000E+00  0.15391912034E+03  0.15391912034E+03  0.00000000000E+00 0. -1.
         21   -1    0    0  501  503 -0.00000000000E+00 -0.00000000000E+00 -0.25858200828E+03  0.25858200828E+03  0.00000000000E+00 0. -1.
          6    2    1    2  501    0 -0.15947140695E+02  0.87481187682E+01 -0.15553537594E+03  0.23256949471E+03  0.17194905007E+03 0.  0.
         24    2    3    3    0    0 -0.33060802450E+02  0.69796296363E+02 -0.10316589514E+03  0.15020196515E+03  0.77154965945E+02 0.  0.
         -6    2    1    2    0  502  0.15947140695E+02 -0.87481187682E+01  0.50872488002E+02  0.17993163392E+03  0.17162908253E+03 0.  0.
        -24    2    5    5    0    0 -0.20459371273E+02 -0.60180653558E+02  0.54412039861E+02  0.11664373479E+03  0.81269882787E+02 0.  0.
          5    1    3    3  501    0  0.17113661755E+02 -0.61048177594E+02 -0.52369480791E+02  0.82367529553E+02  0.47000000000E+01 0. -1.
        -11    1    4    4    0    0  0.96208008182E+01 -0.15235700057E+01  0.71472808585E+01  0.12081585062E+02  0.00000000000E+00 0.  1.
         12    1    4    4    0    0 -0.42681603268E+02  0.71319866368E+02 -0.11031317600E+03  0.13812038009E+03  0.00000000000E+00 0. -1.
         -5    1    5    5    0  502  0.36406511968E+02  0.51432534790E+02 -0.35395518588E+01  0.63287899127E+02  0.47000000000E+01 0.  1.
         11    1    6    6    0    0 -0.41711597873E+01 -0.28057560559E+02  0.71395187657E+02  0.76823812058E+02  0.00000000000E+00 0. -1.
        -12    1    6    6    0    0 -0.16288211486E+02 -0.32123093000E+02 -0.16983147796E+02  0.39819922731E+02  0.00000000000E+00 0.  1.
</event>
<event>
12    1  0.8526130E-002  0.1920061E+03  0.7818608E-02  0.1158350E+00
         21   -1    0    0  503  502  0.00000000000E+00  0.00000000000E+00  0.85059744932E+02  0.85059744932E+02  0.00000000000E+00 0. -1.
         21   -1    0    0  501  503 -0.00000000000E+00 -0.00000000000E+00 -0.47220614238E+03  0.47220614238E+03  0.00000000000E+00 0.  1.
          6    2    1    2  501    0  0.36494425958E+02  0.60179805622E+02 -0.10154029899E+03  0.21720214826E+03  0.17864178896E+03 0.  0.
         24    2    3    3    0    0  0.38501937078E+02  0.90261334103E+02 -0.14957712475E+02  0.12540039042E+03  0.76629088220E+02 0.  0.
         -6    2    1    2    0  502 -0.36494425958E+02 -0.60179805622E+02 -0.28560609846E+03  0.34006373905E+03  0.17064305145E+03 0.  0.
        -24    2    5    5    0    0 -0.48369960851E+02 -0.91325195200E+02 -0.14521763744E+03  0.19569589772E+03  0.80800852537E+02 0.  0.
          5    1    3    3  501    0 -0.20075111200E+01 -0.30081528481E+02 -0.86582586513E+02  0.91801757848E+02  0.47000000000E+01 0. -1.
        -13    1    4    4    0    0  0.16227562264E+02  0.40823332279E+02 -0.45433549727E+02  0.63198779072E+02  0.00000000000E+00 0.  1.
         14    1    4    4    0    0  0.22274374814E+02  0.49438001824E+02  0.30475837252E+02  0.62201611345E+02  0.00000000000E+00 0. -1.
         -5    1    5    5    0  502  0.11875534893E+02  0.31145389579E+02 -0.14038846102E+03  0.14436784133E+03  0.47000000000E+01 0.  1.
         11    1    6    6    0    0 -0.39120573459E+02 -0.60887552955E+01 -0.21151533861E+02  0.44887410189E+02  0.00000000000E+00 0. -1.
        -12    1    6    6    0    0 -0.92493873913E+01 -0.85236439905E+02 -0.12406610358E+03  0.15080848753E+03  0.00000000000E+00 0.  1.
</event>
<event>
12    1  0.8526130E-002  0.2051425E+03  0.7818608E-02  0.1145524E+00
         21   -1    0    0  503  502  0.00000000000E+00  0.00000000000E+00  0.13482201518E+04  0.13482201518E+04  0.00000000000E+00 0. -1.
         21   -1    0    0  501  503 -0.00000000000E+00 -0.00000000000E+00 -0.57895137881E+02  0.57895137881E+02  0.00000000000E+00 0.  1.
          6    2    1    2  501    0  0.11047586019E+03 -0.91632140848E+01  0.16731547521E+03  0.26452259931E+03  0.17230454760E+03 0.  0.
         24    2    3    3    0    0  0.14213067273E+03 -0.32785122180E+02  0.13429291231E+03  0.21282539088E+03  0.77356760139E+02 0.  0.
         -6    2    1    2    0  502 -0.11047586019E+03  0.91632140848E+01  0.11230095387E+04  0.11415926904E+04  0.17261102659E+03 0.  0.
        -24    2    5    5    0    0 -0.33506699951E+02  0.59998154704E+02  0.73184926406E+03  0.73967616511E+03  0.82431828891E+02 0.  0.
          5    1    3    3  501    0 -0.31654812539E+02  0.23621908095E+02  0.33022562907E+02  0.51697208434E+02  0.47000000000E+01 0. -1.
        -13    1    4    4    0    0  0.11502822656E+03 -0.36653264499E+02  0.62407195684E+02  0.13590295353E+03  0.00000000000E+00 0.  1.
         14    1    4    4    0    0  0.27102446169E+02  0.38681423193E+01  0.71885716624E+02  0.76922437350E+02  0.00000000000E+00 0. -1.
         -5    1    5    5    0  502 -0.76969160243E+02 -0.50834940619E+02  0.39116027466E+03  0.40191652527E+03  0.47000000000E+01 0.  1.
         11    1    6    6    0    0 -0.24781092757E+02  0.72219370476E+02  0.70317222844E+03  0.70730539577E+03  0.00000000000E+00 0. -1.
        -12    1    6    6    0    0 -0.87256071942E+01 -0.12221215771E+02  0.28677035615E+02  0.32370769338E+02  0.00000000000E+00 0.  1.
</event>
<event>
12    1  0.8526130E-002  0.2087119E+03  0.7818608E-02  0.1142912E+00
         21   -1    0    0  503  502  0.00000000000E+00  0.00000000000E+00  0.78717365999E+02  0.78717365999E+02  0.00000000000E+00 0.  1.
         21   -1    0    0  501  503 -0.00000000000E+00 -0.00000000000E+00 -0.56665072803E+03  0.56665072803E+03  0.00000000000E+00 0.  1.
          6    2    1    2  501    0  0.55480768624E+02 -0.10201011886E+03 -0.18631772294E+03  0.27858116208E+03  0.17149049522E+03 0.  0.
         24    2    3    3    0    0  0.74876079086E+02 -0.78986908440E+02 -0.20495544020E+03  0.24286420826E+03  0.71630526059E+02 0.  0.
         -6    2    1    2    0  502 -0.55480768624E+02  0.10201011886E+03 -0.30161563909E+03  0.36678693194E+03  0.17342571800E+03 0.  0.
        -24    2    5    5    0    0  0.27328198489E+02  0.23948662178E+02 -0.83084077126E+02  0.12035428470E+03  0.79131669521E+02 0.  0.
          5    1    3    3  501    0 -0.19395310461E+02 -0.23023210416E+02  0.18637717258E+02  0.35716953822E+02  0.47000000000E+01 0. -1.
        -13    1    4    4    0    0  0.54701938215E+02 -0.65605920040E+01 -0.88534731753E+02  0.10427723691E+03  0.00000000000E+00 0.  1.
         14    1    4    4    0    0  0.20174140871E+02 -0.72426316436E+02 -0.11642070845E+03  0.13858697135E+03  0.00000000000E+00 0. -1.
         -5    1    5    5    0  502 -0.82808967113E+02  0.78061456678E+02 -0.21853156196E+03  0.24643264724E+03  0.47000000000E+01 0.  1.
         13    1    6    6    0    0  0.46747174125E+02  0.61079092348E+01 -0.81229010407E+02  0.93918885084E+02  0.00000000000E+00 0. -1.
        -14    1    6    6    0    0 -0.19418975636E+02  0.17840752943E+02 -0.18550667192E+01  0.26435399616E+02  0.00000000000E+00 0.  1.
</event>
<event>
12    1  0.8526130E-002  0.3449462E+03  0.7818608E-02  0.1064740E+00
         21   -1    0    0  501  502  0.00000000000E+00  0.00000000000E+00  0.43285289115E+03  0.43285289115E+03  0.00000000000E+00 0. -1.
         21   -1    0    0  502  503 -0.00000000000E+00 -0.00000000000E+00 -0.31779527629E+03  0.31779527629E+03  0.00000000000E+00 0. -1.
         -6    2    1    2    0  503 -0.41009267244E+02  0.29581100496E+03 -0.80742016931E+02  0.35426993126E+03  0.17263255845E+03 0.  0.
        -24    2    3    3    0    0  0.34430310204E+02  0.98412313221E+02 -0.19774564187E+02  0.13427790040E+03  0.82274488710E+02 0.  0.
          6    2    1    2  501    0  0.41009267244E+02 -0.29581100496E+03  0.19579963179E+03  0.39637823618E+03  0.17202412521E+03 0.  0.
         24    2    5    5    0    0 -0.36340081401E+02 -0.11314889584E+03  0.99909432098E+02  0.17600267437E+03  0.82896155636E+02 0.  0.
          5    1    5    5  501    0  0.77349348645E+02 -0.18266210913E+03  0.95890199687E+02  0.22037556181E+03  0.47000000000E+01 0. -1.
        -13    1    6    6    0    0 -0.21559738621E+01 -0.63747669956E+02  0.96700062548E+02  0.11584177029E+03  0.00000000000E+00 0.  1.
         14    1    6    6    0    0 -0.34184107539E+02 -0.49401225880E+02  0.32093695502E+01  0.60160904079E+02  0.00000000000E+00 0. -1.
         -5    1    3    3    0  503 -0.75439577447E+02  0.19739869174E+03 -0.60967452744E+02  0.21999203086E+03  0.47000000000E+01 0.  1.
         13    1    4    4    0    0 -0.78420132888E+00  0.64031709827E+02 -0.45681827967E+02  0.78660690574E+02  0.00000000000E+00 0. -1.
        -14    1    4    4    0    0  0.35214511533E+02  0.34380603394E+02  0.25907263780E+02  0.55617209825E+02  0.00000000000E+00 0.  1.
</event>
<event>
12    1  0.8526130E-002  0.2841937E+03  0.7818608E-02  0.1093519E+00
         21   -1    0    0  503  502  0.00000000000E+00  0.00000000000E+00  0.60571601555E+03  0.60571601555E+03  0.00000000000E+00 0.  1.
         21   -1    0    0  501  503 -0.00000000000E+00 -0.00000000000E+00 -0.47487108412E+03  0.47487108412E+03  0.00000000000E+00 0. -1.
          6    2    1    2  501    0  0.20723740444E+02  0.22478179062E+03 -0.39303611100E+03  0.48458592417E+03  0.17143455468E+03 0.  0.
         24    2    3    3    0    0  0.32894881067E+02  0.19974524457E+03 -0.22038032681E+03  0.30963714561E+03  0.79545191996E+02 0.  0.
         -6    2    1    2    0  502 -0.20723740444E+02 -0.22478179062E+03  0.52388104243E+03  0.59600117550E+03  0.17265493843E+03 0.  0.
        -24    2    5    5    0    0 -0.67790034945E+02 -0.20959065503E+03  0.42935664330E+03  0.48921653845E+03  0.80386334861E+02 0.  0.
          5    1    3    3  501    0 -0.12171140623E+02  0.25036546047E+02 -0.17265578420E+03  0.17494877856E+03  0.47000000000E+01 0. -1.
        -13    1    4    4    0    0  0.33138265054E+02  0.38664674166E+02 -0.85624273995E+02  0.99622376684E+02  0.00000000000E+00 0.  1.
         14    1    4    4    0    0 -0.24338398716E+00  0.16108057041E+03 -0.13475605281E+03  0.21001476893E+03  0.00000000000E+00 0. -1.
         -5    1    5    5    0  502  0.47066294501E+02 -0.15191135583E+02  0.94524399129E+02  0.10678463705E+03  0.47000000000E+01 0.  1.
         13    1    6    6    0    0 -0.38803133289E+02 -0.90569371194E+02  0.11274558034E+03  0.14973329636E+03  0.00000000000E+00 0. -1.
        -14    1    6    6    0    0 -0.28986901656E+02 -0.11902128384E+03  0.31661106296E+03  0.33948324210E+03  0.00000000000E+00 0.  1.
</event>
<event>
12    1  0.8526130E-002  0.2346388E+03  0.7818608E-02  0.1123612E+00
         21   -1    0    0  503  502  0.00000000000E+00  0.00000000000E+00  0.82305042124E+03  0.82305042124E+03  0.00000000000E+00 0.  1.
         21   -1    0    0  501  503 -0.00000000000E+00 -0.00000000000E+00 -0.66609419037E+02  0.66609419037E+02  0.00000000000E+00 0.  1.
          6    2    1    2  501    0  0.28896824685E+02 -0.15663285692E+03  0.36629911363E+03  0.43439502629E+03  0.17074870388E+03 0.  0.
         24    2    3    3    0    0 -0.43886018421E+02 -0.12326739262E+03  0.24788246602E+03  0.29137338846E+03  0.79573248289E+02 0.  0.
         -6    2    1    2    0  502 -0.28896824685E+02  0.15663285692E+03  0.39014188857E+03  0.45526481398E+03  0.17229764737E+03 0.  0.
        -24    2    5    5    0    0 -0.56155373623E+02  0.17420684533E+03  0.31241046091E+03  0.37090760679E+03  0.80440697049E+02 0.  0.
          5    1    3    3  501    0  0.72782843105E+02 -0.33365464295E+02  0.11841664761E+03  0.14302163783E+03  0.47000000000E+01 0. -1.
        -11    1    4    4    0    0 -0.33012871373E+02 -0.51977996052E+02  0.18738900085E+03  0.19724654469E+03  0.00000000000E+00 0.  1.
         12    1    4    4    0    0 -0.10873147048E+02 -0.71289396571E+02  0.60493465167E+02  0.94126843770E+02  0.00000000000E+00 0. -1.
         -5    1    5    5    0  502  0.27258548938E+02 -0.17573988415E+02  0.77731427658E+02  0.84357207189E+02  0.47000000000E+01 0.  1.
         11    1    6    6    0    0 -0.15320852237E+02  0.50678871453E+02  0.32201083869E+02  0.61967623219E+02  0.00000000000E+00 0. -1.
        -12    1    6    6    0    0 -0.40834521386E+02  0.12352797388E+03  0.28020937704E+03  0.30893998357E+03  0.00000000000E+00 0.  1.
</event>
<event>
12    1  0.8526130E-002  0.2239341E+03  0.7818608E-02  0.1132042E+00
         21   -1    0    0  501  502  0.00000000000E+00  0.00000000000E+00  0.15042199082E+04  0.15042199082E+04  0.00000000000E+00 0. -1.
         21   -1    0    0  502  503 -0.00000000000E+00 -0.00000000000E+00 -0.38525091334E+02  0.38525091334E+02  0.00000000000E+00 0. -1.
         -6    2    1    2    0  503  0.12292625089E+03 -0.54678849748E+02  0.10461412256E+04  0.10698401394E+04  0.17901346415E+03 0.  0.
        -24    2    3    3    0    0  0.42756019037E+02 -0.30443959213E+02  0.22616289610E+03  0.24558220239E+03  0.80037808185E+02 0.  0.
          6    2    1    2  501    0 -0.12292625089E+03  0.54678849748E+02  0.41955359128E+03  0.47290486008E+03  0.17179392004E+03 0.  0.
         24    2    5    5    0    0 -0.57624331811E+02  0.32814685912E+02  0.37905421313E+03  0.39287566587E+03  0.79194855328E+02 0.  0.
          5    1    5    5  501    0 -0.65301919081E+02  0.21864163836E+02  0.40499378148E+02  0.80029194213E+02  0.47000000000E+01 0. -1.
        -11    1    6    6    0    0 -0.14000923805E+02  0.34691626649E+02  0.59027907426E+02  0.69884395126E+02  0.00000000000E+00 0.  1.
         12    1    6    6    0    0 -0.43623408005E+02 -0.18769407369E+01  0.32002630570E+03  0.32299127074E+03  0.00000000000E+00 0. -1.
         -5    1    3    3    0  503  0.80170231855E+02 -0.24234890535E+02  0.81997832947E+03  0.82425793706E+03  0.47000000000E+01 0.  1.
         11    1    4    4    0    0  0.56874445629E+02 -0.13806479951E+02  0.21111189476E+03  0.21907431060E+03  0.00000000000E+00 0. -1.
        -12    1    4    4    0    0 -0.14118426592E+02 -0.16637479263E+02  0.15051001339E+02  0.26507891786E+02  0.00000000000E+00 0.  1.
</event>
<event>
12    1  0.8526130E-002  0.2100633E+03  0.7818608E-02  0.1141798E+00
         21   -1    0    0  501  502  0.00000000000E+00  0.00000000000E+00  0.96709677248E+03  0.96709677248E+03  0.00000000000E+00 0. -1.
         21   -1    0    0  502  503 -0.00000000000E+00 -0.00000000000E+00 -0.50800406737E+02  0.50800406737E+02  0.00000000000E+00 0.  1.
         -6    2    1    2    0  503  0.66592906425E+02  0.96976370516E+02  0.29237211485E+03  0.36001117893E+03  0.17403322611E+03 0.  0.
        -24    2    3    3    0    0 -0.22817765719E+02  0.41111885919E+02  0.77108511370E+02  0.12027044832E+03  0.79425566521E+02 0.  0.
          6    2    1    2  501    0 -0.66592906425E+02 -0.96976370516E+02  0.62392425089E+03  0.65788600028E+03  0.17231798191E+03 0.  0.
         24    2    5    5    0    0 -0.13012908299E+02 -0.24658989051E+02  0.12497670478E+03  0.15086394589E+03  0.79770620594E+02 0.  0.
          5    1    5    5  501    0 -0.53579998127E+02 -0.72317381465E+02  0.49894754611E+03  0.50702205439E+03  0.47000000000E+01 0. -1.
        -11    1    6    6    0    0 -0.34255749695E+02 -0.40063264762E+02  0.10631293004E+03  0.11866322373E+03  0.00000000000E+00 0.  1.
         12    1    6    6    0    0  0.21242841397E+02  0.15404275712E+02  0.18663774737E+02  0.32200722170E+02  0.00000000000E+00 0. -1.
         -5    1    3    3    0  503  0.89410672144E+02  0.55864484597E+02  0.21526360348E+03  0.23974073061E+03  0.47000000000E+01 0.  1.
         13    1    4    4    0    0 -0.33746071837E+02  0.26378939210E+02  0.88749409295E+02  0.98544931115E+02  0.00000000000E+00 0. -1.
        -14    1    4    4    0    0  0.10928306118E+02  0.14732946710E+02 -0.11640897925E+02  0.21725517206E+02  0.00000000000E+00 0.  1.
</event>
<event>
12    1  0.8526130E-002  0.1817659E+03  0.7818608E-02  0.1166388E+00
         21   -1    0    0  503  502  0.00000000000E+00  0.00000000000E+00  0.34499280597E+03  0.34499280597E+03  0.00000000000E+00 0.  1.
         21   -1    0    0  501  503 -0.00000000000E+00 -0.00000000000E+00 -0.96059492417E+02  0.96059492417E+02  0.00000000000E+00 0.  1.
          6    2    1    2  501    0 -0.20432109864E+02  0.52376237208E+02  0.10256045012E+03  0.20767736393E+03  0.17161148045E+03 0.  0.
         24    2    3    3    0    0 -0.61104456153E+02  0.68961740818E+02  0.10915865690E+03  0.16301255658E+03  0.78536647300E+02 0.  0.
         -6    2    1    2    0  502  0.20432109864E+02 -0.52376237208E+02  0.14637286344E+03  0.23337493446E+03  0.17285283784E+03 0.  0.
        -24    2    5    5    0    0 -0.64864862664E+01 -0.87792508493E+02  0.51172904919E+02  0.12818916931E+03  0.77872959869E+02 0.  0.
          5    1    3    3  501    0  0.40672346289E+02 -0.16585503611E+02 -0.65982067751E+01  0.44664807347E+02  0.47000000000E+01 0. -1.
        -13    1    4    4    0    0 -0.40923914552E+02  0.42914614337E+02  0.12110806356E+02  0.60523570091E+02  0.00000000000E+00 0.  1.
         14    1    4    4    0    0 -0.20180541601E+02  0.26047126481E+02  0.97047850541E+02  0.10248898649E+03  0.00000000000E+00 0. -1.
         -5    1    5    5    0  502  0.26918596130E+02  0.35416271285E+02  0.95199958517E+02  0.10518576515E+03  0.47000000000E+01 0.  1.
         11    1    6    6    0    0 -0.40695033660E+02 -0.59490154489E+02  0.39888947450E+02  0.82378955895E+02  0.00000000000E+00 0. -1.
        -12    1    6    6    0    0  0.34208547393E+02 -0.28302354004E+02  0.11283957469E+02  0.45810213414E+02  0.00000000000E+00 0.  1.
</event>
<event>
12    1  0.8526130E-002  0.2193019E+03  0.7818608E-02  0.1134876E+00
         21   -1    0    0  501  502  0.00000000000E+00  0.00000000000E+00  0.15772946738E+04  0.15772946738E+04  0.00000000000E+00 0.  1.
         21   -1    0    0  502  503 -0.00000000000E+00 -0.00000000000E+00 -0.30249269927E+02  0.30249269927E+02  0.00000000000E+00 0.  1.
         -6    2    1    2    0  503  0.12966372375E+03  0.33613624119E+02  0.73047885830E+03  0.76268779845E+03  0.17363973764E+03 0.  0.
        -24    2    3    3    0    0  0.59560802273E+02  0.29374194174E+01  0.16605725230E+03  0.19308329666E+03  0.78422132124E+02 0.  0.
          6    2    1    2  501    0 -0.12966372375E+03 -0.33613624119E+02  0.81656654557E+03  0.84485614528E+03  0.17046532166E+03 0.  0.
         24    2    5    5    0    0 -0.68461979098E+02  0.22220937042E+02  0.64671985209E+03  0.65582402882E+03  0.81717666746E+02 0.  0.
          5    1    5    5  501    0 -0.61201744656E+02 -0.55834561161E+02  0.16984669348E+03  0.18903211647E+03  0.47000000000E+01 0. -1.
        -13    1    6    6    0    0 -0.67854422481E+02  0.13479839159E+02  0.26124671157E+03  0.27025131456E+03  0.00000000000E+00 0.  1.
         14    1    6    6    0    0 -0.60755661711E+00  0.87410978835E+01  0.38547314052E+03  0.38557271426E+03  0.00000000000E+00 0. -1.
         -5    1    3    3    0  503  0.70102921480E+02  0.30676204701E+02  0.56442160601E+03  0.56960450179E+03  0.47000000000E+01 0.  1.
         13    1    4    4    0    0  0.17222581921E+02  0.39000864588E+02  0.79196805093E+02  0.89943419457E+02  0.00000000000E+00 0. -1.
        -14    1    4    4    0    0  0.42338220352E+02 -0.36063445171E+02  0.86860447205E+02  0.10313987720E+03  0.00000000000E+00 0.  1.
</event>
<event>
12    1  0.8526130E-002  0.1934723E+03  0.7818608E-02  0.1156071E+00
         21   -1    0    0  503  502  0.00000000000E+00  0.00000000000E+00  0.16728745816E+04  0.16728745816E+04  0.00000000000E+00 0.  1.
         21   -1    0    0  501  503 -0.00000000000E+00 -0.00000000000E+00 -0.28785117207E+02  0.28785117207E+02  0.00000000000E+00 0.  1.
          6    2    1    2  501    0  0.16696612764E+01  0.88244728882E+02  0.40408185123E+03  0.44664957779E+03  0.16859354348E+03 0.  0.
         24    2    3    3    0    0  0.53354888234E+02  0.91671158503E+02  0.31058312664E+03  0.33965796781E+03  0.87494634950E+02 0.  0.
         -6    2    1    2    0  502 -0.16696612764E+01 -0.88244728882E+02  0.12400076132E+04  0.12550101211E+04  0.17216736977E+03 0.  0.
        -24    2    5    5    0    0  0.91548510542E+01  0.13575185204E+02  0.33396874753E+03  0.34319161879E+03  0.77312779853E+02 0.  0.
          5    1    3    3  501    0 -0.51685226958E+02 -0.34264296204E+01  0.93498724592E+02  0.10699160998E+03  0.47000000000E+01 0. -1.
        -11    1    4    4    0    0 -0.22996243542E+02  0.35308753377E+02  0.10871124763E+03  0.11659189785E+03  0.00000000000E+00 0.  1.
         12    1    4    4    0    0  0.76351131776E+02  0.56362405126E+02  0.20187187900E+03  0.22306606996E+03  0.00000000000E+00 0. -1.
         -5    1    5    5    0  502 -0.10824512331E+02 -0.10181991409E+03  0.90603886567E+03  0.91181850227E+03  0.47000000000E+01 0.  1.
         13    1    6    6    0    0  0.33599443534E+02  0.14389452853E+02  0.29449652715E+03  0.29675610097E+03  0.00000000000E+00 0. -1.
        -14    1    6    6    0    0 -0.24444592480E+02 -0.81426764883E+00  0.39472220376E+02  0.46435517815E+02  0.00000000000E+00 0.  1.
</event>
<event>
12    1  0.8526130E-002  0.2448456E+03  0.7818608E-02  0.1116762E+00
         21   -1    0    0  501  502  0.00000000000E+00  0.00000000000E+00  0.34583402961E+03  0.34583402961E+03  0.00000000000E+00 0. -1.
         21   -1    0    0  502  503 -0.00000000000E+00 -0.00000000000E+00 -0.17279455408E+03  0.17279455408E+03  0.00000000000E+00 0. -1.
         -6    2    1    2    0  503 -0.30297753717E+02  0.16974491363E+03  0.93303146858E+02  0.26112663320E+03  0.17248290284E+03 0.  0.
        -24    2    3    3    0    0 -0.46957567079E+02  0.15566581560E+03  0.12688611886E+03  0.22080695574E+03  0.78859148431E+02 0.  0.
          6    2    1    2  501    0  0.30297753717E+02 -0.16974491363E+03  0.79736328666E+02  0.25750195049E+03  0.17383349164E+03 0.  0.
         24    2    5    5    0    0  0.48661606853E+02 -0.14385964799E+03  0.69974479934E+00  0.17220160074E+03  0.81174819698E+02 0.  0.
          5    1    5    5  501    0 -0.18363853137E+02 -0.25885265638E+02  0.79036583867E+02  0.85300349756E+02  0.47000000000E+01 0. -1.
        -11    1    6    6    0    0  0.69522925996E+02 -0.91881003243E+02  0.90472947795E+01  0.11557425985E+03  0.00000000000E+00 0.  1.
         12    1    6    6    0    0 -0.20861319142E+02 -0.51978644744E+02 -0.83475499802E+01  0.56627340892E+02  0.00000000000E+00 0. -1.
         -5    1    3    3    0  503  0.16659813362E+02  0.14079098028E+02 -0.33582971998E+02  0.40319677464E+02  0.47000000000E+01 0.  1.
         11    1    4    4    0    0 -0.81052936166E+01  0.12720859360E+03  0.11386614864E+03  0.17091875812E+03  0.00000000000E+00 0. -1.
        -12    1    4    4    0    0 -0.38852273462E+02  0.28457221994E+02  0.13019970214E+02  0.49888197614E+02  0.00000000000E+00 0.  1.
</event>
<event>
12    1  0.8526130E-002  0.2082857E+03  0.7818608E-02  0.1142992E+00
         21   -1    0    0  503  502  0.00000000000E+00  0.00000000000E+00  0.88802977340E+03  0.88802977340E+03  0.00000000000E+00 0.  1.
         21   -1    0    0  501  503 -0.00000000000E+00 -0.00000000000E+00 -0.42951626921E+03  0.42951626921E+03  0.00000000000E+00 0.  1.
          6    2    1    2  501    0  0.11689204784E+03 -0.12082806743E+02 -0.39099907275E+03  0.44287208547E+03  0.17159738963E+03 0.  0.
         24    2    3    3    0    0  0.59368716110E+02  0.93223074118E+01 -0.10976863741E+03  0.15498363421E+03  0.91428787846E+02 0.  0.
         -6    2    1    2    0  502 -0.11689204784E+03  0.12082806743E+02  0.84951257694E+03  0.87467395714E+03  0.17196850833E+03 0.  0.
        -24    2    5    5    0    0 -0.17537090805E+02  0.32468677372E+02  0.58314050765E+03  0.58960701675E+03  0.78878501334E+02 0.  0.
          5    1    3    3  501    0  0.57523331725E+02 -0.21405114154E+02 -0.28123043534E+03  0.28788845125E+03  0.47000000000E+01 0. -1.
        -13    1    4    4    0    0  0.40531139857E+02 -0.36608997355E+02 -0.33790515397E+02  0.64224535157E+02  0.00000000000E+00 0.  1.
         14    1    4    4    0    0  0.18837576253E+02  0.45931304767E+02 -0.75978122013E+02  0.90759099055E+02  0.00000000000E+00 0. -1.
         -5    1    5    5    0  502 -0.99354957031E+02 -0.20385870630E+02  0.26637206929E+03  0.28506694039E+03  0.47000000000E+01 0.  1.
         13    1    6    6    0    0  0.28673314543E+02  0.42163869361E+01  0.29499478139E+03  0.29641500963E+03  0.00000000000E+00 0. -1.
        -14    1    6    6    0    0 -0.46210405348E+02  0.28252290436E+02  0.28814572626E+03  0.29319200712E+03  0.00000000000E+00 0.  1.
</event>
<event>
12    1  0.8526130E-002  0.1880318E+03  0.7818608E-02  0.1160327E+00
         21   -1    0    0  503  502  0.00000000000E+00  0.00000000000E+00  0.24235714590E+02  0.24235714590E+02  0.00000000000E+00 0. -1.
         21   -1    0    0  501  503 -0.00000000000E+00 -0.00000000000E+00 -0.15837361433E+04  0.15837361433E+04  0.00000000000E+00 0. -1.
          6    2    1    2  501    0 -0.28151182726E+01 -0.75542566943E+02 -0.10072646212E+04  0.10246020541E+04  0.17179274709E+03 0.  0.
         24    2    3    3    0    0 -0.24480410262E+02  0.18848247070E+02 -0.57179433720E+03  0.57846814053E+03  0.81988283578E+02 0.  0.
         -6    2    1    2    0  502  0.28151182726E+01  0.75542566943E+02 -0.55223580760E+03  0.58336980382E+03  0.17216659520E+03 0.  0.
        -24    2    5    5    0    0 -0.79925478399E+01  0.47013919214E+02 -0.12614182717E+03  0.15615924737E+03  0.78738558251E+02 0.  0.
          5    1    3    3  501    0  0.21665291990E+02 -0.94390814013E+02 -0.43547028395E+03  0.44613391359E+03  0.47000000000E+01 0. -1.
        -11    1    4    4    0    0  0.11300012980E+02  0.55993766670E+01 -0.12107920198E+02  0.17482706996E+02  0.00000000000E+00 0.  1.
         12    1    4    4    0    0 -0.35780423242E+02  0.13248870403E+02 -0.55968641701E+03  0.56098543353E+03  0.00000000000E+00 0. -1.
         -5    1    5    5    0  502  0.10807666113E+02  0.28528647729E+02 -0.42609398042E+03  0.42721055645E+03  0.47000000000E+01 0.  1.
         13    1    6    6    0    0  0.26429122552E+02  0.23685820222E+02 -0.10217906471E+03  0.10816689819E+03  0.00000000000E+00 0. -1.
        -14    1    6    6    0    0 -0.34421670391E+02  0.23328098992E+02 -0.23962762463E+02  0.47992349182E+02  0.00000000000E+00 0.  1.
</event>
<event>
12    1  0.8526130E-002  0.1997596E+03  0.7818608E-02  0.1150185E+00
         21   -1    0    0  501  502  0.00000000000E+00  0.00000000000E+00  0.49240081462E+03  0.49240081462E+03  0.00000000000E+00 0. -1.
         21   -1    0    0  502  503 -0.00000000000E+00 -0.00000000000E+00 -0.19429141914E+03  0.19429141914E+03  0.00000000000E+00 0. -1.
         -6    2    1    2    0  503 -0.95790772765E+02  0.31378057302E+02 -0.11344029626E+03  0.22972287580E+03  0.17246287782E+03 0.  0.
        -24    2    3    3    0    0 -0.58146176490E+02  0.65426700934E+02 -0.13027668079E+03  0.17603880362E+03  0.79724624729E+02 0.  0.
          6    2    1    2  501    0  0.95790772765E+02 -0.31378057302E+02  0.41154969174E+03  0.45696935795E+03  0.17113559159E+03 0.  0.
         24    2    5    5    0    0  0.67802099011E+02 -0.20740945515E+02  0.10651282917E+03  0.15043046722E+03  0.79101398464E+02 0.  0.
          5    1    5    5  501    0  0.27988673753E+02 -0.10637111787E+02  0.30503686257E+03  0.30653889073E+03  0.47000000000E+01 0. -1.
        -13    1    6    6    0    0  0.10987928764E+01 -0.22396962261E+02  0.71793763941E+02  0.75214199491E+02  0.00000000000E+00 0.  1.
         14    1    6    6    0    0  0.66703306135E+02  0.16560167458E+01  0.34719065234E+02  0.75216267732E+02  0.00000000000E+00 0. -1.
         -5    1    3    3    0  503 -0.37644596274E+02 -0.34048643632E+02  0.16836384531E+02  0.53684072181E+02  0.47000000000E+01 0.  1.
         13    1    4    4    0    0 -0.38452190315E+02 -0.11751589751E+01 -0.84534004485E+02  0.92875991800E+02  0.00000000000E+00 0. -1.
        -14    1    4    4    0    0 -0.19693986175E+02  0.66601859909E+02 -0.45742676304E+02  0.83162811823E+02  0.00000000000E+00 0.  1.
</event>
<event>
12    1  0.8526130E-002  0.2016402E+03  0.7818608E-02  0.1148610E+00
         21   -1    0    0  501  502  0.00000000000E+00  0.00000000000E+00  0.83377399931E+02  0.83377399931E+02  0.00000000000E+00 0. -1.
         21   -1    0    0  502  503 -0.00000000000E+00 -0.00000000000E+00 -0.53635327460E+03  0.53635327460E+03  0.00000000000E+00 0. -1.
         -6    2    1    2    0  503 -0.90366823051E+02  0.53705211429E+02 -0.32196325897E+03  0.37926636093E+03  0.17068163336E+03 0.  0.
        -24    2    3    3    0    0  0.75744323404E+01  0.55072155814E+02 -0.11542902732E+03  0.15063382413E+03  0.79223571310E+02 0.  0.
          6    2    1    2  501    0  0.90366823051E+02 -0.53705211429E+02 -0.13101261570E+03  0.24046431360E+03  0.17207082321E+03 0.  0.
         24    2    5    5    0    0  0.31267075629E+02  0.36366855529E+02 -0.72857770432E+02  0.11794968827E+03  0.79395818852E+02 0.  0.
          5    1    5    5  501    0  0.59099747422E+02 -0.90072066958E+02 -0.58154845272E+02  0.12251462533E+03  0.47000000000E+01 0. -1.
        -13    1    6    6    0    0  0.57782919515E+02  0.26049928243E+02 -0.42330007746E+02  0.76218725422E+02  0.00000000000E+00 0.  1.
         14    1    6    6    0    0 -0.26515843886E+02  0.10316927285E+02 -0.30527762686E+02  0.41730962848E+02  0.00000000000E+00 0. -1.
         -5    1    3    3    0  503 -0.97941255391E+02 -0.13669443852E+01 -0.20653423164E+03  0.22863253680E+03  0.47000000000E+01 0.  1.
         11    1    4    4    0    0 -0.16312522436E+02  0.18667854424E+02 -0.10214597646E+03  0.10511131092E+03  0.00000000000E+00 0. -1.
        -12    1    4    4    0    0  0.23886954776E+02  0.36404301391E+02 -0.13283050863E+02  0.45522513204E+02  0.00000000000E+00 0.  1.
</event>
<event>
12    1  0.8526130E-002  0.1780443E+03  0.7818608E-02  0.1169933E+00
         21   -1    0    0  501  502  0.00000000000E+00  0.00000000000E+00  0.28549633368E+03  0.28549633368E+03  0.00000000000E+00 0.  1.
         21   -1    0    0  502  503 -0.00000000000E+00 -0.00000000000E+00 -0.14241472854E+03  0.14241472854E+03  0.00000000000E+00 0.  1.
         -6    2    1    2    0  503  0.43220574635E+02  0.10527435893E+02 -0.29651205273E+02  0.18049645901E+03  0.17239760080E+03 0.  0.
        -24    2    3    3    0    0 -0.74950525832E+01 -0.11609204793E+02  0.38779513529E+02  0.92366106801E+02  0.82684324795E+02 0.  0.
          6    2    1    2  501    0 -0.43220574635E+02 -0.10527435893E+02  0.17273281041E+03  0.24741460322E+03  0.17145995775E+03 0.  0.
         24    2    5    5    0    0 -0.56165144818E+02  0.13750553244E+01  0.29552074456E+02  0.10308150118E+03  0.81216109922E+02 0.  0.
          5    1    5    5  501    0  0.12944570183E+02 -0.11902491218E+02  0.14318073596E+03  0.14433310204E+03  0.47000000000E+01 0. -1.
        -11    1    6    6    0    0 -0.56349014882E+02 -0.75997602387E+01  0.53150873564E+02  0.77833046930E+02  0.00000000000E+00 0.  1.
         12    1    6    6    0    0  0.18387006407E+00  0.89748155631E+01 -0.23598799107E+02  0.25248454248E+02  0.00000000000E+00 0. -1.
         -5    1    3    3    0  503  0.50715627218E+02  0.22136640687E+02 -0.68430718802E+02  0.88130352211E+02  0.47000000000E+01 0.  1.
         13    1    4    4    0    0 -0.13079935291E+02  0.21040640049E+02  0.51288502643E+02  0.56958789877E+02  0.00000000000E+00 0. -1.
        -14    1    4    4    0    0  0.55848827080E+01 -0.32649844842E+02 -0.12508989114E+02  0.35407316924E+02  0.00000000000E+00 0.  1.
</event>
<event>
12    1  0.8526130E-002  0.1888031E+03  0.7818608E-02  0.1160085E+00
         21   -1    0    0  503  502  0.00000000000E+00  0.00000000000E+00  0.59419852141E+03  0.59419852141E+03  0.00000000000E+00 0.  1.
         21   -1    0    0  501  503 -0.00000000000E+00 -0.00000000000E+00 -0.16670285966E+03  0.16670285966E+03  0.00000000000E+00 0.  1.
          6    2    1    2  501    0 -0.17454044612E+02  0.72739367354E+02 -0.92182772887E+02  0.20798881917E+03  0.17078063721E+03 0.  0.
         24    2    3    3    0    0  0.31974632701E+02  0.78362382972E+02 -0.18157147356E+02  0.11867647019E+03  0.81187328904E+02 0.  0.
         -6    2    1    2    0  502  0.17454044612E+02 -0.72739367354E+02  0.51967843463E+03  0.55291256190E+03  0.17335214577E+03 0.  0.
        -24    2    5    5    0    0  0.32684459316E+02 -0.66422053919E+02  0.52058391748E+03  0.53574329050E+03  0.10263086791E+03 0.  0.
          5    1    3    3  501    0 -0.49428677313E+02 -0.56230156180E+01 -0.74025625531E+02  0.89312348983E+02  0.47000000000E+01 0. -1.
        -11    1    4    4    0    0  0.74118672428E+01  0.87729356493E+02 -0.24970216023E+01  0.88077300615E+02  0.00000000000E+00 0.  1.
         12    1    4    4    0    0  0.24562765458E+02 -0.93669735210E+01 -0.15660125753E+02  0.30599169572E+02  0.00000000000E+00 0. -1.
         -5    1    5    5    0  502 -0.15230414704E+02 -0.63173134350E+01 -0.90548284880E+00  0.17169271396E+02  0.47000000000E+01 0.  1.
         13    1    6    6    0    0 -0.22910299190E+02  0.15386746556E+02  0.11880585142E+03  0.12196911129E+03  0.00000000000E+00 0. -1.
        -14    1    6    6    0    0  0.55594758506E+02 -0.81808800476E+02  0.40177806606E+03  0.41377417921E+03  0.00000000000E+00 0.  1.
</event>
<event>
12    1  0.8526130E-002  0.1813774E+03  0.7818608E-02  0.1167075E+00
         21   -1    0    0  503  502  0.00000000000E+00  0.00000000000E+00  0.98480172537E+03  0.98480172537E+03  0.00000000000E+00 0. -1.
         21   -1    0    0  501  503 -0.00000000000E+00 -0.00000000000E+00 -0.50694824153E+02  0.50694824153E+02  0.00000000000E+00 0. -1.
          6    2    1    2  501    0 -0.48591532730E+02  0.31876059537E+02  0.16283393041E+03  0.24374707778E+03  0.17181539166E+03 0.  0.
         24    2    3    3    0    0 -0.69365222095E+02  0.69632463795E+02  0.15257106153E+03  0.19919925281E+03  0.82110897273E+02 0.  0.
         -6    2    1    2    0  502  0.48591532730E+02 -0.31876059537E+02  0.77127297081E+03  0.79174947174E+03  0.16919813911E+03 0.  0.
        -24    2    5    5    0    0 -0.23062776916E+02 -0.94073839850E+01  0.56617344570E+03  0.57328417319E+03  0.86498451202E+02 0.  0.
          5    1    3    3  501    0  0.20773689365E+02 -0.37756404258E+02  0.10262868873E+02  0.44547824973E+02  0.47000000000E+01 0. -1.
        -11    1    4    4    0    0 -0.41970746453E+02  0.43976604254E+02  0.14968236630E+03  0.16155586050E+03  0.00000000000E+00 0.  1.
         12    1    4    4    0    0 -0.27394475642E+02  0.25655859540E+02  0.28886952328E+01  0.37643392310E+02  0.00000000000E+00 0. -1.
         -5    1    5    5    0  502  0.71654309647E+02 -0.22468675552E+02  0.20509952511E+03  0.21846529856E+03  0.47000000000E+01 0.  1.
         13    1    6    6    0    0 -0.25033742424E+02 -0.46458169353E+02  0.31675926510E+03  0.32112533656E+03  0.00000000000E+00 0. -1.
        -14    1    6    6    0    0  0.19709655075E+01  0.37050785368E+02  0.24941418060E+03  0.25215883662E+03  0.00000000000E+00 0.  1.
</event>
<event>
12    1  0.8526130E-002  0.1802010E+03  0.7818608E-02  0.1167768E+00
         21   -1    0    0  501  502  0.00000000000E+00  0.00000000000E+00  0.35591342468E+03  0.35591342468E+03  0.00000000000E+00 0.  1.
         21   -1    0    0  502  503 -0.00000000000E+00 -0.00000000000E+00 -0.95450040601E+02  0.95450040601E+02  0.00000000000E+00 0.  1.
         -6    2    1    2    0  503  0.48656019126E+02 -0.36486736008E+01  0.81209219872E+02  0.19765454947E+03  0.17346948584E+03 0.  0.
        -24    2    3    3    0    0 -0.20779928850E+02 -0.23209055894E+02 -0.35323212789E+01  0.86267035702E+02  0.80368267598E+02 0.  0.
          6    2    1    2  501    0 -0.48656019126E+02  0.36486736008E+01  0.17925416421E+03  0.25370891581E+03  0.17278726099E+03 0.  0.
         24    2    5    5    0    0 -0.70095442230E+02  0.15297861708E+02  0.41721590325E+02  0.11394965377E+03  0.78079683028E+02 0.  0.
          5    1    5    5  501    0  0.21439423104E+02 -0.11649188107E+02  0.13753257389E+03  0.13975926204E+03  0.47000000000E+01 0. -1.
        -13    1    6    6    0    0 -0.58605539043E+02  0.22077894439E+02  0.63002074094E+02  0.88833011711E+02  0.00000000000E+00 0.  1.
         14    1    6    6    0    0 -0.11489903187E+02 -0.67800327314E+01 -0.21280483769E+02  0.25116642063E+02  0.00000000000E+00 0. -1.
         -5    1    3    3    0  503  0.69435947976E+02  0.19560382293E+02  0.84741541151E+02  0.11138751377E+03  0.47000000000E+01 0.  1.
         13    1    4    4    0    0  0.59071200121E+00  0.28828125678E+02  0.53182291161E+01  0.29320527480E+02  0.00000000000E+00 0. -1.
        -14    1    4    4    0    0 -0.21370640851E+02 -0.52037181572E+02 -0.88505503950E+01  0.56946508222E+02  0.00000000000E+00 0.  1.
</event>
<event>
12    1  0.8526130E-002  0.1784128E+03  0.7818608E-02  0.1169625E+00
         21   -1    0    0  501  502  0.00000000000E+00  0.00000000000E+00  0.11288056700E+03  0.11288056700E+03  0.00000000000E+00 0. -1.
         21   -1    0    0  502  503 -0.00000000000E+00 -0.00000000000E+00 -0.34623985193E+03  0.34623985193E+03  0.00000000000E+00 0. -1.
         -6    2    1    2    0  503  0.30887870577E+02  0.33332756622E+02 -0.16730973372E+02  0.17919559136E+03  0.17252826226E+03 0.  0.
        -24    2    3    3    0    0 -0.93511225952E+01 -0.34181309038E+02 -0.36417636452E+02  0.98035377355E+02  0.83838449336E+02 0.  0.
          6    2    1    2  501    0 -0.30887870577E+02 -0.33332756622E+02 -0.21662831156E+03  0.27992482757E+03  0.17136204513E+03 0.  0.
         24    2    5    5    0    0  0.11768187856E+02  0.24945120275E+02 -0.49592346944E+02  0.97883750532E+02  0.79756369475E+02 0.  0.
          5    1    5    5  501    0 -0.42656058433E+02 -0.58277876896E+02 -0.16703596461E+03  0.18204107704E+03  0.47000000000E+01 0. -1.
        -11    1    6    6    0    0 -0.22933496396E+02 -0.18007105979E+02 -0.17989670045E+02  0.34261193076E+02  0.00000000000E+00 0.  1.
         12    1    6    6    0    0  0.34701684252E+02  0.42952226253E+02 -0.31602676899E+02  0.63622557456E+02  0.00000000000E+00 0. -1.
         -5    1    3    3    0  503  0.40238993172E+02  0.67514065660E+02  0.19686663079E+02  0.81160214000E+02  0.47000000000E+01 0.  1.
         11    1    4    4    0    0 -0.42699038110E+02 -0.30790889853E+02 -0.63839194070E+01  0.53028682620E+02  0.00000000000E+00 0. -1.
        -12    1    4    4    0    0  0.33347915514E+02 -0.33904191843E+01 -0.30033717045E+02  0.45006694735E+02  0.00000000000E+00 0.  1.
</event>
<event>
12    1  0.8526130E-002  0.2034645E+03  0.7818608E-02  0.1146863E+00
         21   -1    0    0  501  502  0.00000000000E+00  0.00000000000E+00  0.27388596014E+03  0.27388596014E+03  0.00000000000E+00 0.  1.
         21   -1    0    0  502  503 -0.00000000000E+00 -0.00000000000E+00 -0.89786360052E+03  0.89786360052E+03  0.00000000000E+00 0.  1.
         -6    2    1    2    0  503  0.93519054798E+02  0.56081039048E+02 -0.84630603749E+03  0.87042043092E+03  0.17177578676E+03 0.  0.
        -24    2    3    3    0    0 -0.13650584264E+02  0.48617191547E+02 -0.42139436984E+03  0.43211339714E+03  0.81233018466E+02 0.  0.
          6    2    1    2  501    0 -0.93519054798E+02 -0.56081039048E+02  0.22232839711E+03  0.30132912975E+03  0.17169284121E+03 0.  0.
         24    2    5    5    0    0 -0.88023991282E+02 -0.10083916158E+03  0.18611531599E+03  0.24330359658E+03  0.81492145102E+02 0.  0.
          5    1    5    5  501    0 -0.54950635162E+01  0.44758122529E+02  0.36213081125E+02  0.58025533173E+02  0.47000000000E+01 0. -1.
        -13    1    6    6    0    0 -0.80880147606E+02 -0.59059233474E+02  0.17125436384E+03  0.19838762176E+03  0.00000000000E+00 0.  1.
         14    1    6    6    0    0 -0.71438436756E+01 -0.41779928103E+02  0.14860952151E+02  0.44915974815E+02  0.00000000000E+00 0. -1.
         -5    1    3    3    0  503  0.10716963906E+03  0.74638475017E+01 -0.42491166765E+03  0.43830703379E+03  0.47000000000E+01 0.  1.
         11    1    4    4    0    0  0.26438441649E+02  0.47567870382E+02 -0.20919979196E+03  0.21616254635E+03  0.00000000000E+00 0. -1.
        -12    1    4    4    0    0 -0.40089025913E+02  0.10493211648E+01 -0.21219457787E+03  0.21595085078E+03  0.00000000000E+00 0.  1.
</event>
<event>
12    1  0.8526130E-002  0.2003325E+03  0.7818608E-02  0.1150088E+00
         21   -1    0    0  503  502  0.00000000000E+00  0.00000000000E+00  0.59320792203E+02  0.59320792203E+02  0.00000000000E+00 0.  1.
         21   -1    0    0  501  503 -0.00000000000E+00 -0.00000000000E+00 -0.91374073897E+03  0.91374073897E+03  0.00000000000E+00 0.  1.
          6    2    1    2  501    0 -0.43532305011E+02  0.85603045391E+02 -0.68257063673E+03  0.71136192942E+03  0.17581290493E+03 0.  0.
         24    2    3    3    0    0 -0.59148352157E+02 -0.68413175550E+01 -0.43180627780E+03  0.44360331634E+03  0.82352349880E+02 0.  0.
         -6    2    1    2    0  502  0.43532305011E+02 -0.85603045391E+02 -0.17184931003E+03  0.26169960175E+03  0.17242840032E+03 0.  0.
        -24    2    5    5    0    0  0.23464560656E+02  0.22318296030E+02 -0.50015242607E+02  0.97640587113E+02  0.77352878513E+02 0.  0.
          5    1    3    3  501    0  0.15616047146E+02  0.92444362946E+02 -0.25076435893E+03  0.26775861308E+03  0.47000000000E+01 0. -1.
        -13    1    4    4    0    0 -0.50661332371E+01  0.28983614134E+02 -0.68514784260E+02  0.74565348899E+02  0.00000000000E+00 0.  1.
         14    1    4    4    0    0 -0.54082218919E+02 -0.35824931689E+02 -0.36329149354E+03  0.36903796744E+03  0.00000000000E+00 0. -1.
         -5    1    5    5    0  502  0.20067744354E+02 -0.10792134142E+03 -0.12183406742E+03  0.16405901463E+03  0.47000000000E+01 0.  1.
         13    1    6    6    0    0 -0.98794376056E+01 -0.60402242173E+01 -0.52534639628E+02  0.53795687158E+02  0.00000000000E+00 0. -1.
        -14    1    6    6    0    0  0.33343998262E+02  0.28358520247E+02  0.25193970209E+01  0.43844899955E+02  0.00000000000E+00 0.  1.
</event>
<event>
12    1  0.8526130E-002  0.1840609E+03  0.7818608E-02  0.1164129E+00
         21   -1    0    0  501  502  0.00000000000E+00  0.00000000000E+00  0.36580326834E+03  0.36580326834E+03  0.00000000000E+00 0.  1.
         21   -1    0    0  502  503 -0.00000000000E+00 -0.00000000000E+00 -0.15149536600E+03  0.15149536600E+03  0.00000000000E+00 0.  1.
         -6    2    1    2    0  503 -0.44129201769E+02 -0.47178404387E+02  0.26883501787E+03  0.32533086128E+03  0.17144886754E+03 0.  0.
        -24    2    3    3    0    0  0.64974072568E+01 -0.60517598804E+02  0.24963947040E+03  0.26937063709E+03  0.80846019549E+02 0.  0.
          6    2    1    2  501    0  0.44129201769E+02  0.47178404387E+02 -0.54527115534E+02  0.19196777306E+03  0.17235205620E+03 0.  0.
         24    2    5    5    0    0  0.76571458470E+02  0.67505400961E+02 -0.65127887398E+01  0.13037919955E+03  0.80846470843E+02 0.  0.
          5    1    5    5  501    0 -0.32442256700E+02 -0.20326996573E+02 -0.48014326794E+02  0.61588573510E+02  0.47000000000E+01 0. -1.
        -11    1    6    6    0    0  0.88729802887E+01  0.34122948948E+02 -0.35019698322E+02  0.49693910037E+02  0.00000000000E+00 0.  1.
         12    1    6    6    0    0  0.67698478181E+02  0.33382452012E+02  0.28506909583E+02  0.80685289516E+02  0.00000000000E+00 0. -1.
         -5    1    3    3    0  503 -0.50626609026E+02  0.13339194417E+02  0.19195547469E+02  0.55960224194E+02  0.47000000000E+01 0.  1.
         13    1    4    4    0    0  0.22523362705E+02 -0.31819069238E+01  0.16097129917E+03  0.16257055562E+03  0.00000000000E+00 0. -1.
        -14    1    4    4    0    0 -0.16025955448E+02 -0.57335691880E+02  0.88668171234E+02  0.10680008147E+03  0.00000000000E+00 0.  1.
</event>
<event>
12    1  0.8526130E-002  0.1747714E+03  0.7818608E-02  0.1174311E+00
         21   -1    0    0  503  502  0.00000000000E+00  0.00000000000E+00  0.46629191548E+03  0.46629191548E+03  0.00000000000E+00 0. -1.
         21   -1    0    0  501  503 -0.00000000000E+00 -0.00000000000E+00 -0.67807754426E+02  0.67807754426E+02  0.00000000000E+00 0. -1.
          6    2    1    2  501    0 -0.13349638839E+02 -0.19386983260E+02  0.13513913380E+03  0.22092452192E+03  0.17317907185E+03 0.  0.
         24    2    3    3    0    0 -0.37066390450E+02 -0.14649554170E+02  0.16176778302E+03  0.18464639490E+03  0.79604954546E+02 0.  0.
         -6    2    1    2    0  502  0.13349638839E+02  0.19386983260E+02  0.26334502726E+03  0.31317514799E+03  0.16785113035E+03 0.  0.
        -24    2    5    5    0    0  0.23687752209E+02 -0.50633926544E+02  0.18284166606E+03  0.20587796461E+03  0.76352847622E+02 0.  0.
          5    1    3    3  501    0  0.23716751611E+02 -0.47374290900E+01 -0.26628649216E+02  0.36278127025E+02  0.47000000000E+01 0. -1.
        -11    1    4    4    0    0 -0.16510807445E+02  0.29670336163E+02  0.34878239055E+02  0.48676762116E+02  0.00000000000E+00 0.  1.
         12    1    4    4    0    0 -0.20555583004E+02 -0.44319890334E+02  0.12688954396E+03  0.13596963278E+03  0.00000000000E+00 0. -1.
         -5    1    5    5    0  502 -0.10338113369E+02  0.70020909804E+02  0.80503361192E+02  0.10729718338E+03  0.47000000000E+01 0.  1.
         11    1    6    6    0    0  0.19072681795E+02  0.15528786774E+02  0.27069313285E+02  0.36574008958E+02  0.00000000000E+00 0. -1.
        -12    1    6    6    0    0  0.46150704140E+01 -0.66162713317E+02  0.15577235278E+03  0.16930395565E+03  0.00000000000E+00 0.  1.
</event>
<event>
12    1  0.8526130E-002  0.1881723E+03  0.7818608E-02  0.1160708E+00
         21   -1    0    0  501  502  0.00000000000E+00  0.00000000000E+00  0.14771014345E+03  0.14771014345E+03  0.00000000000E+00 0.  1.
         21   -1    0    0  502  503 -0.00000000000E+00 -0.00000000000E+00 -0.24742145889E+03  0.24742145889E+03  0.00000000000E+00 0.  1.
         -6    2    1    2    0  503 -0.72382227623E+02 -0.19052745538E+02 -0.91738204271E+02  0.20934354949E+03  0.17264596607E+03 0.  0.
        -24    2    3    3    0    0 -0.11352835577E+02  0.26490773959E+02 -0.10210079003E+03  0.13234827661E+03  0.79125514313E+02 0.  0.
          6    2    1    2  501    0  0.72382227623E+02  0.19052745538E+02 -0.79731111671E+01  0.18578805285E+03  0.16985710492E+03 0.  0.
         24    2    5    5    0    0  0.93788805355E+02 -0.41393485911E+02 -0.11320350661E+02  0.12140418469E+03  0.64039558373E+02 0.  0.
          5    1    5    5  501    0 -0.21406577732E+02  0.60446231449E+02  0.33472394939E+01  0.64383868157E+02  0.47000000000E+01 0. -1.
        -13    1    6    6    0    0  0.33416628920E+02 -0.32422435336E+02  0.22405540346E+02  0.51671013534E+02  0.00000000000E+00 0.  1.
         14    1    6    6    0    0  0.60372176435E+02 -0.89710505755E+01 -0.33725891007E+02  0.69733171161E+02  0.00000000000E+00 0. -1.
         -5    1    3    3    0  503 -0.61029392046E+02 -0.45543519497E+02  0.10362585763E+02  0.76995272877E+02  0.47000000000E+01 0.  1.
         11    1    4    4    0    0  0.19192903117E+02 -0.19605003107E+02 -0.46101626363E+02  0.53647773767E+02  0.00000000000E+00 0. -1.
        -12    1    4    4    0    0 -0.30545738694E+02  0.46095777066E+02 -0.55999163671E+02  0.78700502842E+02  0.00000000000E+00 0.  1.
</event>
<event>
12    1  0.8526130E-002  0.2170360E+03  0.7818608E-02  0.1136390E+00
         21   -1    0    0  503  502  0.00000000000E+00  0.00000000000E+00  0.92364432050E+03  0.92364432050E+03  0.00000000000E+00 0. -1.
         21   -1    0    0  501  503 -0.00000000000E+00 -0.00000000000E+00 -0.10169169786E+03  0.10169169786E+03  0.00000000000E+00 0.  1.
          6    2    1    2  501    0 -0.12220085360E+03 -0.48052289857E+02  0.48481461041E+02  0.22238493509E+03  0.17280780106E+03 0.  0.
         24    2    3    3    0    0 -0.10272680474E+03 -0.97164525237E+02  0.44444917280E+02  0.16919063155E+03  0.81586627316E+02 0.  0.
         -6    2    1    2    0  502  0.12220085360E+03  0.48052289857E+02  0.77347116160E+03  0.80295108328E+03  0.17096997729E+03 0.  0.
        -24    2    5    5    0    0  0.14824573092E+03  0.29149354441E+02  0.72181432718E+03  0.74190867880E+03  0.81154686632E+02 0.  0.
          5    1    3    3  501    0 -0.19474048865E+02  0.49112235380E+02  0.40365437605E+01  0.53194303536E+02  0.47000000000E+01 0. -1.
        -13    1    4    4    0    0 -0.18447443798E+02 -0.53854013171E+02  0.47861281073E+02  0.74372475710E+02  0.00000000000E+00 0.  1.
         14    1    4    4    0    0 -0.84279360939E+02 -0.43310512066E+02 -0.34163637926E+01  0.94818155842E+02  0.00000000000E+00 0. -1.
         -5    1    5    5    0  502 -0.26044877322E+02  0.18902935416E+02  0.51656834418E+02  0.61042404476E+02  0.47000000000E+01 0.  1.
         11    1    6    6    0    0  0.55183740599E+02 -0.41599475661E+01  0.43572878373E+03  0.43922901015E+03  0.00000000000E+00 0. -1.
        -12    1    6    6    0    0  0.93061990325E+02  0.33309302007E+02  0.28608554345E+03  0.30267966865E+03  0.00000000000E+00 0.  1.
</event>
<event>
12    1  0.8526130E-002  0.1874397E+03  0.7818608E-02  0.1161016E+00
         21   -1    0    0  503  502  0.00000000000E+00  0.00000000000E+00  0.40163227501E+02  0.40163227501E+02  0.00000000000E+00 0. -1.
         21   -1    0    0  501  503 -0.00000000000E+00 -0.00000000000E+00 -0.87040914088E+03  0.87040914088E+03  0.00000000000E+00 0. -1.
          6    2    1    2  501    0  0.23650972298E-01  0.70580025083E+02 -0.40718340051E+03  0.44784619270E+03  0.17258722479E+03 0.  0.
         24    2    3    3    0    0  0.34454039920E+01  0.25807488358E+02 -0.39040094956E+03  0.39967951232E+03  0.81565396373E+02 0.  0.
         -6    2    1    2    0  502 -0.23650972298E-01 -0.70580025083E+02 -0.42306251287E+03  0.46272617569E+03  0.17364355263E+03 0.  0.
        -24    2    5    5    0    0 -0.27361103789E+02 -0.10961910137E+03 -0.32512885629E+03  0.35371022779E+03  0.81468857035E+02 0.  0.
          5    1    3    3  501    0 -0.34217530197E+01  0.44772536725E+02 -0.16782450948E+02  0.48166680375E+02  0.47000000000E+01 0. -1.
        -11    1    4    4    0    0 -0.35588483891E+02  0.12849386053E+02 -0.11109369576E+03  0.11736036871E+03  0.00000000000E+00 0.  1.
         12    1    4    4    0    0  0.39033887883E+02  0.12958102305E+02 -0.27930725381E+03  0.28231914361E+03  0.00000000000E+00 0. -1.
         -5    1    5    5    0  502  0.27337452817E+02  0.39039076290E+02 -0.97933656584E+02  0.10901594790E+03  0.47000000000E+01 0.  1.
         11    1    6    6    0    0 -0.11164412230E+02 -0.11361657257E+03 -0.31275334986E+03  0.33293847407E+03  0.00000000000E+00 0. -1.
        -12    1    6    6    0    0 -0.16196691559E+02  0.39974712010E+01 -0.12375506423E+02  0.20771753722E+02  0.00000000000E+00 0.  1.
</event>
<event>
12    1  0.8526130E-002  0.2377929E+03  0.7818608E-02  0.1124491E+00
         21   -1    0    0  501  502  0.00000000000E+00  0.00000000000E+00  0.93304428247E+03  0.93304428247E+03  0.00000000000E+00 0.  1.
         21   -1    0    0  502  503 -0.00000000000E+00 -0.00000000000E+00 -0.56724080054E+02  0.56724080054E+02  0.00000000000E+00 0.  1.
         -6    2    1    2    0  503 -0.95117810971E+02  0.12267087308E+03  0.36611768676E+03  0.42687222644E+03  0.15518439382E+03 0.  0.
        -24    2    3    3    0    0 -0.21437380453E+02  0.74984173585E+02  0.28581902885E+03  0.30782269216E+03  0.83547022622E+02 0.  0.
          6    2    1    2  501    0  0.95117810971E+02 -0.12267087308E+03  0.51020251566E+03  0.56289613608E+03  0.18013859099E+03 0.  0.
         24    2    5    5    0    0  0.62433421663E+02 -0.25789585749E+02  0.11787681044E+03  0.15743861411E+03  0.79554634701E+02 0.  0.
          5    1    5    5  501    0  0.32684389308E+02 -0.96881287334E+02  0.39232570523E+03  0.40545752197E+03  0.47000000000E+01 0. -1.
        -13    1    6    6    0    0  0.59055515537E+02 -0.26354550061E+02  0.12980836015E+03  0.14502526190E+03  0.00000000000E+00 0.  1.
         14    1    6    6    0    0  0.33779061258E+01  0.56496431190E+00 -0.11931549718E+02  0.12413352212E+02  0.00000000000E+00 0. -1.
         -5    1    3    3    0  503 -0.73680430518E+02  0.47686699498E+02  0.80298657909E+02  0.11904953428E+03  0.47000000000E+01 0.  1.
         11    1    4    4    0    0  0.18135461641E+02  0.19806731549E-01  0.12230307058E+03  0.12364035116E+03  0.00000000000E+00 0. -1.
        -12    1    4    4    0    0 -0.39572842094E+02  0.74964366853E+02  0.16351595827E+03  0.18418234100E+03  0.00000000000E+00 0.  1.
</event>
<event>
12    1  0.8526130E-002  0.1996331E+03  0.7818608E-02  0.1151174E+00
         21   -1    0    0  501  502  0.00000000000E+00  0.00000000000E+00  0.16999775309E+03  0.16999775309E+03  0.00000000000E+00 0.  1.
         21   -1    0    0  502  503 -0.00000000000E+00 -0.00000000000E+00 -0.34940004239E+03  0.34940004239E+03  0.00000000000E+00 0. -1.
         -6    2    1    2    0  503  0.84651742447E+02 -0.38575753763E+02 -0.24335310280E+03  0.31476041010E+03  0.17663345336E+03 0.  0.
        -24    2    3    3    0    0  0.11015955057E+03 -0.62379518208E+02 -0.23426003935E+03  0.27840052452E+03  0.81257339009E+02 0.  0.
          6    2    1    2  501    0 -0.84651742447E+02  0.38575753763E+02  0.63950813505E+02  0.20463738537E+03  0.17068317628E+03 0.  0.
         24    2    5    5    0    0 -0.77969872887E+02  0.66396399894E+02  0.95834449262E+02  0.16154107507E+03  0.80146704697E+02 0.  0.
          5    1    5    5  501    0 -0.66818695600E+01 -0.27820646131E+02 -0.31883635757E+02  0.43096310295E+02  0.47000000000E+01 0. -1.
        -11    1    6    6    0    0 -0.80185306873E+02  0.65698075247E+02  0.49019191965E+02  0.11466822450E+03  0.00000000000E+00 0.  1.
         12    1    6    6    0    0  0.22154339860E+01  0.69832464734E+00  0.46815257296E+02  0.46872850572E+02  0.00000000000E+00 0. -1.
         -5    1    3    3    0  503 -0.25507808121E+02  0.23803764445E+02 -0.90930634562E+01  0.36359885587E+02  0.47000000000E+01 0.  1.
         13    1    4    4    0    0  0.50758949524E+02 -0.24617161674E+01 -0.34139181697E+02  0.61221031763E+02  0.00000000000E+00 0. -1.
        -14    1    4    4    0    0  0.59400601044E+02 -0.59917802041E+02 -0.20012085765E+03  0.21717949275E+03  0.00000000000E+00 0.  1.
</event>
<event>
12    1  0.8526130E-002  0.1790659E+03  0.7818608E-02  0.1168725E+00
         21   -1    0    0  503  502  0.00000000000E+00  0.00000000000E+00  0.30496972893E+03  0.30496972893E+03  0.00000000000E+00 0.  1.
         21   -1    0    0  501  503 -0.00000000000E+00 -0.00000000000E+00 -0.10638032640E+03  0.10638032640E+03  0.00000000000E+00 0. -1.
          6    2    1    2  501    0  0.47611770243E+02 -0.14160388432E+02  0.76791403139E+02  0.19483713004E+03  0.17203833985E+03 0.  0.
         24    2    3    3    0    0  0.23931649705E+02 -0.18767473253E+02  0.11934305229E+03  0.14569747004E+03  0.77846302015E+02 0.  0.
         -6    2    1    2    0  502 -0.47611770243E+02  0.14160388432E+02  0.12179799940E+03  0.21651292530E+03  0.17197586138E+03 0.  0.
        -24    2    5    5    0    0 -0.74555869798E+02 -0.30963078759E+02  0.43793678202E+02  0.12233821575E+03  0.80817466033E+02 0.  0.
          5    1    3    3  501    0  0.23680120539E+02  0.46070848205E+01 -0.42551649148E+02  0.49139659996E+02  0.47000000000E+01 0. -1.
        -13    1    4    4    0    0  0.51282208351E+02 -0.17575856206E+02  0.63411400682E+02  0.83425304022E+02  0.00000000000E+00 0.  1.
         14    1    4    4    0    0 -0.27350558647E+02 -0.11916170473E+01  0.55931651605E+02  0.62272166019E+02  0.00000000000E+00 0. -1.
         -5    1    5    5    0  502  0.26944099555E+02  0.45123467191E+02  0.78004321195E+02  0.94174709542E+02  0.47000000000E+01 0.  1.
         11    1    6    6    0    0 -0.10144262183E+02  0.25961684616E+02  0.64134166160E+01  0.28601521568E+02  0.00000000000E+00 0. -1.
        -12    1    6    6    0    0 -0.64411607615E+02 -0.56924763374E+02  0.37380261586E+02  0.93736694187E+02  0.00000000000E+00 0.  1.
</event>
<event>
12    1  0.8526130E-002  0.2626042E+03  0.7818608E-02  0.1105964E+00
         21   -1    0    0  503  502  0.00000000000E+00  0.00000000000E+00  0.60540561836E+03  0.60540561836E+03  0.00000000000E+00 0. -1.
         21   -1    0    0  501  503 -0.00000000000E+00 -0.00000000000E+00 -0.11290964992E+03  0.11290964992E+03  0.00000000000E+00 0.  1.
          6    2    1    2  501    0 -0.19416467992E+03 -0.37985403244E+02  0.23488250279E+03  0.35044888634E+03  0.16882481462E+03 0.  0.
         24    2    3    3    0    0 -0.96427925379E+02 -0.18094759542E+02  0.41492089930E+02  0.13280226293E+03  0.79303735074E+02 0.  0.
         -6    2    1    2    0  502  0.19416467992E+03  0.37985403244E+02  0.25761346564E+03  0.36786638194E+03  0.17267936616E+03 0.  0.
        -24    2    5    5    0    0  0.91963778985E+02  0.81548822298E+02  0.11503568284E+03  0.18705346819E+03  0.81536768228E+02 0.  0.
          5    1    3    3  501    0 -0.97736754537E+02 -0.19890643701E+02  0.19339041286E+03  0.21764662341E+03  0.47000000000E+01 0. -1.
        -13    1    4    4    0    0 -0.86251307528E+02 -0.32511755158E+02  0.57779571562E+02  0.10878778040E+03  0.00000000000E+00 0.  1.
         14    1    4    4    0    0 -0.10176617851E+02  0.14416995615E+02 -0.16287481632E+02  0.24014482534E+02  0.00000000000E+00 0. -1.
         -5    1    5    5    0  502  0.10220090093E+03 -0.43563419054E+02  0.14257778280E+03  0.18081291375E+03  0.47000000000E+01 0.  1.
         11    1    6    6    0    0  0.34954119689E+02  0.28159433036E+02  0.97015199844E+02  0.10689571157E+03  0.00000000000E+00 0. -1.
        -12    1    6    6    0    0  0.57009659296E+02  0.53389389262E+02  0.18020482996E+02  0.80157756619E+02  0.00000000000E+00 0.  1.
</event>
<event>
12    1  0.8526130E-002  0.2101545E+03  0.7818608E-02  0.1145109E+00
         21   -1    0    0  501  502  0.00000000000E+00  0.00000000000E+00  0.35990477293E+03  0.35990477293E+03  0.00000000000E+00 0. -1.
         21   -1    0    0  502  503 -0.00000000000E+00 -0.00000000000E+00 -0.16626009520E+03  0.16626009520E+03  0.00000000000E+00 0. -1.
         -6    2    1    2    0  503  0.10581991879E+03  0.32510327465E+01 -0.49651959840E+02  0.21594038217E+03  0.18153927153E+03 0.  0.
        -24    2    3    3    0    0  0.90239799045E+02  0.13493117388E+02 -0.10022819749E+03  0.16183228441E+03  0.88423476272E+02 0.  0.
          6    2    1    2  501    0 -0.10581991879E+03 -0.32510327465E+01  0.24329663757E+03  0.31022448596E+03  0.16074064019E+03 0.  0.
         24    2    5    5    0    0 -0.43474358310E+02 -0.46409035629E+02  0.76885056962E+02  0.12729147558E+03  0.79044224034E+02 0.  0.
          5    1    5    5  501    0 -0.62345560483E+02  0.43158002882E+02  0.16641158061E+03  0.18293301038E+03  0.47000000000E+01 0. -1.
        -13    1    6    6    0    0 -0.41634079862E+02 -0.98538467003E+01  0.72229231349E+00  0.42790379841E+02  0.00000000000E+00 0.  1.
         14    1    6    6    0    0 -0.18402784479E+01 -0.36555188928E+02  0.76162764648E+02  0.84501095740E+02  0.00000000000E+00 0. -1.
         -5    1    3    3    0  503  0.15580119747E+02 -0.10242084642E+02  0.50576237647E+02  0.54108097765E+02  0.47000000000E+01 0.  1.
         13    1    4    4    0    0  0.54984237770E+02  0.31979190233E+02 -0.11575864122E+02  0.64652421774E+02  0.00000000000E+00 0. -1.
        -14    1    4    4    0    0  0.35255561275E+02 -0.18486072845E+02 -0.88652333366E+02  0.97179862632E+02  0.00000000000E+00 0.  1.
</event>
<event>
12    1  0.8526130E-002  0.1861834E+03  0.7818608E-02  0.1161950E+00
         21   -1    0    0  503  502  0.00000000000E+00  0.00000000000E+00  0.42691112204E+02  0.42691112204E+02  0.00000000000E+00 0. -1.
         21   -1    0    0  501  503 -0.00000000000E+00 -0.00000000000E+00 -0.13277928976E+04  0.13277928976E+04  0.00000000000E+00 0. -1.
          6    2    1    2  501    0  0.59233027571E+02  0.35981365300E+02 -0.10696593530E+04  0.10857418657E+04  0.17280352239E+03 0.  0.
         24    2    3    3    0    0  0.49959600439E+02  0.27636411769E+02 -0.29962553092E+03  0.31559265172E+03  0.81015616465E+02 0.  0.
         -6    2    1    2    0  502 -0.59233027571E+02 -0.35981365300E+02 -0.21544243243E+03  0.28474214410E+03  0.17279883313E+03 0.  0.
        -24    2    5    5    0    0 -0.82963202100E+02 -0.68466731182E+02 -0.11698119725E+03  0.17827559999E+03  0.80789868568E+02 0.  0.
          5    1    3    3  501    0  0.92734271315E+01  0.83449535307E+01 -0.77003382207E+03  0.77014921400E+03  0.47000000000E+01 0. -1.
        -13    1    4    4    0    0  0.40529983886E+02  0.29971314142E+02 -0.30151210865E+03  0.30569676303E+03  0.00000000000E+00 0.  1.
         14    1    4    4    0    0  0.94296165535E+01 -0.23349023729E+01  0.18865777316E+01  0.98958886905E+01  0.00000000000E+00 0. -1.
         -5    1    5    5    0  502  0.23730174529E+02  0.32485365882E+02 -0.98461235180E+02  0.10646654410E+03  0.47000000000E+01 0.  1.
         11    1    6    6    0    0 -0.37282004908E+02  0.13436055491E+02 -0.45636193945E+02  0.60441191872E+02  0.00000000000E+00 0. -1.
        -12    1    6    6    0    0 -0.45681197191E+02 -0.81902786674E+02 -0.71345003300E+02  0.11783440812E+03  0.00000000000E+00 0.  1.
</event>
<event>
12    1  0.8526130E-002  0.2091687E+03  0.7818608E-02  0.1142438E+00
         21   -1    0    0  503  502  0.00000000000E+00  0.00000000000E+00  0.53098166663E+02  0.53098166663E+02  0.00000000000E+00 0. -1.
         21   -1    0    0  501  503 -0.00000000000E+00 -0.00000000000E+00 -0.32353417213E+04  0.32353417213E+04  0.00000000000E+00 0. -1.
          6    2    1    2  501    0 -0.10869782886E+03  0.42339472889E+02 -0.30108107077E+04  0.30179944054E+04  0.17234054913E+03 0.  0.
         24    2    3    3    0    0 -0.51826403157E+02  0.16947761614E+02 -0.74424249304E+03  0.75056576056E+03  0.80491426778E+02 0.  0.
         -6    2    1    2    0  502  0.10869782886E+03 -0.42339472889E+02 -0.17143284698E+03  0.27044548254E+03  0.17361937979E+03 0.  0.
        -24    2    5    5    0    0  0.28443138999E+02  0.35471236351E+02 -0.10692723350E+03  0.14130065729E+03  0.80406602482E+02 0.  0.
          5    1    3    3  501    0 -0.56871425706E+02  0.25391711274E+02 -0.22665682146E+04  0.22674286449E+04  0.47000000000E+01 0. -1.
        -13    1    4    4    0    0  0.10943187306E+02 -0.20373631414E+02 -0.13560627431E+03  0.13756416625E+03  0.00000000000E+00 0.  1.
         14    1    4    4    0    0 -0.62769590463E+02  0.37321393029E+02 -0.60863621874E+03  0.61300159431E+03  0.00000000000E+00 0. -1.
         -5    1    5    5    0  502  0.80254689864E+02 -0.77810709239E+02 -0.64505613482E+02  0.12914482525E+03  0.47000000000E+01 0.  1.
         11    1    6    6    0    0  0.25973832311E+02 -0.36433801444E+01  0.12344832302E+01  0.26257153933E+02  0.00000000000E+00 0. -1.
        -12    1    6    6    0    0  0.24693066880E+01  0.39114616495E+02 -0.10816171673E+03  0.11504350336E+03  0.00000000000E+00 0.  1.
</event>
<event>
12    1  0.8526130E-002  0.1787618E+03  0.7818608E-02  0.1169683E+00
         21   -1    0    0  503  502  0.00000000000E+00  0.00000000000E+00  0.25488049011E+03  0.25488049011E+03  0.00000000000E+00 0.  1.
         21   -1    0    0  501  503 -0.00000000000E+00 -0.00000000000E+00 -0.64942951891E+03  0.64942951891E+03  0.00000000000E+00 0.  1.
          6    2    1    2  501    0  0.30433046976E+02  0.36553667460E+02 -0.60389606361E+03  0.62902478016E+03  0.16946792458E+03 0.  0.
         24    2    3    3    0    0  0.30700419446E+02 -0.14297369910E+02 -0.15876847869E+03  0.18097728676E+03  0.79990111613E+02 0.  0.
         -6    2    1    2    0  502 -0.30433046976E+02 -0.36553667460E+02  0.20934703482E+03  0.27528522886E+03  0.17231783219E+03 0.  0.
        -24    2    5    5    0    0 -0.30943044263E+02  0.26278411567E+02  0.46963463219E+02  0.10110530873E+03  0.79804070532E+02 0.  0.
          5    1    3    3  501    0 -0.26737247060E+00  0.50851037369E+02 -0.44512758492E+03  0.44804749340E+03  0.47000000000E+01 0. -1.
        -11    1    4    4    0    0  0.57765224098E+02 -0.11641277380E+02 -0.11912642416E+03  0.13290389531E+03  0.00000000000E+00 0.  1.
         12    1    4    4    0    0 -0.27064804651E+02 -0.26560925294E+01 -0.39642054533E+02  0.48073391455E+02  0.00000000000E+00 0. -1.
         -5    1    5    5    0  502  0.50999728753E+00 -0.62832079027E+02  0.16238357160E+03  0.17417992013E+03  0.47000000000E+01 0.  1.
         11    1    6    6    0    0 -0.49276728438E+02 -0.37472419109E+01  0.10666570728E+02  0.50557032336E+02  0.00000000000E+00 0. -1.
        -12    1    6    6    0    0  0.18333684175E+02  0.30025653478E+02  0.36296892491E+02  0.50548276397E+02  0.00000000000E+00 0.  1.
</event>
<event>
12    1  0.8526130E-002  0.1800517E+03  0.7818608E-02  0.1167777E+00
         21   -1    0    0  503  502  0.00000000000E+00  0.00000000000E+00  0.18825815326E+04  0.18825815326E+04  0.00000000000E+00 0. -1.
         21   -1    0    0  501  503 -0.00000000000E+00 -0.00000000000E+00 -0.17894387198E+02  0.17894387198E+02  0.00000000000E+00 0. -1.
          6    2    1    2  501    0  0.41535073869E+02  0.33410360249E+02  0.74639208085E+03  0.76777892638E+03  0.17187765100E+03 0.  0.
         24    2    3    3    0    0 -0.34781293436E+02  0.40048734150E+02  0.53501319261E+03  0.54289811280E+03  0.75402951747E+02 0.  0.
         -6    2    1    2    0  502 -0.41535073869E+02 -0.33410360249E+02  0.11182950646E+04  0.11326969935E+04  0.17198026908E+03 0.  0.
        -24    2    5    5    0    0 -0.42450898121E+02  0.40319066710E+02  0.79000620126E+03  0.79619657009E+03  0.79946696661E+02 0.  0.
          5    1    3    3  501    0  0.76316367304E+02 -0.66383739009E+01  0.21137888824E+03  0.22488081359E+03  0.47000000000E+01 0. -1.
        -11    1    4    4    0    0  0.15148260449E+02  0.38875189109E+02  0.21495595983E+03  0.21896761128E+03  0.00000000000E+00 0.  1.
         12    1    4    4    0    0 -0.49929553884E+02  0.11735450407E+01  0.32005723278E+03  0.32393050152E+03  0.00000000000E+00 0. -1.
         -5    1    5    5    0  502  0.91582425194E+00 -0.73729426959E+02  0.32828886334E+03  0.33650042337E+03  0.47000000000E+01 0.  1.
         13    1    6    6    0    0 -0.48509144391E+02 -0.72163877082E+01  0.31731326052E+03  0.32108085998E+03  0.00000000000E+00 0. -1.
        -14    1    6    6    0    0  0.60582462701E+01  0.47535454418E+02  0.47269294073E+03  0.47511571011E+03  0.00000000000E+00 0.  1.
</event>
<event>
12    1  0.8526130E-002  0.1792096E+03  0.7818608E-02  0.1168615E+00
         21   -1    0    0  503  502  0.00000000000E+00  0.00000000000E+00  0.38367237775E+03  0.38367237775E+03  0.00000000000E+00 0.  1.
         21   -1    0    0  501  503 -0.00000000000E+00 -0.00000000000E+00 -0.98590075574E+02  0.98590075574E+02  0.00000000000E+00 0.  1.
          6    2    1    2  501    0  0.50899573012E+02  0.29903892461E+01  0.48643813037E+02  0.18569407291E+03  0.17180325727E+03 0.  0.
         24    2    3    3    0    0  0.19627225262E+02 -0.34939266115E+02 -0.30316256972E+02  0.92562976359E+02  0.77735763117E+02 0.  0.
         -6    2    1    2    0  502 -0.50899573012E+02 -0.29903892461E+01  0.23643848914E+03  0.29656838041E+03  0.17160983699E+03 0.  0.
        -24    2    5    5    0    0 -0.13028658103E+02 -0.43209274957E+02  0.61999150232E+02  0.11353030262E+03  0.83716471548E+02 0.  0.
          5    1    3    3  501    0  0.31272347750E+02  0.37929655361E+02  0.78960070010E+02  0.93131096555E+02  0.47000000000E+01 0. -1.
        -13    1    4    4    0    0  0.27953238254E+02 -0.66693834743E+00 -0.46104846259E+02  0.53921101474E+02  0.00000000000E+00 0.  1.
         14    1    4    4    0    0 -0.83260129923E+01 -0.34272327767E+02  0.15788589286E+02  0.38641874885E+02  0.00000000000E+00 0. -1.
         -5    1    5    5    0  502 -0.37870914909E+02  0.40218885711E+02  0.17443933891E+03  0.18303807779E+03  0.47000000000E+01 0.  1.
         11    1    6    6    0    0  0.28792874020E+02 -0.19729644121E+02 -0.30299079931E+00  0.34905304109E+02  0.00000000000E+00 0. -1.
        -12    1    6    6    0    0 -0.41821532123E+02 -0.23479630836E+02  0.62302141031E+02  0.78624998508E+02  0.00000000000E+00 0.  1.
</event>
<event>
12    1  0.8526130E-002  0.3469743E+03  0.7818608E-02  0.1064071E+00
         21   -1    0    0  503  502  0.00000000000E+00  0.00000000000E+00  0.16036407802E+04  0.16036407802E+04  0.00000000000E+00 0. -1.
         21   -1    0    0  501  503 -0.00000000000E+00 -0.00000000000E+00 -0.92345809397E+02  0.92345809397E+02  0.00000000000E+00 0.  1.
          6    2    1    2  501    0  0.21004015916E+03 -0.21407534849E+03  0.38261077970E+03  0.51517366600E+03  0.17049273918E+03 0.  0.
         24    2    3    3    0    0  0.11857277205E+03 -0.20626751051E+03  0.30469298806E+03  0.39467255608E+03  0.79516170612E+02 0.  0.
         -6    2    1    2    0  502 -0.21004015916E+03  0.21407534849E+03  0.11286841912E+04  0.11808129236E+04  0.17448791933E+03 0.  0.
        -24    2    5    5    0    0 -0.15904354501E+03  0.11026178708E+03  0.49818191041E+03  0.53977226487E+03  0.75606687236E+02 0.  0.
          5    1    3    3  501    0  0.91467387110E+02 -0.78078379818E+01  0.77917791632E+02  0.12050110992E+03  0.47000000000E+01 0. -1.
        -11    1    4    4    0    0  0.65826672016E+02 -0.11447954642E+03  0.10522298192E+03  0.16885080166E+03  0.00000000000E+00 0.  1.
         12    1    4    4    0    0  0.52746100031E+02 -0.91787964084E+02  0.19947000614E+03  0.22582175442E+03  0.00000000000E+00 0. -1.
         -5    1    5    5    0  502 -0.50996614146E+02  0.10381356141E+03  0.63050228074E+03  0.64104065878E+03  0.47000000000E+01 0.  1.
         13    1    6    6    0    0 -0.61406913266E+02  0.33335264672E+02  0.28079073998E+03  0.28935357010E+03  0.00000000000E+00 0. -1.
        -14    1    6    6    0    0 -0.97636631745E+02  0.76926522408E+02  0.21739117043E+03  0.25041869477E+03  0.00000000000E+00 0.  1.
</event>
<event>
12    1  0.8526130E-002  0.1774852E+03  0.7818608E-02  0.1170463E+00
         21   -1    0    0  501  502  0.00000000000E+00  0.00000000000E+00  0.14505566608E+03  0.14505566608E+03  0.00000000000E+00 0. -1.
         21   -1    0    0  502  503 -0.00000000000E+00 -0.00000000000E+00 -0.45486707218E+03  0.45486707218E+03  0.00000000000E+00 0. -1.
         -6    2    1    2    0  503  0.35917101983E+02  0.23973537347E+02 -0.37203396497E+03  0.41184653716E+03  0.17129953407E+03 0.  0.
        -24    2    3    3    0    0  0.29648229281E+02 -0.15114603413E+02 -0.36006030048E+03  0.37022154281E+03  0.79455031588E+02 0.  0.
          6    2    1    2  501    0 -0.35917101983E+02 -0.23973537347E+02  0.62222558863E+02  0.18807620110E+03  0.17215179895E+03 0.  0.
         24    2    5    5    0    0  0.41736416205E+02 -0.13013431639E+02  0.50127937220E+02  0.10858681391E+03  0.85831277654E+02 0.  0.
          5    1    5    5  501    0 -0.77653518188E+02 -0.10960105708E+02  0.12094621643E+02  0.79489387196E+02  0.47000000000E+01 0. -1.
        -11    1    6    6    0    0  0.60449577523E+02 -0.17817419390E+02  0.96775727458E+01  0.63759448481E+02  0.00000000000E+00 0.  1.
         12    1    6    6    0    0 -0.18713161318E+02  0.48039877501E+01  0.40450364475E+02  0.44827365425E+02  0.00000000000E+00 0. -1.
         -5    1    3    3    0  503  0.62688727020E+01  0.39088140761E+02 -0.11973664489E+02  0.41624994347E+02  0.47000000000E+01 0.  1.
         13    1    4    4    0    0  0.52757210024E+02 -0.13138736527E+02 -0.16361375178E+03  0.17241058372E+03  0.00000000000E+00 0. -1.
        -14    1    4    4    0    0 -0.23108980743E+02 -0.19758668868E+01 -0.19644654870E+03  0.19781095909E+03  0.00000000000E+00 0.  1.
</event>
<event>
12    1  0.8526130E-002  0.1731723E+03  0.7818608E-02  0.1174849E+00
         21   -1    0    0  503  502  0.00000000000E+00  0.00000000000E+00  0.25883411670E+03  0.25883411670E+03  0.00000000000E+00 0.  1.
         21   -1    0    0  501  503 -0.00000000000E+00 -0.00000000000E+00 -0.11962500140E+03  0.11962500140E+03  0.00000000000E+00 0.  1.
          6    2    1    2  501    0  0.97886936718E+00  0.37855891152E+01  0.32826266324E+02  0.17522044896E+03  0.17207368510E+03 0.  0.
         24    2    3    3    0    0 -0.17703834914E+01 -0.63385948477E+02  0.10213817662E+02  0.10413608578E+03  0.81970052877E+02 0.  0.
         -6    2    1    2    0  502 -0.97886936718E+00 -0.37855891152E+01  0.10638284897E+03  0.20323866914E+03  0.17312815256E+03 0.  0.
        -24    2    5    5    0    0  0.43981672782E+02  0.45412359104E+02  0.40931889985E+02  0.10970896000E+03  0.79774472029E+02 0.  0.
          5    1    3    3  501    0  0.27492528586E+01  0.67171537593E+02  0.22612448662E+02  0.71084363177E+02  0.47000000000E+01 0. -1.
        -13    1    4    4    0    0  0.25544129482E+01 -0.27376021824E+01 -0.30649959783E+02  0.30877816080E+02  0.00000000000E+00 0.  1.
         14    1    4    4    0    0 -0.43247964397E+01 -0.60648346295E+02  0.40863777445E+02  0.73258269701E+02  0.00000000000E+00 0. -1.
         -5    1    5    5    0  502 -0.44960542149E+02 -0.49197948219E+02  0.65450958988E+02  0.93529709140E+02  0.47000000000E+01 0.  1.
         11    1    6    6    0    0  0.21405553162E+02 -0.13718250282E+02 -0.11130721631E+02  0.27753937757E+02  0.00000000000E+00 0. -1.
        -12    1    6    6    0    0  0.22576119620E+02  0.59130609385E+02  0.52062611616E+02  0.81955022248E+02  0.00000000000E+00 0.  1.
</event>
<event>
12    1  0.8526130E-002  0.2249162E+03  0.7818608E-02  0.1130453E+00
         21   -1    0    0  501  502  0.00000000000E+00  0.00000000000E+00  0.10999415037E+03  0.10999415037E+03  0.00000000000E+00 0.  1.
         21   -1    0    0  502  503 -0.00000000000E+00 -0.00000000000E+00 -0.84666018752E+03  0.84666018752E+03  0.00000000000E+00 0.  1.
         -6    2    1    2    0  503 -0.10661792728E+03  0.10001157613E+03 -0.69203027750E+03  0.72735183009E+03  0.16960271806E+03 0.  0.
        -24    2    3    3    0    0 -0.92014471356E+02  0.11639658042E+01 -0.43929800219E+03  0.45554343438E+03  0.77904224043E+02 0.  0.
          6    2    1    2  501    0  0.10661792728E+03 -0.10001157613E+03 -0.44635759644E+02  0.22930250781E+03  0.17093153971E+03 0.  0.
         24    2    5    5    0    0  0.43074489613E+02 -0.10108978191E+03 -0.78533457374E+02  0.15712165917E+03  0.80281730114E+02 0.  0.
          5    1    5    5  501    0  0.63543437669E+02  0.10782057791E+01  0.33897697729E+02  0.72180848637E+02  0.47000000000E+01 0. -1.
        -13    1    6    6    0    0  0.61310751834E+02 -0.42573529945E+02 -0.46815331232E+02  0.88108960843E+02  0.00000000000E+00 0.  1.
         14    1    6    6    0    0 -0.18236262221E+02 -0.58516251969E+02 -0.31718126142E+02  0.69012698326E+02  0.00000000000E+00 0. -1.
         -5    1    3    3    0  503 -0.14603455926E+02  0.98847610331E+02 -0.25273227532E+03  0.27180839571E+03  0.47000000000E+01 0.  1.
         13    1    4    4    0    0 -0.83180994014E+02  0.21453038677E+02 -0.23791565657E+03  0.25294894796E+03  0.00000000000E+00 0. -1.
        -14    1    4    4    0    0 -0.88334773419E+01 -0.20289072873E+02 -0.20138234562E+03  0.20259448642E+03  0.00000000000E+00 0.  1.
</event>
<event>
12    1  0.8526130E-002  0.1929832E+03  0.7818608E-02  0.1155955E+00
         21   -1    0    0  501  502  0.00000000000E+00  0.00000000000E+00  0.63550317451E+03  0.63550317451E+03  0.00000000000E+00 0.  1.
         21   -1    0    0  502  503 -0.00000000000E+00 -0.00000000000E+00 -0.70744469558E+02  0.70744469558E+02  0.00000000000E+00 0. -1.
         -6    2    1    2    0  503  0.78273182924E+02  0.30317592584E+02  0.13436567260E+03  0.23456908251E+03  0.17298171265E+03 0.  0.
        -24    2    3    3    0    0  0.10157178380E+03 -0.84740194818E+01  0.49950951659E+02  0.13867565687E+03  0.79669341453E+02 0.  0.
          6    2    1    2  501    0 -0.78273182924E+02 -0.30317592584E+02  0.43039303236E+03  0.47167856156E+03  0.17377184913E+03 0.  0.
         24    2    5    5    0    0 -0.11307621993E+03 -0.18028087031E+00  0.37960072248E+03  0.40296569752E+03  0.74151067790E+02 0.  0.
          5    1    5    5  501    0  0.34803037008E+02 -0.30137311714E+02  0.50792309881E+02  0.68712864046E+02  0.47000000000E+01 0. -1.
        -11    1    6    6    0    0  0.19538987328E+01 -0.89241852363E+01  0.10117700409E+03  0.10158860644E+03  0.00000000000E+00 0.  1.
         12    1    6    6    0    0 -0.11503011866E+03  0.87439043660E+01  0.27842371839E+03  0.30137709108E+03  0.00000000000E+00 0. -1.
         -5    1    3    3    0  503 -0.23298600873E+02  0.38791612066E+02  0.84414720938E+02  0.95893425636E+02  0.47000000000E+01 0.  1.
         13    1    4    4    0    0  0.73401680429E+02 -0.41966676414E+02  0.41156399229E+02  0.94036470672E+02  0.00000000000E+00 0. -1.
        -14    1    4    4    0    0  0.28170103368E+02  0.33492656933E+02  0.87945524301E+01  0.44639186200E+02  0.00000000000E+00 0.  1.
</event>
<event>
12    1  0.8526130E-002  0.2297136E+03  0.7818608E-02  0.1127517E+00
         21   -1    0    0  501  502  0.00000000000E+00  0.00000000000E+00  0.10704271082E+04  0.10704271082E+04  0.00000000000E+00 0.  1.
         21   -1    0    0  502  503 -0.00000000000E+00 -0.00000000000E+00 -0.26923616897E+03  0.26923616897E+03  0.00000000000E+00 0. -1.
         -6    2    1    2    0  503  0.57613469214E+02  0.13327356828E+03 -0.20652942490E+03  0.30609245048E+03  0.17308098986E+03 0.  0.
        -24    2    3    3    0    0  0.76298783225E+02  0.15119574797E+03 -0.13748454646E+03  0.23220313648E+03  0.79590436294E+02 0.  0.
          6    2    1    2  501    0 -0.57613469214E+02 -0.13327356828E+03  0.10077203641E+04  0.10335708267E+04  0.17800889206E+03 0.  0.
         24    2    5    5    0    0 -0.10169378468E+03 -0.11403121534E+03  0.64191190755E+03  0.66458402575E+03  0.79223016324E+02 0.  0.
          5    1    5    5  501    0  0.44080315462E+02 -0.19242352939E+02  0.36580845655E+03  0.36898680091E+03  0.47000000000E+01 0. -1.
        -13    1    6    6    0    0 -0.24382324323E+02 -0.37968715988E+02  0.35502585740E+03  0.35788193661E+03  0.00000000000E+00 0.  1.
         14    1    6    6    0    0 -0.77311460353E+02 -0.76062499351E+02  0.28688605016E+03  0.30670208914E+03  0.00000000000E+00 0. -1.
         -5    1    3    3    0  503 -0.18685314011E+02 -0.17922179689E+02 -0.69044878441E+02  0.73889314001E+02  0.47000000000E+01 0.  1.
         13    1    4    4    0    0 -0.52815369711E+01  0.75879312938E+02 -0.53777025878E+02  0.93153278401E+02  0.00000000000E+00 0. -1.
        -14    1    4    4    0    0  0.81580320196E+02  0.75316435030E+02 -0.83707520585E+02  0.13904985808E+03  0.00000000000E+00 0.  1.
</event>
<event>
12    1  0.8526130E-002  0.1920755E+03  0.7818608E-02  0.1157215E+00
         21   -1    0    0  503  502  0.00000000000E+00  0.00000000000E+00  0.16564901326E+03  0.16564901326E+03  0.00000000000E+00 0. -1.
         21   -1    0    0  501  503 -0.00000000000E+00 -0.00000000000E+00 -0.27626818162E+03  0.27626818162E+03  0.00000000000E+00 0. -1.
          6    2    1    2  501    0 -0.28429206190E+01  0.80295384726E+02 -0.15572862925E+03  0.24727396610E+03  0.17446368487E+03 0.  0.
         24    2    3    3    0    0  0.28728734509E+02 -0.18885414024E+02 -0.60939312414E+02  0.10641692924E+03  0.80180820534E+02 0.  0.
         -6    2    1    2    0  502  0.28429206190E+01 -0.80295384726E+02  0.45109460886E+02  0.19464322878E+03  0.17145171927E+03 0.  0.
        -24    2    5    5    0    0  0.26864844030E+02  0.15585637372E+02  0.37843341566E+02  0.95420702642E+02  0.81904578961E+02 0.  0.
          5    1    3    3  501    0 -0.31571655128E+02  0.99180798750E+02 -0.94789316840E+02  0.14085703687E+03  0.47000000000E+01 0. -1.
        -13    1    4    4    0    0  0.68150621355E+01 -0.25368952075E+02  0.12797558426E+02  0.29219964116E+02  0.00000000000E+00 0.  1.
         14    1    4    4    0    0  0.21913672373E+02  0.64835380513E+01 -0.73736870840E+02  0.77196965121E+02  0.00000000000E+00 0. -1.
         -5    1    5    5    0  502 -0.24021923410E+02 -0.95881022098E+02  0.72661193199E+01  0.99222526136E+02  0.47000000000E+01 0.  1.
         11    1    6    6    0    0  0.94739009864E+00 -0.16920172267E+02  0.49437089432E+02  0.52261033180E+02  0.00000000000E+00 0. -1.
        -12    1    6    6    0    0  0.25917453931E+02  0.32505809638E+02 -0.11593747866E+02  0.43159669462E+02  0.00000000000E+00 0.  1.
</event>
<event>
12    1  0.8526130E-002  0.1807647E+03  0.7818608E-02  0.1167104E+00
         21   -1    0    0  501  502  0.00000000000E+00  0.00000000000E+00  0.27322063166E+03  0.27322063166E+03  0.00000000000E+00 0.  1.
         21   -1    0    0  502  503 -0.00000000000E+00 -0.00000000000E+00 -0.21360951115E+03  0.21360951115E+03  0.00000000000E+00 0.  1.
         -6    2    1    2    0  503  0.18688508687E+02  0.52568155775E+02 -0.13176515262E+03  0.22369162467E+03  0.17193957120E+03 0.  0.
        -24    2    3    3    0    0  0.56859106635E+02  0.17275098195E+02 -0.13913758122E+03  0.17097505076E+03  0.79635509985E+02 0.  0.
          6    2    1    2  501    0 -0.18688508687E+02 -0.52568155775E+02  0.19137627313E+03  0.26313851814E+03  0.17176824636E+03 0.  0.
         24    2    5    5    0    0  0.15244846697E+02  0.15037220741E+02  0.16404167809E+03  0.18257035056E+03  0.77225238081E+02 0.  0.
          5    1    5    5  501    0 -0.33933355384E+02 -0.67605376515E+02  0.27334595043E+02  0.80568167582E+02  0.47000000000E+01 0. -1.
        -11    1    6    6    0    0  0.33011307405E+02 -0.17718835452E+02  0.11518179030E+03  0.12112203913E+03  0.00000000000E+00 0.  1.
         12    1    6    6    0    0 -0.17766460707E+02  0.32756056193E+02  0.48859887785E+02  0.61448311431E+02  0.00000000000E+00 0. -1.
         -5    1    3    3    0  503 -0.38170597948E+02  0.35293057579E+02  0.73724286039E+01  0.52716573907E+02  0.47000000000E+01 0.  1.
         13    1    4    4    0    0  0.17048130816E+02 -0.11991356958E+02  0.24753701907E+01  0.20989494124E+02  0.00000000000E+00 0. -1.
        -14    1    4    4    0    0  0.39810975819E+02  0.29266455153E+02 -0.14161295141E+03  0.14998555664E+03  0.00000000000E+00 0.  1.
</event>
<event>
12    1  0.8526130E-002  0.2178761E+03  0.7818608E-02  0.1135496E+00
         21   -1    0    0  501  502  0.00000000000E+00  0.00000000000E+00  0.13837337585E+03  0.13837337585E+03  0.00000000000E+00 0.  1.
         21   -1    0    0  502  503 -0.00000000000E+00 -0.00000000000E+00 -0.39904175838E+03  0.39904175838E+03  0.00000000000E+00 0.  1.
         -6    2    1    2    0  503  0.37057915026E+02 -0.12893404808E+03 -0.23110426734E+03  0.31754238525E+03  0.17154214125E+03 0.  0.
        -24    2    3    3    0    0 -0.43237762582E+02 -0.89675178590E+02 -0.12362644785E+03  0.17767735617E+03  0.79841107955E+02 0.  0.
          6    2    1    2  501    0 -0.37057915026E+02  0.12893404808E+03 -0.29564115181E+02  0.21987274898E+03  0.17167618070E+03 0.  0.
         24    2    5    5    0    0 -0.44347401703E+02  0.15485161712E+03  0.36510342795E+00  0.17934245010E+03  0.78853444736E+02 0.  0.
          5    1    5    5  501    0  0.72894866764E+01 -0.25917569039E+02 -0.29929218609E+02  0.40530298882E+02  0.47000000000E+01 0. -1.
        -11    1    6    6    0    0 -0.52560292784E+02  0.75288987798E+02 -0.25470959073E+02  0.95287910132E+02  0.00000000000E+00 0.  1.
         12    1    6    6    0    0  0.82128910816E+01  0.79562629319E+02  0.25836062501E+02  0.84054539970E+02  0.00000000000E+00 0. -1.
         -5    1    3    3    0  503  0.80295677609E+02 -0.39258869487E+02 -0.10747781950E+03  0.13986502908E+03  0.47000000000E+01 0.  1.
         13    1    4    4    0    0 -0.37906994418E+02 -0.85964245669E+02 -0.55248665986E+02  0.10899177424E+03  0.00000000000E+00 0. -1.
        -14    1    4    4    0    0 -0.53307681649E+01 -0.37109329212E+01 -0.68377781860E+02  0.68685581926E+02  0.00000000000E+00 0.  1.
</event>
<event>
12    1  0.8526130E-002  0.2039972E+03  0.7818608E-02  0.1146730E+00
         21   -1    0    0  501  502  0.00000000000E+00  0.00000000000E+00  0.54683843130E+03  0.54683843130E+03  0.00000000000E+00 0. -1.
         21   -1    0    0  502  503 -0.00000000000E+00 -0.00000000000E+00 -0.10351143094E+03  0.10351143094E+03  0.00000000000E+00 0. -1.
         -6    2    1    2    0  503  0.10812674706E+03 -0.19364517963E+02  0.53193501984E+02  0.21081846832E+03  0.17189677119E+03 0.  0.
        -24    2    3    3    0    0  0.64472252150E+02 -0.59919886127E+01 -0.37604395944E+02  0.10907915569E+03  0.79319583877E+02 0.  0.
          6    2    1    2  501    0 -0.10812674706E+03  0.19364517963E+02  0.39013349838E+03  0.43953139392E+03  0.17005093853E+03 0.  0.
         24    2    5    5    0    0 -0.43874937424E+02  0.61124150331E+02  0.30847374279E+03  0.32744853341E+03  0.80033244045E+02 0.  0.
          5    1    5    5  501    0 -0.64251809633E+02 -0.41759632369E+02  0.81659755592E+02  0.11208286051E+03  0.47000000000E+01 0. -1.
        -11    1    6    6    0    0 -0.22141027260E+02  0.13484090397E+01  0.14105194259E+02  0.26286875055E+02  0.00000000000E+00 0.  1.
         12    1    6    6    0    0 -0.21733910164E+02  0.59775741292E+02  0.29436854853E+03  0.30116165835E+03  0.00000000000E+00 0. -1.
         -5    1    3    3    0  503  0.43654494907E+02 -0.13372529350E+02  0.90797897929E+02  0.10173931263E+03  0.47000000000E+01 0.  1.
         11    1    4    4    0    0  0.62699757786E+02  0.27377417736E+02 -0.30545095438E+02  0.74925199256E+02  0.00000000000E+00 0. -1.
        -12    1    4    4    0    0  0.17724943642E+01 -0.33369406348E+02 -0.70593005066E+01  0.34153956432E+02  0.00000000000E+00 0.  1.
</event>
<event>
12    1  0.8526130E-002  0.2449717E+03  0.7818608E-02  0.1116534E+00
         21   -1    0    0  501  502  0.00000000000E+00  0.00000000000E+00  0.55465586666E+02  0.55465586666E+02  0.00000000000E+00 0.  1.
         21   -1    0    0  502  503 -0.00000000000E+00 -0.00000000000E+00 -0.17961486599E+04  0.17961486599E+04  0.00000000000E+00 0. -1.
         -6    2    1    2    0  503  0.95464198949E+02 -0.14629550509E+03 -0.14542956162E+04  0.14747836621E+04  0.17174202388E+03 0.  0.
        -24    2    3    3    0    0  0.32331633196E+01 -0.22260864140E+02 -0.35912279175E+03  0.36874715213E+03  0.80618132163E+02 0.  0.
          6    2    1    2  501    0 -0.95464198949E+02  0.14629550509E+03 -0.28638745707E+03  0.37683058444E+03  0.17166166059E+03 0.  0.
         24    2    5    5    0    0 -0.33554888101E+02  0.67912870503E+02 -0.24436627753E+03  0.26836644427E+03  0.81040621415E+02 0.  0.
          5    1    5    5  501    0 -0.61909310849E+02  0.78382634588E+02 -0.42021179537E+02  0.10846414018E+03  0.47000000000E+01 0. -1.
        -13    1    6    6    0    0 -0.26089312659E+02  0.20629574465E+02 -0.19698617052E+02  0.38655751077E+02  0.00000000000E+00 0.  1.
         14    1    6    6    0    0 -0.74655754416E+01  0.47283296039E+02 -0.22466766048E+03  0.22971069319E+03  0.00000000000E+00 0. -1.
         -5    1    3    3    0  503  0.92231035629E+02 -0.12403464095E+03 -0.10951728244E+04  0.11060365100E+04  0.47000000000E+01 0.  1.
         11    1    4    4    0    0  0.46435740102E+01  0.22287357483E+02 -0.24764947894E+03  0.24869369414E+03  0.00000000000E+00 0. -1.
        -12    1    4    4    0    0 -0.14104106906E+01 -0.44548221623E+02 -0.11147331281E+03  0.12005345800E+03  0.00000000000E+00 0.  1.
</event>
<event>
12    1  0.8526130E-002  0.2004704E+03  0.7818608E-02  0.1149988E+00
         21   -1    0    0  501  502  0.00000000000E+00  0.00000000000E+00  0.15075516147E+03  0.15075516147E+03  0.00000000000E+00 0. -1.
         21   -1    0    0  502  503 -0.00000000000E+00 -0.00000000000E+00 -0.32440851744E+03  0.32440851744E+03  0.00000000000E+00 0. -1.
         -6    2    1    2    0  503 -0.31927337279E+02 -0.98068361934E+02 -0.19003344331E+03  0.27402522033E+03  0.16834593350E+03 0.  0.
        -24    2    3    3    0    0  0.13035089985E+01 -0.39237674531E+02 -0.20507012999E+02  0.91469367244E+02  0.80030077618E+02 0.  0.
          6    2    1    2  501    0  0.31927337279E+02  0.98068361934E+02  0.16380087344E+02  0.20113845858E+03  0.17190582823E+03 0.  0.
         24    2    5    5    0    0  0.15786035505E+02 -0.15144573693E+02  0.45976314806E+02  0.82919436857E+02  0.65446577117E+02 0.  0.
          5    1    5    5  501    0  0.16141301774E+02  0.11321293563E+03 -0.29596227462E+02  0.11821902172E+03  0.47000000000E+01 0. -1.
        -13    1    6    6    0    0  0.28332259783E+02 -0.24576247503E+02  0.35393143133E+01  0.37672743881E+02  0.00000000000E+00 0.  1.
         14    1    6    6    0    0 -0.12546224278E+02  0.94316738097E+01  0.42437000492E+02  0.45246692976E+02  0.00000000000E+00 0. -1.
         -5    1    3    3    0  503 -0.33230846277E+02 -0.58830687403E+02 -0.16952643031E+03  0.18255585309E+03  0.47000000000E+01 0.  1.
         13    1    4    4    0    0 -0.12200673130E+02 -0.26942883039E+02 -0.49230404823E+02  0.57431769347E+02  0.00000000000E+00 0. -1.
        -14    1    4    4    0    0  0.13504182128E+02 -0.12294791492E+02  0.28723391824E+02  0.34037597897E+02  0.00000000000E+00 0.  1.
</event>
<event>
12    1  0.8526130E-002  0.2091180E+03  0.7818608E-02  0.1143086E+00
         21   -1    0    0  501  502  0.00000000000E+00  0.00000000000E+00  0.78004219645E+03  0.78004219645E+03  0.00000000000E+00 0.  1.
         21   -1    0    0  502  503 -0.00000000000E+00 -0.00000000000E+00 -0.96731060091E+02  0.96731060091E+02  0.00000000000E+00 0. -1.
         -6    2    1    2    0  503 -0.41397368008E+02 -0.10424181250E+03  0.55545143217E+02  0.21636917441E+03  0.17649436010E+03 0.  0.
        -24    2    3    3    0    0  0.31186397875E+02 -0.57021236680E+02  0.75611023062E+02  0.12735841447E+03  0.79240936913E+02 0.  0.
          6    2    1    2  501    0  0.41397368008E+02  0.10424181250E+03  0.62776599314E+03  0.66040408213E+03  0.17164880425E+03 0.  0.
         24    2    5    5    0    0 -0.41208694524E+02  0.60110173532E+02  0.39632684544E+03  0.41068918027E+03  0.79241686664E+02 0.  0.
          5    1    5    5  501    0  0.82606062532E+02  0.44131638971E+02  0.23143914770E+03  0.24971490186E+03  0.47000000000E+01 0. -1.
        -11    1    6    6    0    0 -0.68047315023E+01  0.65220274408E+02  0.32223753539E+03  0.32884193433E+03  0.00000000000E+00 0.  1.
         12    1    6    6    0    0 -0.34403963022E+02 -0.51101008759E+01  0.74089310056E+02  0.81847245935E+02  0.00000000000E+00 0. -1.
         -5    1    3    3    0  503 -0.72583765883E+02 -0.47220575824E+02 -0.20065879845E+02  0.89010759938E+02  0.47000000000E+01 0.  1.
         13    1    4    4    0    0  0.14560262000E+02 -0.42913189546E+02 -0.33521682454E+01  0.45439851436E+02  0.00000000000E+00 0. -1.
        -14    1    4    4    0    0  0.16626135875E+02 -0.14108047133E+02  0.78963191308E+02  0.81918563034E+02  0.00000000000E+00 0.  1.
</event>
<event>
12    1  0.8526130E-002  0.3626101E+03  0.7818608E-02  0.1057595E+00
         21   -1    0    0  501  502  0.00000000000E+00  0.00000000000E+00  0.72023153956E+03  0.72023153956E+03  0.00000000000E+00 0. -1.
         21   -1    0    0  502  503 -0.00000000000E+00 -0.00000000000E+00 -0.26250240273E+03  0.26250240273E+03  0.00000000000E+00 0. -1.
         -6    2    1    2    0  503  0.21074302529E+02 -0.31814088657E+03 -0.42728926580E+02  0.36471746754E+03  0.17185843021E+03 0.  0.
        -24    2    3    3    0    0  0.41544366964E+02 -0.31982665985E+03 -0.59259638198E+02  0.33793650796E+03  0.81696706873E+02 0.  0.
          6    2    1    2  501    0 -0.21074302529E+02  0.31814088657E+03  0.50045806341E+03  0.61801647475E+03  0.17270882981E+03 0.  0.
         24    2    5    5    0    0 -0.23045011464E+02  0.63622055468E+02  0.11747090779E+03  0.15814152387E+03  0.81427814037E+02 0.  0.
          5    1    5    5  501    0  0.19707089346E+01  0.25451883110E+03  0.38298715562E+03  0.45987495088E+03  0.47000000000E+01 0. -1.
        -11    1    6    6    0    0  0.81557069123E+01 -0.17250870229E+02  0.24040289866E+02  0.30692729038E+02  0.00000000000E+00 0.  1.
         12    1    6    6    0    0 -0.31200718376E+02  0.80872925697E+02  0.93430617927E+02  0.12744879483E+03  0.00000000000E+00 0. -1.
         -5    1    3    3    0  503 -0.20470064435E+02  0.16857732878E+01  0.16530711618E+02  0.26780959583E+02  0.47000000000E+01 0.  1.
         11    1    4    4    0    0  0.62291581410E+02 -0.21197384645E+03 -0.56610566473E+02  0.22807434957E+03  0.00000000000E+00 0. -1.
        -12    1    4    4    0    0 -0.20747214446E+02 -0.10785281340E+03 -0.26490717254E+01  0.10986215839E+03  0.00000000000E+00 0.  1.
</event>
<event>
12    1  0.8526130E-002  0.1834441E+03  0.7818608E-02  0.1164853E+00
         21   -1    0    0  503  502  0.00000000000E+00  0.00000000000E+00  0.37962323610E+03  0.37962323610E+03  0.00000000000E+00 0. -1.
         21   -1    0    0  501  503 -0.00000000000E+00 -0.00000000000E+00 -0.14997447499E+03  0.14997447499E+03  0.00000000000E+00 0. -1.
          6    2    1    2  501    0  0.60153970082E+02 -0.12489257667E+02 -0.55733620705E+02  0.19034138908E+03  0.17131586688E+03 0.  0.
         24    2    3    3    0    0 -0.24129855160E+02 -0.26257699487E+02  0.23753056015E+01  0.86938920517E+02  0.79252868286E+02 0.  0.
         -6    2    1    2    0  502 -0.60153970082E+02  0.12489257667E+02  0.28538238181E+03  0.33925632202E+03  0.17285041657E+03 0.  0.
        -24    2    5    5    0    0 -0.81930324748E+02 -0.91869872855E+01  0.28628097511E+03  0.30816023404E+03  0.78796918006E+02 0.  0.
          5    1    3    3  501    0  0.84283825242E+02  0.13768441820E+02 -0.58108926306E+02  0.10340246856E+03  0.47000000000E+01 0. -1.
        -13    1    4    4    0    0  0.25307770739E+02 -0.15892987049E+02  0.16962058834E+02  0.34362504813E+02  0.00000000000E+00 0.  1.
         14    1    4    4    0    0 -0.49437625899E+02 -0.10364712439E+02 -0.14586753233E+02  0.52576415705E+02  0.00000000000E+00 0. -1.
         -5    1    5    5    0  502  0.21776354665E+02  0.21676244953E+02 -0.89859329388E+00  0.31096087980E+02  0.47000000000E+01 0.  1.
         13    1    6    6    0    0 -0.17363763117E+02  0.97578123601E+01  0.18799601912E+03  0.18904819062E+03  0.00000000000E+00 0. -1.
        -14    1    6    6    0    0 -0.64566561631E+02 -0.18944799646E+02  0.98284955983E+02  0.11911204342E+03  0.00000000000E+00 0.  1.
</event>
<event>
12    1  0.8526130E-002  0.1938004E+03  0.7818608E-02  0.1155278E+00
         21   -1    0    0  503  502  0.00000000000E+00  0.00000000000E+00  0.41386191339E+03  0.41386191339E+03  0.00000000000E+00 0. -1.
         21   -1    0    0  501  503 -0.00000000000E+00 -0.00000000000E+00 -0.95278313908E+02  0.95278313908E+02  0.00000000000E+00 0. -1.
          6    2    1    2  501    0 -0.88001679647E+02  0.51963782257E+01  0.10090116062E+03  0.21768827806E+03  0.17156877403E+03 0.  0.
         24    2    3    3    0    0  0.11430031542E+02 -0.31240786950E+02  0.49998415415E+02  0.10009783769E+03  0.80081852979E+02 0.  0.
         -6    2    1    2    0  502  0.88001679647E+02 -0.51963782257E+01  0.21768243887E+03  0.29145194924E+03  0.17258996656E+03 0.  0.
        -24    2    5    5    0    0  0.14022312593E+02 -0.59891867827E+02  0.10706364910E+03  0.14749657427E+03  0.80678084893E+02 0.  0.
          5    1    3    3  501    0 -0.99431711189E+02  0.36437165176E+02  0.50902745200E+02  0.11759044036E+03  0.47000000000E+01 0. -1.
        -13    1    4    4    0    0 -0.22192262554E+02 -0.41624037080E+02  0.43794131489E+02  0.64366007589E+02  0.00000000000E+00 0.  1.
         14    1    4    4    0    0  0.33622294096E+02  0.10383250130E+02  0.62042839258E+01  0.35731830104E+02  0.00000000000E+00 0. -1.
         -5    1    5    5    0  502  0.73979367054E+02  0.54695489601E+02  0.11061878977E+03  0.14395537497E+03  0.47000000000E+01 0.  1.
         13    1    6    6    0    0  0.19708336713E+02 -0.63506812822E+02  0.11753732558E+03  0.13504279586E+03  0.00000000000E+00 0. -1.
        -14    1    6    6    0    0 -0.56860241196E+01  0.36149449950E+01 -0.10473676481E+02  0.12453778408E+02  0.00000000000E+00 0.  1.
</event>
<event>
12    1  0.8526130E-002  0.1883888E+03  0.7818608E-02  0.1160043E+00
         21   -1    0    0  503  502  0.00000000000E+00  0.00000000000E+00  0.41287288179E+03  0.41287288179E+03  0.00000000000E+00 0.  1.
         21   -1    0    0  501  503 -0.00000000000E+00 -0.00000000000E+00 -0.15007834212E+03  0.15007834212E+03  0.00000000000E+00 0.  1.
          6    2    1    2  501    0  0.79189519733E+02  0.38419881714E+01 -0.52824276259E+02  0.19565467301E+03  0.17089355166E+03 0.  0.
         24    2    3    3    0    0  0.78730015380E+00  0.44934581236E+02 -0.54486381816E+02  0.10699599134E+03  0.80371885183E+02 0.  0.
         -6    2    1    2    0  502 -0.79189519733E+02 -0.38419881714E+01  0.31561881593E+03  0.36729655090E+03  0.17031082886E+03 0.  0.
        -24    2    5    5    0    0  0.65969133423E+01  0.18607042664E+02  0.18853785766E+03  0.21226451860E+03  0.95498485758E+02 0.  0.
          5    1    3    3  501    0  0.78402219579E+02 -0.41092593064E+02  0.16621055571E+01  0.88658681665E+02  0.47000000000E+01 0. -1.
        -13    1    4    4    0    0  0.21163067093E+02  0.61624497686E+02 -0.44126680301E+02  0.78693189275E+02  0.00000000000E+00 0.  1.
         14    1    4    4    0    0 -0.20375766939E+02 -0.16689916451E+02 -0.10359701515E+02  0.28302802069E+02  0.00000000000E+00 0. -1.
         -5    1    5    5    0  502 -0.85786433075E+02 -0.22449030836E+02  0.12708095826E+03  0.15503203230E+03  0.47000000000E+01 0.  1.
         11    1    6    6    0    0  0.18015701169E+02  0.34830461442E+02  0.22834499491E+02  0.45377757766E+02  0.00000000000E+00 0. -1.
        -12    1    6    6    0    0 -0.11418787826E+02 -0.16223418778E+02  0.16570335817E+03  0.16688676083E+03  0.00000000000E+00 0.  1.
</event>
<event>
12    1  0.8526130E-002  0.1732455E+03  0.7818608E-02  0.1175170E+00
         21   -1    0    0  503  502  0.00000000000E+00  0.00000000000E+00  0.25990232838E+03  0.25990232838E+03  0.00000000000E+00 0.  1.
         21   -1    0    0  501  503 -0.00000000000E+00 -0.00000000000E+00 -0.12022402391E+03  0.12022402391E+03  0.00000000000E+00 0.  1.
          6    2    1    2  501    0  0.17133059855E+02 -0.30001106190E+02  0.25272614433E+02  0.17251456483E+03  0.16711960366E+03 0.  0.
         24    2    3    3    0    0  0.71845634606E+02 -0.14344980543E+02 -0.47149769005E+01  0.10801707852E+03  0.79233102724E+02 0.  0.
         -6    2    1    2    0  502 -0.17133059855E+02  0.30001106190E+02  0.11440569004E+03  0.20761178745E+03  0.16976567457E+03 0.  0.
        -24    2    5    5    0    0  0.55849732058E+02  0.77716394903E+01  0.67612550193E+02  0.11798854804E+03  0.78550936176E+02 0.  0.
          5    1    3    3  501    0 -0.54712574750E+02 -0.15656125646E+02  0.29987591333E+02  0.64497486308E+02  0.47000000000E+01 0. -1.
        -13    1    4    4    0    0  0.23256773023E+01  0.26292762883E+02  0.51367180342E+01  0.26890593655E+02  0.00000000000E+00 0.  1.
         14    1    4    4    0    0  0.69519957303E+02 -0.40637743427E+02 -0.98516949346E+01  0.81126484870E+02  0.00000000000E+00 0. -1.
         -5    1    5    5    0  502 -0.72982791913E+02  0.22229466699E+02  0.46793139846E+02  0.89623239407E+02  0.47000000000E+01 0.  1.
         11    1    6    6    0    0  0.32950139371E+02  0.38352069572E+02  0.14570512056E+02  0.52620269351E+02  0.00000000000E+00 0. -1.
        -12    1    6    6    0    0  0.22899592687E+02 -0.30580430082E+02  0.53042038137E+02  0.65368278691E+02  0.00000000000E+00 0.  1.
</event>
<event>
12    1  0.8526130E-002  0.1873580E+03  0.7818608E-02  0.1164742E+00
         21   -1    0    0  503  502  0.00000000000E+00  0.00000000000E+00  0.47023155859E+03  0.47023155859E+03  0.00000000000E+00 0. -1.
         21   -1    0    0  501  503 -0.00000000000E+00 -0.00000000000E+00 -0.32187758136E+03  0.32187758136E+03  0.00000000000E+00 0. -1.
          6    2    1    2  501    0  0.40018782375E+00 -0.75551623455E+02 -0.27651936721E+03  0.33401493841E+03  0.17144914898E+03 0.  0.
         24    2    3    3    0    0 -0.44053083376E+02 -0.98225073822E+02 -0.17074785582E+03  0.21696844640E+03  0.79571585269E+02 0.  0.
         -6    2    1    2    0  502 -0.40018782375E+00  0.75551623455E+02  0.42487334444E+03  0.45809420154E+03  0.15370338549E+03 0.  0.
        -24    2    5    5    0    0 -0.24107937015E+02  0.61086385051E+02  0.41634577254E+03  0.42866445509E+03  0.78081199231E+02 0.  0.
          5    1    3    3  501    0  0.44453271200E+02  0.22673450368E+02 -0.10577151138E+03  0.11704649201E+03  0.47000000000E+01 0. -1.
        -11    1    4    4    0    0 -0.16907556309E+02 -0.80680587343E+02 -0.60968679349E+02  0.10253000778E+03  0.00000000000E+00 0.  1.
         12    1    4    4    0    0 -0.27145527067E+02 -0.17544486479E+02 -0.10977917647E+03  0.11443843862E+03  0.00000000000E+00 0. -1.
         -5    1    5    5    0  502  0.23707749191E+02  0.14465238404E+02  0.85275718965E+01  0.29429746452E+02  0.47000000000E+01 0.  1.
         13    1    6    6    0    0 -0.42149234287E+02  0.88373320700E+01  0.24082901938E+03  0.24464928564E+03  0.00000000000E+00 0. -1.
        -14    1    6    6    0    0  0.18041297272E+02  0.52249052981E+02  0.17551675316E+03  0.18401516944E+03  0.00000000000E+00 0.  1.
</event>
<event>
12    1  0.8526130E-002  0.2042079E+03  0.7818608E-02  0.1146285E+00
         21   -1    0    0  501  502  0.00000000000E+00  0.00000000000E+00  0.93694195642E+03  0.93694195642E+03  0.00000000000E+00 0.  1.
         21   -1    0    0  502  503 -0.00000000000E+00 -0.00000000000E+00 -0.66021290926E+02  0.66021290926E+02  0.00000000000E+00 0. -1.
         -6    2    1    2    0  503 -0.89340420763E+02 -0.62995256346E+02  0.14901968603E+03  0.25279976168E+03  0.17248402701E+03 0.  0.
        -24    2    3    3    0    0 -0.72281399992E+02 -0.10938503539E+03  0.10263945548E+03  0.18485686230E+03  0.80296419389E+02 0.  0.
          6    2    1    2  501    0  0.89340420763E+02  0.62995256346E+02  0.72190097947E+03  0.75016348567E+03  0.17220371069E+03 0.  0.
         24    2    5    5    0    0  0.67601360653E+02  0.36460431619E+02  0.21672136648E+03  0.24379878012E+03  0.81057926573E+02 0.  0.
          5    1    5    5  501    0  0.21739060110E+02  0.26534824727E+02  0.50517961298E+03  0.50636470556E+03  0.47000000000E+01 0. -1.
        -11    1    6    6    0    0  0.48798701936E+02  0.59194018551E+02  0.18603111201E+03  0.20122827778E+03  0.00000000000E+00 0.  1.
         12    1    6    6    0    0  0.18802658716E+02 -0.22733586932E+02  0.30690254476E+02  0.42570502339E+02  0.00000000000E+00 0. -1.
         -5    1    3    3    0  503 -0.17059020770E+02  0.46389779045E+02  0.46380230549E+02  0.67942899374E+02  0.47000000000E+01 0.  1.
         13    1    4    4    0    0 -0.64980380510E+02 -0.27590951880E+02  0.36851657274E+02  0.79635137475E+02  0.00000000000E+00 0. -1.
        -14    1    4    4    0    0 -0.73010194827E+01 -0.81794083510E+02  0.65787798208E+02  0.10522172483E+03  0.00000000000E+00 0.  1.
</event>
<event>
12    1  0.8526130E-002  0.3123273E+03  0.7818608E-02  0.1079444E+00
         21   -1    0    0  501  502  0.00000000000E+00  0.00000000000E+00  0.75121080584E+03  0.75121080584E+03  0.00000000000E+00 0. -1.
         21   -1    0    0  502  503 -0.00000000000E+00 -0.00000000000E+00 -0.26650218485E+03  0.26650218485E+03  0.00000000000E+00 0. -1.
         -6    2    1    2    0  503 -0.21525086987E+03 -0.14387779799E+03 -0.12265447986E+03  0.33554803107E+03  0.17468429234E+03 0.  0.
        -24    2    3    3    0    0 -0.46413640717E+02 -0.49978266706E+02  0.60431865948E+01  0.10336639684E+03  0.77434092645E+02 0.  0.
          6    2    1    2  501    0  0.21525086987E+03  0.14387779799E+03  0.60736310085E+03  0.68216495962E+03  0.17153815356E+03 0.  0.
         24    2    5    5    0    0  0.22945225885E+03  0.14396577527E+03  0.50215192845E+03  0.57589564144E+03  0.78260763109E+02 0.  0.
          5    1    5    5  501    0 -0.14201388979E+02 -0.87977285212E-01  0.10521117240E+03  0.10626931818E+03  0.47000000000E+01 0. -1.
        -13    1    6    6    0    0  0.37092267906E+02  0.63254712772E+02  0.12749148543E+03  0.14707506207E+03  0.00000000000E+00 0.  1.
         14    1    6    6    0    0  0.19235999094E+03  0.80711062501E+02  0.37466044302E+03  0.42882057937E+03  0.00000000000E+00 0. -1.
         -5    1    3    3    0  503 -0.16883722915E+03 -0.93899531282E+02 -0.12869766645E+03  0.23218163423E+03  0.47000000000E+01 0.  1.
         13    1    4    4    0    0 -0.44675445998E+02 -0.13695488766E+02  0.33783502887E+02  0.57660965609E+02  0.00000000000E+00 0. -1.
        -14    1    4    4    0    0 -0.17381947188E+01 -0.36282777940E+02 -0.27740316293E+02  0.45705431230E+02  0.00000000000E+00 0.  1.
</event>
<event>
12    1  0.8526130E-002  0.1939286E+03  0.7818608E-02  0.1154984E+00
         21   -1    0    0  503  502  0.00000000000E+00  0.00000000000E+00  0.49904838551E+02  0.49904838551E+02  0.00000000000E+00 0. -1.
         21   -1    0    0  501  503 -0.00000000000E+00 -0.00000000000E+00 -0.87277278433E+03  0.87277278433E+03  0.00000000000E+00 0. -1.
          6    2    1    2  501    0  0.53643864710E+02  0.71387317334E+02 -0.58206646936E+03  0.61349539375E+03  0.17205060331E+03 0.  0.
         24    2    3    3    0    0  0.21104294334E+02  0.11117540673E+03 -0.35813593030E+03  0.38369353992E+03  0.78447598473E+02 0.  0.
         -6    2    1    2    0  502 -0.53643864710E+02 -0.71387317334E+02 -0.24080147641E+03  0.30918222913E+03  0.17214670043E+03 0.  0.
        -24    2    5    5    0    0 -0.86716416065E+02 -0.12208281474E+02 -0.19272934644E+03  0.22594178452E+03  0.78970311271E+02 0.  0.
          5    1    3    3  501    0  0.32539570376E+02 -0.39788089391E+02 -0.22393053906E+03  0.22980185382E+03  0.47000000000E+01 0. -1.
        -11    1    4    4    0    0 -0.11655857198E+02 -0.79685457908E+01 -0.35494700652E+02  0.38199875699E+02  0.00000000000E+00 0.  1.
         12    1    4    4    0    0  0.32760151532E+02  0.11914395252E+03 -0.32264122965E+03  0.34549366422E+03  0.00000000000E+00 0. -1.
         -5    1    5    5    0  502  0.33072551355E+02 -0.59179035860E+02 -0.48072129979E+02  0.83240444612E+02  0.47000000000E+01 0.  1.
         11    1    6    6    0    0 -0.91205226349E+02 -0.31644248978E+02 -0.17154694530E+03  0.19684538666E+03  0.00000000000E+00 0. -1.
        -12    1    6    6    0    0  0.44888102844E+01  0.19435967504E+02 -0.21182401137E+02  0.29096397862E+02  0.00000000000E+00 0.  1.
</event>
<event>
12    1  0.8526130E-002  0.2011959E+03  0.7818608E-02  0.1152523E+00
         21   -1    0    0  501  502  0.00000000000E+00  0.00000000000E+00  0.41367651381E+02  0.41367651381E+02  0.00000000000E+00 0. -1.
         21   -1    0    0  502  503 -0.00000000000E+00 -0.00000000000E+00 -0.93607126321E+03  0.93607126321E+03  0.00000000000E+00 0. -1.
         -6    2    1    2    0  503 -0.63414357233E+02  0.40507449217E+01 -0.56706928203E+03  0.60170372015E+03  0.19089789674E+03 0.  0.
        -24    2    3    3    0    0  0.72167875802E+00 -0.45437830742E+02 -0.44900301063E+03  0.45844072885E+03  0.80616878069E+02 0.  0.
          6    2    1    2  501    0  0.63414357233E+02 -0.40507449217E+01 -0.32763432980E+03  0.37573519445E+03  0.17261197248E+03 0.  0.
         24    2    5    5    0    0  0.24812294715E+02  0.57284114469E+02 -0.24763129305E+03  0.26768585342E+03  0.80233029878E+02 0.  0.
          5    1    5    5  501    0  0.38602062518E+02 -0.61334859391E+02 -0.80003036758E+02  0.10804934103E+03  0.47000000000E+01 0. -1.
        -13    1    6    6    0    0 -0.22884469694E+02  0.34777278846E+02 -0.61792271821E+02  0.74508005838E+02  0.00000000000E+00 0.  1.
         14    1    6    6    0    0  0.47696764409E+02  0.22506835623E+02 -0.18583902122E+03  0.19317784758E+03  0.00000000000E+00 0. -1.
         -5    1    3    3    0  503 -0.64136035991E+02  0.49488575664E+02 -0.11806627140E+03  0.14326299130E+03  0.47000000000E+01 0.  1.
         13    1    4    4    0    0  0.10000938936E+02 -0.10238167323E+02 -0.38132848017E+03  0.38159697148E+03  0.00000000000E+00 0. -1.
        -14    1    4    4    0    0 -0.92792601776E+01 -0.35199663419E+02 -0.67674530453E+02  0.76843757367E+02  0.00000000000E+00 0.  1.
</event>
<event>
12    1  0.8526130E-002  0.1813335E+03  0.7818608E-02  0.1166645E+00
         21   -1    0    0  501  502  0.00000000000E+00  0.00000000000E+00  0.28342994794E+03  0.28342994794E+03  0.00000000000E+00 0. -1.
         21   -1    0    0  502  503 -0.00000000000E+00 -0.00000000000E+00 -0.16357552452E+03  0.16357552452E+03  0.00000000000E+00 0. -1.
         -6    2    1    2    0  503  0.37839767000E+02  0.43014488444E+02 -0.61076364149E+02  0.19084576225E+03  0.17149253200E+03 0.  0.
        -24    2    3    3    0    0  0.63031080453E+02  0.53963890321E+02 -0.94909607896E+02  0.14701346757E+03  0.75631391724E+02 0.  0.
          6    2    1    2  501    0 -0.37839767000E+02 -0.43014488444E+02  0.18093078758E+03  0.25615971021E+03  0.17204578768E+03 0.  0.
         24    2    5    5    0    0 -0.80602667523E+02 -0.56589680904E+02  0.16508106805E+03  0.20834490998E+03  0.80353347720E+02 0.  0.
          5    1    5    5  501    0  0.42762900523E+02  0.13575192460E+02  0.15849719523E+02  0.47814800223E+02  0.47000000000E+01 0. -1.
        -11    1    6    6    0    0  0.22696302366E+01  0.45049773757E+01 -0.65097591448E+01  0.82354724630E+01  0.00000000000E+00 0.  1.
         12    1    6    6    0    0 -0.82872297760E+02 -0.61094658280E+02  0.17159082720E+03  0.20010943752E+03  0.00000000000E+00 0. -1.
         -5    1    3    3    0  503 -0.25191313453E+02 -0.10949401877E+02  0.33833243747E+02  0.43832294686E+02  0.47000000000E+01 0.  1.
         13    1    4    4    0    0  0.53542943916E+01  0.49575927276E+02 -0.23524575877E+02  0.55134804832E+02  0.00000000000E+00 0. -1.
        -14    1    4    4    0    0  0.57676786062E+02  0.43879630451E+01 -0.71385032019E+02  0.91878662737E+02  0.00000000000E+00 0.  1.
</event>
<event>
12    1  0.8526130E-002  0.1850312E+03  0.7818608E-02  0.1163757E+00
         21   -1    0    0  503  502  0.00000000000E+00  0.00000000000E+00  0.36248505576E+03  0.36248505576E+03  0.00000000000E+00 0. -1.
         21   -1    0    0  501  503 -0.00000000000E+00 -0.00000000000E+00 -0.15151652507E+03  0.15151652507E+03  0.00000000000E+00 0. -1.
          6    2    1    2  501    0 -0.18565970350E+02 -0.59262606723E+02 -0.53864622034E+02  0.19271206991E+03  0.17429799933E+03 0.  0.
         24    2    3    3    0    0  0.34633430571E+02 -0.25824718002E+02 -0.86154174018E+02  0.12190971241E+03  0.74652834547E+02 0.  0.
         -6    2    1    2    0  502  0.18565970350E+02  0.59262606723E+02  0.26483315272E+03  0.32128951091E+03  0.17097835895E+03 0.  0.
        -24    2    5    5    0    0  0.59940009551E+02  0.86670352913E+02  0.18208840109E+03  0.22468837430E+03  0.78893123381E+02 0.  0.
          5    1    3    3  501    0 -0.53199400921E+02 -0.33437888721E+02  0.32289551984E+02  0.70802357502E+02  0.47000000000E+01 0. -1.
        -11    1    4    4    0    0  0.12558165569E+02  0.16281547260E+02  0.30892023060E+01  0.20792774575E+02  0.00000000000E+00 0.  1.
         12    1    4    4    0    0  0.22075265002E+02 -0.42106265262E+02 -0.89243376324E+02  0.10111693783E+03  0.00000000000E+00 0. -1.
         -5    1    5    5    0  502 -0.41374039202E+02 -0.27407746190E+02  0.82744751634E+02  0.96601136608E+02  0.47000000000E+01 0.  1.
         11    1    6    6    0    0  0.57660992713E+02  0.35244947096E+02  0.14868994318E+03  0.16332695913E+03  0.00000000000E+00 0. -1.
        -12    1    6    6    0    0  0.22790168380E+01  0.51425405817E+02  0.33398457911E+02  0.61361415173E+02  0.00000000000E+00 0.  1.
</event>
<event>
12    1  0.8526130E-002  0.1758802E+03  0.7818608E-02  0.1171916E+00
         21   -1    0    0  503  502  0.00000000000E+00  0.00000000000E+00  0.66914244372E+03  0.66914244372E+03  0.00000000000E+00 0. -1.
         21   -1    0    0  501  503 -0.00000000000E+00 -0.00000000000E+00 -0.46372714598E+02  0.46372714598E+02  0.00000000000E+00 0. -1.
          6    2    1    2  501    0 -0.22293562485E+02  0.27781332905E+02  0.28694852287E+03  0.33642448742E+03  0.17196853077E+03 0.  0.
         24    2    3    3    0    0 -0.16082894310E+02  0.75365623852E+02  0.25608153167E+03  0.27917330150E+03  0.80133293075E+02 0.  0.
         -6    2    1    2    0  502  0.22293562485E+02 -0.27781332905E+02  0.33582120626E+03  0.37909067090E+03  0.17223544584E+03 0.  0.
        -24    2    5    5    0    0  0.73523129513E+02  0.29350477350E+02  0.21959555163E+03  0.23973858059E+03  0.54637712530E+02 0.  0.
          5    1    3    3  501    0 -0.62106681751E+01 -0.47584290947E+02  0.30866991193E+02  0.57251185922E+02  0.47000000000E+01 0. -1.
        -11    1    4    4    0    0 -0.13261869773E+02  0.17610064621E+02  0.19037064795E+03  0.19164283228E+03  0.00000000000E+00 0.  1.
         12    1    4    4    0    0 -0.28210245374E+01  0.57755559231E+02  0.65710883727E+02  0.87530469219E+02  0.00000000000E+00 0. -1.
         -5    1    5    5    0  502 -0.51229567028E+02 -0.57131810255E+02  0.11622565462E+03  0.13935209031E+03  0.47000000000E+01 0.  1.
         13    1    6    6    0    0  0.45317055024E+00  0.34260106468E+01  0.79858656851E+02  0.79933397192E+02  0.00000000000E+00 0. -1.
        -14    1    6    6    0    0  0.73069958962E+02  0.25924466703E+02  0.13973689478E+03  0.15980518340E+03  0.00000000000E+00 0.  1.
</event>
<event>
12    1  0.8526130E-002  0.2088157E+03  0.7818608E-02  0.1142667E+00
         21   -1    0    0  501  502  0.00000000000E+00  0.00000000000E+00  0.60217553010E+02  0.60217553010E+02  0.00000000000E+00 0. -1.
         21   -1    0    0  502  503 -0.00000000000E+00 -0.00000000000E+00 -0.77845421500E+03  0.77845421500E+03  0.00000000000E+00 0. -1.
         -6    2    1    2    0  503 -0.98163973371E+02 -0.63272040212E+02 -0.47206078736E+03  0.51586133413E+03  0.17213951420E+03 0.  0.
        -24    2    3    3    0    0 -0.54603964236E+02 -0.73353093258E+02 -0.44953649824E+03  0.46557678753E+03  0.79475861973E+02 0.  0.
          6    2    1    2  501    0  0.98163973371E+02  0.63272040212E+02 -0.24617587463E+03  0.32281043388E+03  0.17310256564E+03 0.  0.
         24    2    5    5    0    0  0.36547518037E+02  0.97581270556E+02 -0.21061508785E+03  0.24368793132E+03  0.64554374004E+02 0.  0.
          5    1    5    5  501    0  0.61616455334E+02 -0.34309230343E+02 -0.35560786782E+02  0.79122502560E+02  0.47000000000E+01 0. -1.
        -11    1    6    6    0    0  0.85172613498E+01 -0.89445349867E+01 -0.18785506362E+02  0.22482075000E+02  0.00000000000E+00 0.  1.
         12    1    6    6    0    0  0.28030256687E+02  0.10652580554E+03 -0.19182958149E+03  0.22120585632E+03  0.00000000000E+00 0. -1.
         -5    1    3    3    0  503 -0.43560009135E+02  0.10081053046E+02 -0.22524289114E+02  0.50284546597E+02  0.47000000000E+01 0.  1.
         13    1    4    4    0    0  0.29216902296E+01 -0.22818320931E+02 -0.26204237834E+03  0.26305022351E+03  0.00000000000E+00 0. -1.
        -14    1    4    4    0    0 -0.57525654465E+02 -0.50534772327E+02 -0.18749411990E+03  0.20252656402E+03  0.00000000000E+00 0.  1.
</event>
<event>
12    1  0.8526130E-002  0.2698274E+03  0.7818608E-02  0.1101423E+00
         21   -1    0    0  503  502  0.00000000000E+00  0.00000000000E+00  0.25560550729E+03  0.25560550729E+03  0.00000000000E+00 0. -1.
         21   -1    0    0  501  503 -0.00000000000E+00 -0.00000000000E+00 -0.76785774010E+03  0.76785774010E+03  0.00000000000E+00 0.  1.
          6    2    1    2  501    0  0.17107377415E+03  0.11459992302E+03 -0.66207527482E+03  0.71483117057E+03  0.17389811481E+03 0.  0.
         24    2    3    3    0    0  0.11320408835E+03  0.11273968202E+03 -0.61481454795E+03  0.63994440716E+03  0.77501705488E+02 0.  0.
         -6    2    1    2    0  502 -0.17107377415E+03 -0.11459992302E+03  0.14982304202E+03  0.30863207682E+03  0.17437728167E+03 0.  0.
        -24    2    5    5    0    0 -0.12047005221E+03 -0.11115787029E+03  0.17434262928E+03  0.25209992171E+03  0.79308968831E+02 0.  0.
          5    1    3    3  501    0  0.57869685800E+02  0.18602410063E+01 -0.47260726867E+02  0.74886763418E+02  0.47000000000E+01 0. -1.
        -11    1    4    4    0    0  0.12366693423E+03  0.11075000511E+03 -0.59066805239E+03  0.61355343889E+03  0.00000000000E+00 0.  1.
         12    1    4    4    0    0 -0.10462845885E+02  0.19896769115E+01 -0.24146495564E+02  0.26390968270E+02  0.00000000000E+00 0. -1.
         -5    1    5    5    0  502 -0.50603721939E+02 -0.34420527299E+01 -0.24519587260E+02  0.56532155101E+02  0.47000000000E+01 0.  1.
         13    1    6    6    0    0 -0.24515664108E+02 -0.90680885231E+00  0.65270718051E+02  0.69728808421E+02  0.00000000000E+00 0. -1.
        -14    1    6    6    0    0 -0.95954388103E+02 -0.11025106144E+03  0.10907191123E+03  0.18237111329E+03  0.00000000000E+00 0.  1.
</event>
<event>
12    1  0.8526130E-002  0.1845697E+03  0.7818608E-02  0.1163719E+00
         21   -1    0    0  503  502  0.00000000000E+00  0.00000000000E+00  0.87697238038E+03  0.87697238038E+03  0.00000000000E+00 0.  1.
         21   -1    0    0  501  503 -0.00000000000E+00 -0.00000000000E+00 -0.68040287906E+02  0.68040287906E+02  0.00000000000E+00 0.  1.
          6    2    1    2  501    0 -0.38609877503E+02 -0.53026685414E+02  0.92983526670E+02  0.20565597254E+03  0.17130642371E+03 0.  0.
         24    2    3    3    0    0 -0.80981265286E+02  0.12795137646E+01  0.49205540261E+02  0.12390574400E+03  0.79823841815E+02 0.  0.
         -6    2    1    2    0  502  0.38609877503E+02  0.53026685414E+02  0.71594856580E+03  0.73935669574E+03  0.17252078906E+03 0.  0.
        -24    2    5    5    0    0  0.44612190767E+02  0.10058681258E+03  0.55258076103E+03  0.56903604786E+03  0.79677925867E+02 0.  0.
          5    1    3    3  501    0  0.42371387783E+02 -0.54306199179E+02  0.43777986409E+02  0.81750228538E+02  0.47000000000E+01 0. -1.
        -11    1    4    4    0    0 -0.76887803447E+02 -0.24414732100E+02  0.54498551646E+02  0.97354535559E+02  0.00000000000E+00 0.  1.
         12    1    4    4    0    0 -0.40934618393E+01  0.25694245865E+02 -0.52930113848E+01  0.26551208445E+02  0.00000000000E+00 0. -1.
         -5    1    5    5    0  502 -0.60023132640E+01 -0.47560127162E+02  0.16336780477E+03  0.17032064789E+03  0.47000000000E+01 0.  1.
         11    1    6    6    0    0  0.30343068891E+02  0.93366684262E+02  0.29393688173E+03  0.30989825750E+03  0.00000000000E+00 0. -1.
        -12    1    6    6    0    0  0.14269121876E+02  0.72201283148E+01  0.25864387930E+03  0.25913779036E+03  0.00000000000E+00 0.  1.
</event>
<event>
12    1  0.8526130E-002  0.1788413E+03  0.7818608E-02  0.1169086E+00
         21   -1    0    0  503  502  0.00000000000E+00  0.00000000000E+00  0.35079246941E+03  0.35079246941E+03  0.00000000000E+00 0. -1.
         21   -1    0    0  501  503 -0.00000000000E+00 -0.00000000000E+00 -0.30720635283E+03  0.30720635283E+03  0.00000000000E+00 0. -1.
          6    2    1    2  501    0 -0.30040754281E+02  0.36360053866E+02 -0.25429415156E+03  0.31088537452E+03  0.17251000012E+03 0.  0.
         24    2    3    3    0    0 -0.86807063786E+02  0.27503945551E+02 -0.15658367089E+03  0.19743815075E+03  0.78558538922E+02 0.  0.
         -6    2    1    2    0  502  0.30040754281E+02 -0.36360053866E+02  0.29788026813E+03  0.34711344772E+03  0.17184467116E+03 0.  0.
        -24    2    5    5    0    0 -0.77945666806E+01 -0.80492275055E+02  0.22782470787E+03  0.25595953402E+03  0.84091758946E+02 0.  0.
          5    1    3    3  501    0  0.56766309505E+02  0.88561083148E+01 -0.97710480676E+02  0.11344722378E+03  0.47000000000E+01 0. -1.
        -11    1    4    4    0    0 -0.24826619060E+01  0.83559513908E+01  0.78007675594E+01  0.11697756550E+02  0.00000000000E+00 0.  1.
         12    1    4    4    0    0 -0.84324401880E+02  0.19147994160E+02 -0.16438443845E+03  0.18574039420E+03  0.00000000000E+00 0. -1.
         -5    1    5    5    0  502  0.37835320961E+02  0.44132221189E+02  0.70055560262E+02  0.91153913701E+02  0.47000000000E+01 0.  1.
         11    1    6    6    0    0 -0.32459198027E+02 -0.46003326476E+02  0.57649068252E+02  0.80581143288E+02  0.00000000000E+00 0. -1.
        -12    1    6    6    0    0  0.24664631346E+02 -0.34488948579E+02  0.17017563962E+03  0.17537839073E+03  0.00000000000E+00 0.  1.
</event>
<event>
12    1  0.8526130E-002  0.1796319E+03  0.7818608E-02  0.1168471E+00
         21   -1    0    0  503  502  0.00000000000E+00  0.00000000000E+00  0.88185511578E+02  0.88185511578E+02  0.00000000000E+00 0. -1.
         21   -1    0    0  501  503 -0.00000000000E+00 -0.00000000000E+00 -0.10467671413E+04  0.10467671413E+04  0.00000000000E+00 0. -1.
          6    2    1    2  501    0  0.39320350070E+02 -0.33664866998E+02 -0.93723761760E+03  0.95405718026E+03  0.17067905012E+03 0.  0.
         24    2    3    3    0    0  0.53825189569E+02 -0.64265896166E+02 -0.44747528615E+03  0.46310296176E+03  0.84870283548E+02 0.  0.
         -6    2    1    2    0  502 -0.39320350070E+02  0.33664866998E+02 -0.21344012124E+02  0.18089547263E+03  0.17201218551E+03 0.  0.
        -24    2    5    5    0    0 -0.86272918551E+02  0.41017034432E+02 -0.37894756248E+02  0.13035227146E+03  0.80189079898E+02 0.  0.
          5    1    3    3  501    0 -0.14504839499E+02  0.30601029167E+02 -0.48976233145E+03  0.49095421850E+03  0.47000000000E+01 0. -1.
        -11    1    4    4    0    0 -0.20726301058E+02 -0.24588087349E+02 -0.83996072151E+02  0.89941612905E+02  0.00000000000E+00 0.  1.
         12    1    4    4    0    0  0.74551490627E+02 -0.39677808817E+02 -0.36347921400E+03  0.37316134885E+03  0.00000000000E+00 0. -1.
         -5    1    5    5    0  502  0.46952568481E+02 -0.73521674336E+01  0.16550744124E+02  0.50543201165E+02  0.47000000000E+01 0.  1.
         11    1    6    6    0    0 -0.37965335391E+02  0.43072003485E+02  0.14334705454E+02  0.59178103687E+02  0.00000000000E+00 0. -1.
        -12    1    6    6    0    0 -0.48307583160E+02 -0.20549690531E+01 -0.52229461702E+02  0.71174167773E+02  0.00000000000E+00 0.  1.
</event>
<event>
12    1  0.8526130E-002  0.3068481E+03  0.7818608E-02  0.1082290E+00
         21   -1    0    0  501  502  0.00000000000E+00  0.00000000000E+00  0.23554982618E+03  0.23554982618E+03  0.00000000000E+00 0.  1.
         21   -1    0    0  502  503 -0.00000000000E+00 -0.00000000000E+00 -0.48204213075E+03  0.48204213075E+03  0.00000000000E+00 0. -1.
         -6    2    1    2    0  503  0.24706209367E+03 -0.36944587246E+02 -0.27608735053E+03  0.41277113166E+03  0.17818866785E+03 0.  0.
        -24    2    3    3    0    0  0.22042733036E+03 -0.27344745140E+02 -0.29089009622E+03  0.38047904492E+03  0.10397746145E+03 0.  0.
          6    2    1    2  501    0 -0.24706209367E+03  0.36944587246E+02  0.29595045954E+02  0.30482082528E+03  0.17214902881E+03 0.  0.
         24    2    5    5    0    0 -0.24526353963E+03  0.67800221556E+02  0.53689548278E+01  0.26526961219E+03  0.74753378265E+02 0.  0.
          5    1    5    5  501    0 -0.17985540452E+01 -0.30855634310E+02  0.24226091126E+02  0.39551213086E+02  0.47000000000E+01 0. -1.
        -11    1    6    6    0    0 -0.84010565488E+02  0.55113581957E+02  0.21389898107E+02  0.10272686976E+03  0.00000000000E+00 0.  1.
         12    1    6    6    0    0 -0.16125297414E+03  0.12686639599E+02 -0.16020943279E+02  0.16254274243E+03  0.00000000000E+00 0. -1.
         -5    1    3    3    0  503  0.26634763316E+02 -0.95998421052E+01  0.14802745697E+02  0.32292086732E+02  0.47000000000E+01 0.  1.
         13    1    4    4    0    0  0.14157684322E+03  0.30476030654E+02 -0.14566351210E+03  0.20540362640E+03  0.00000000000E+00 0. -1.
        -14    1    4    4    0    0  0.78850487135E+02 -0.57820775794E+02 -0.14522658413E+03  0.17507541853E+03  0.00000000000E+00 0.  1.
</event>
<event>
12    1  0.8526130E-002  0.2098730E+03  0.7818608E-02  0.1141822E+00
         21   -1    0    0  501  502  0.00000000000E+00  0.00000000000E+00  0.33453936594E+03  0.33453936594E+03  0.00000000000E+00 0. -1.
         21   -1    0    0  502  503 -0.00000000000E+00 -0.00000000000E+00 -0.20337098873E+03  0.20337098873E+03  0.00000000000E+00 0. -1.
         -6    2    1    2    0  503 -0.99824702317E+01  0.11919596063E+03 -0.94587026070E+02  0.23020288730E+03  0.17245097007E+03 0.  0.
        -24    2    3    3    0    0 -0.14085740269E+02  0.60403228126E+02  0.19677011254E+02  0.10154915651E+03  0.77962095718E+02 0.  0.
          6    2    1    2  501    0  0.99824702317E+01 -0.11919596063E+03  0.22575540328E+03  0.30770746737E+03  0.17149652074E+03 0.  0.
         24    2    5    5    0    0  0.36634850650E+02 -0.28580092541E+02  0.18068599732E+03  0.20294618500E+03  0.79879849812E+02 0.  0.
          5    1    5    5  501    0 -0.26652380418E+02 -0.90615868091E+02  0.45069405959E+02  0.10476128238E+03  0.47000000000E+01 0. -1.
        -11    1    6    6    0    0  0.38624570109E+02  0.15549162014E+02  0.50394977220E+02  0.65370387672E+02  0.00000000000E+00 0.  1.
         12    1    6    6    0    0 -0.19897194591E+01 -0.44129254555E+02  0.13029102010E+03  0.13757579732E+03  0.00000000000E+00 0. -1.
         -5    1    3    3    0  503  0.41032700375E+01  0.58792732506E+02 -0.11426403732E+03  0.12865373079E+03  0.47000000000E+01 0.  1.
         13    1    4    4    0    0 -0.17624471591E+02  0.59842591298E+02 -0.17030818186E+02  0.64666888747E+02  0.00000000000E+00 0. -1.
        -14    1    4    4    0    0  0.35387313215E+01  0.56063682768E+00  0.36707829440E+02  0.36882267762E+02  0.00000000000E+00 0.  1.
</event>
<event>
12    1  0.8526130E-002  0.1845615E+03  0.7818608E-02  0.1164021E+00
         21   -1    0    0  501  502  0.00000000000E+00  0.00000000000E+00  0.13860556914E+04  0.13860556914E+04  0.00000000000E+00 0. -1.
         21   -1    0    0  502  503 -0.00000000000E+00 -0.00000000000E+00 -0.25612509364E+02  0.25612509364E+02  0.00000000000E+00 0. -1.
         -6    2    1    2    0  503 -0.22863972893E+02  0.59945154983E+02  0.52219713175E+03  0.55385267629E+03  0.17305132119E+03 0.  0.
        -24    2    3    3    0    0  0.82989941897E+01  0.10317053408E+03  0.35705759475E+03  0.38026488698E+03  0.79988911090E+02 0.  0.
          6    2    1    2  501    0  0.22863972893E+02 -0.59945154983E+02  0.83824605031E+03  0.85781552450E+03  0.17051349022E+03 0.  0.
         24    2    5    5    0    0  0.36020314983E+02 -0.29310992912E+02  0.22911776394E+03  0.24775741212E+03  0.82049912308E+02 0.  0.
          5    1    5    5  501    0 -0.13156342091E+02 -0.30634162071E+02  0.60912828637E+03  0.61005811238E+03  0.47000000000E+01 0. -1.
        -11    1    6    6    0    0  0.58432130200E+02 -0.27447040013E+02  0.20434066048E+03  0.21429596210E+03  0.00000000000E+00 0.  1.
         12    1    6    6    0    0 -0.22411815217E+02 -0.18639528992E+01  0.24777103460E+02  0.33461450023E+02  0.00000000000E+00 0. -1.
         -5    1    3    3    0  503 -0.31162967082E+02 -0.43225379099E+02  0.16513953700E+03  0.17358778930E+03  0.47000000000E+01 0.  1.
         11    1    4    4    0    0  0.21693393009E+02  0.18050222796E+02  0.19205970286E+03  0.19412198049E+03  0.00000000000E+00 0. -1.
        -12    1    4    4    0    0 -0.13394398820E+02  0.85120311286E+02  0.16499789188E+03  0.18614290650E+03  0.00000000000E+00 0.  1.
</event>
<event>
12    1  0.8526130E-002  0.2204090E+03  0.7818608E-02  0.1133974E+00
         21   -1    0    0  501  502  0.00000000000E+00  0.00000000000E+00  0.95068858791E+03  0.95068858791E+03  0.00000000000E+00 0. -1.
         21   -1    0    0  502  503 -0.00000000000E+00 -0.00000000000E+00 -0.57771268246E+02  0.57771268246E+02  0.00000000000E+00 0. -1.
         -6    2    1    2    0  503 -0.13358537627E+03 -0.19720527115E+02  0.26704431897E+03  0.34491094446E+03  0.17151367109E+03 0.  0.
        -24    2    3    3    0    0 -0.96811572932E+02  0.28101147241E+02  0.88844025808E+02  0.15671779997E+03  0.80653907373E+02 0.  0.
          6    2    1    2  501    0  0.13358537627E+03  0.19720527115E+02  0.62587300069E+03  0.66354891170E+03  0.17420158805E+03 0.  0.
         24    2    5    5    0    0  0.83238452005E+02  0.39979457801E+02  0.20515948668E+03  0.23932351414E+03  0.81598606059E+02 0.  0.
          5    1    5    5  501    0  0.50346924262E+02 -0.20258930686E+02  0.42071351401E+03  0.42422539755E+03  0.47000000000E+01 0. -1.
        -11    1    6    6    0    0  0.86210704196E+02  0.14965746481E+02  0.10823904573E+03  0.13918315309E+03  0.00000000000E+00 0.  1.
         12    1    6    6    0    0 -0.29722521913E+01  0.25013711320E+02  0.96920440950E+02  0.10014036105E+03  0.00000000000E+00 0. -1.
         -5    1    3    3    0  503 -0.36773803334E+02 -0.47821674356E+02  0.17820029316E+03  0.18819314449E+03  0.47000000000E+01 0.  1.
         11    1    4    4    0    0 -0.94756693272E+02  0.78201421781E+01  0.38817601926E+02  0.10269757428E+03  0.00000000000E+00 0. -1.
        -12    1    4    4    0    0 -0.20548796601E+01  0.20281005063E+02  0.50026423883E+02  0.54020225687E+02  0.00000000000E+00 0.  1.
</event>
<event>
12    1  0.8526130E-002  0.2075856E+03  0.7818608E-02  0.1143594E+00
         21   -1    0    0  501  502  0.00000000000E+00  0.00000000000E+00  0.20578053471E+03  0.20578053471E+03  0.00000000000E+00 0. -1.
         21   -1    0    0  502  503 -0.00000000000E+00 -0.00000000000E+00 -0.20969769421E+03  0.20969769421E+03  0.00000000000E+00 0.  1.
         -6    2    1    2    0  503 -0.86604819326E+01 -0.11572554230E+03 -0.14799159185E+02  0.20811241814E+03  0.17211728090E+03 0.  0.
        -24    2    3    3    0    0  0.44265386849E+02 -0.30246454866E+02  0.26377400744E+02  0.99367666254E+02  0.79397061167E+02 0.  0.
          6    2    1    2  501    0  0.86604819326E+01  0.11572554230E+03  0.10881999689E+02  0.20736581078E+03  0.17150730734E+03 0.  0.
         24    2    5    5    0    0 -0.59486554275E+02  0.80973567832E+02  0.24092869781E+02  0.12959476628E+03  0.78223834253E+02 0.  0.
          5    1    5    5  501    0  0.68147036208E+02  0.34751974472E+02 -0.13210870092E+02  0.77771044497E+02  0.47000000000E+01 0. -1.
        -13    1    6    6    0    0 -0.63001910793E+02  0.42910499986E+02 -0.11829417029E+02  0.77139399012E+02  0.00000000000E+00 0.  1.
         14    1    6    6    0    0  0.35153565179E+01  0.38063067846E+02  0.35922286810E+02  0.52455367266E+02  0.00000000000E+00 0. -1.
         -5    1    3    3    0  503 -0.52925868782E+02 -0.85479087438E+02 -0.41176559929E+02  0.10874475189E+03  0.47000000000E+01 0.  1.
         11    1    4    4    0    0  0.26006121789E+02 -0.35439795316E+02  0.51609031225E+02  0.67792252998E+02  0.00000000000E+00 0. -1.
        -12    1    4    4    0    0  0.18259265060E+02  0.51933404496E+01 -0.25231630482E+02  0.31575413256E+02  0.00000000000E+00 0.  1.
</event>
<event>
12    1  0.8526130E-002  0.1874078E+03  0.7818608E-02  0.1161077E+00
         21   -1    0    0  501  502  0.00000000000E+00  0.00000000000E+00  0.66916284991E+03  0.66916284991E+03  0.00000000000E+00 0. -1.
         21   -1    0    0  502  503 -0.00000000000E+00 -0.00000000000E+00 -0.19577623948E+03  0.19577623948E+03  0.00000000000E+00 0. -1.
         -6    2    1    2    0  503 -0.60671844973E+02  0.43048065639E+02 -0.13350505449E+03  0.23009845393E+03  0.17201014563E+03 0.  0.
        -24    2    3    3    0    0 -0.95206557185E+02 -0.15277406284E+02 -0.11158269916E+03  0.15870386951E+03  0.58638995298E+02 0.  0.
          6    2    1    2  501    0  0.60671844973E+02 -0.43048065639E+02  0.60689166492E+03  0.63484063546E+03  0.17079499628E+03 0.  0.
         24    2    5    5    0    0 -0.19090007509E+02  0.10588730845E+02  0.19633327259E+03  0.21315456436E+03  0.80072247211E+02 0.  0.
          5    1    5    5  501    0  0.79761852482E+02 -0.53636796484E+02  0.41055839233E+03  0.42168607110E+03  0.47000000000E+01 0. -1.
        -13    1    6    6    0    0 -0.33619333005E+02 -0.19549362193E+02  0.51655440052E+02  0.64658499835E+02  0.00000000000E+00 0.  1.
         14    1    6    6    0    0  0.14529325496E+02  0.30138093038E+02  0.14467783254E+03  0.14849606453E+03  0.00000000000E+00 0. -1.
         -5    1    3    3    0  503  0.34534712211E+02  0.58325471922E+02 -0.21922355327E+02  0.71394584427E+02  0.47000000000E+01 0.  1.
         11    1    4    4    0    0 -0.41073135453E+02 -0.27474113264E+02 -0.23786938870E+02  0.54842026005E+02  0.00000000000E+00 0. -1.
        -12    1    4    4    0    0 -0.54133421732E+02  0.12196706981E+02 -0.87795760295E+02  0.10386184350E+03  0.00000000000E+00 0.  1.
</event>
<event>
12    1  0.8526130E-002  0.2022613E+03  0.7818608E-02  0.1147862E+00
         21   -1    0    0  501  502  0.00000000000E+00  0.00000000000E+00  0.87481214913E+03  0.87481214913E+03  0.00000000000E+00 0. -1.
         21   -1    0    0  502  503 -0.00000000000E+00 -0.00000000000E+00 -0.67816188341E+02  0.67816188341E+02  0.00000000000E+00 0.  1.
         -6    2    1    2    0  503  0.44374644671E+02  0.97677658857E+02  0.14072761032E+03  0.24633589767E+03  0.17136825857E+03 0.  0.
        -24    2    3    3    0    0  0.12167828135E+02 -0.14467804485E+02  0.75586048273E+02  0.11262203494E+03  0.81320960723E+02 0.  0.
          6    2    1    2  501    0 -0.44374644671E+02 -0.97677658857E+02  0.66626835048E+03  0.69629243981E+03  0.17146315276E+03 0.  0.
         24    2    5    5    0    0 -0.31389894593E+02  0.52075660287E+01  0.18847522170E+03  0.20735242596E+03  0.80372104177E+02 0.  0.
          5    1    5    5  501    0 -0.12984750078E+02 -0.10288522489E+03  0.47779312878E+03  0.48894001385E+03  0.47000000000E+01 0. -1.
        -11    1    6    6    0    0 -0.50242606854E+02 -0.10910952046E+02  0.73280720954E+02  0.89517777462E+02  0.00000000000E+00 0.  1.
         12    1    6    6    0    0  0.18852712261E+02  0.16118518075E+02  0.11519450074E+03  0.11783464850E+03  0.00000000000E+00 0. -1.
         -5    1    3    3    0  503  0.32206816537E+02  0.11214546334E+03  0.65141562045E+02  0.13371386273E+03  0.47000000000E+01 0.  1.
         13    1    4    4    0    0 -0.21571201637E+02  0.19125153851E+02  0.52075276506E+02  0.59522455200E+02  0.00000000000E+00 0. -1.
        -14    1    4    4    0    0  0.33739029772E+02 -0.33592958336E+02  0.23510771767E+02  0.53099579742E+02  0.00000000000E+00 0.  1.
</event>
<event>
12    1  0.8526130E-002  0.1813884E+03  0.7818608E-02  0.1167935E+00
         21   -1    0    0  503  502  0.00000000000E+00  0.00000000000E+00  0.28725723058E+03  0.28725723058E+03  0.00000000000E+00 0.  1.
         21   -1    0    0  501  503 -0.00000000000E+00 -0.00000000000E+00 -0.14531203444E+03  0.14531203444E+03  0.00000000000E+00 0.  1.
          6    2    1    2  501    0  0.34925755678E+02 -0.35170497794E+02 -0.35386818393E+02  0.17889941555E+03  0.16821415411E+03 0.  0.
         24    2    3    3    0    0  0.11427678300E+02 -0.84349499679E+02 -0.39582131540E+02  0.12403207992E+03  0.81066526909E+02 0.  0.
         -6    2    1    2    0  502 -0.34925755678E+02  0.35170497794E+02  0.17733201454E+03  0.25366984947E+03  0.17448488996E+03 0.  0.
        -24    2    5    5    0    0  0.36700572991E+02  0.20953921623E+02  0.43299568497E+02  0.10096350190E+03  0.80825597394E+02 0.  0.
          5    1    3    3  501    0  0.23498077378E+02  0.49179001885E+02  0.41953131467E+01  0.54867335631E+02  0.47000000000E+01 0. -1.
        -11    1    4    4    0    0  0.20083197184E+02  0.85712657839E+01  0.18728632184E+01  0.21915953616E+02  0.00000000000E+00 0.  1.
         12    1    4    4    0    0 -0.86555188837E+01 -0.92920765463E+02 -0.41454994758E+02  0.10211612631E+03  0.00000000000E+00 0. -1.
         -5    1    5    5    0  502 -0.71626328669E+02  0.14216576172E+02  0.13403244604E+03  0.15270634757E+03  0.47000000000E+01 0.  1.
         13    1    6    6    0    0  0.27648564583E+02 -0.23410815123E+02 -0.28126810632E+01  0.36337591596E+02  0.00000000000E+00 0. -1.
        -14    1    6    6    0    0  0.90520084074E+01  0.44364736746E+02  0.46112249561E+02  0.64625910301E+02  0.00000000000E+00 0.  1.
</event>
<event>
12    1  0.8526130E-002  0.1785212E+03  0.7818608E-02  0.1169741E+00
         21   -1    0    0  503  502  0.00000000000E+00  0.00000000000E+00  0.10869113306E+03  0.10869113306E+03  0.00000000000E+00 0. -1.
         21   -1    0    0  501  503 -0.00000000000E+00 -0.00000000000E+00 -0.29134226434E+03  0.29134226434E+03  0.00000000000E+00 0. -1.
          6    2    1    2  501    0 -0.42555975930E+02 -0.32315191791E+01 -0.10594975053E+03  0.20759372114E+03  0.17334459788E+03 0.  0.
         24    2    3    3    0    0  0.32273007823E+02  0.24697337121E+02 -0.89840602284E+02  0.12597881759E+03  0.78408055504E+02 0.  0.
         -6    2    1    2    0  502  0.42555975930E+02  0.32315191791E+01 -0.76701380751E+02  0.19243967627E+03  0.17125557915E+03 0.  0.
        -24    2    5    5    0    0  0.26891253725E+02 -0.34139933751E+02  0.15507733176E+02  0.91610019385E+02  0.79140579098E+02 0.  0.
          5    1    3    3  501    0 -0.74828983754E+02 -0.27928856300E+02 -0.16109148246E+02  0.81614903547E+02  0.47000000000E+01 0. -1.
        -13    1    4    4    0    0  0.16668970161E+02 -0.24374669212E+02 -0.10396216013E+02  0.31305915940E+02  0.00000000000E+00 0.  1.
         14    1    4    4    0    0  0.15604037662E+02  0.49072006333E+02 -0.79444386271E+02  0.94672901650E+02  0.00000000000E+00 0. -1.
         -5    1    5    5    0  502  0.15664722205E+02  0.37371452930E+02 -0.92209113927E+02  0.10082965688E+03  0.47000000000E+01 0.  1.
         13    1    6    6    0    0  0.39671684521E+02 -0.43140930816E+00 -0.16910449923E+02  0.43127624365E+02  0.00000000000E+00 0. -1.
        -14    1    6    6    0    0 -0.12780430796E+02 -0.33708524443E+02  0.32418183099E+02  0.48482395020E+02  0.00000000000E+00 0.  1.
</event>
<event>
12    1  0.8526130E-002  0.1892073E+03  0.7818608E-02  0.1159505E+00
         21   -1    0    0  503  502  0.00000000000E+00  0.00000000000E+00  0.65407149372E+02  0.65407149372E+02  0.00000000000E+00 0. -1.
         21   -1    0    0  501  503 -0.00000000000E+00 -0.00000000000E+00 -0.97919742341E+03  0.97919742341E+03  0.00000000000E+00 0. -1.
          6    2    1    2  501    0 -0.76051039942E+02 -0.21568498758E+02 -0.80445413712E+03  0.82607814754E+03  0.17032230125E+03 0.  0.
         24    2    3    3    0    0 -0.93563761692E+02 -0.43201329522E+02 -0.34019449377E+03  0.36096119318E+03  0.62770670043E+02 0.  0.
         -6    2    1    2    0  502  0.76051039942E+02  0.21568498758E+02 -0.10933613692E+03  0.21852642524E+03  0.17190243418E+03 0.  0.
        -24    2    5    5    0    0  0.88352155181E+02  0.22350035068E+02 -0.14120199209E+02  0.12240102262E+03  0.80479829274E+02 0.  0.
          5    1    3    3  501    0  0.17512721750E+02  0.21632830764E+02 -0.46425964335E+03  0.46511695436E+03  0.47000000000E+01 0. -1.
        -11    1    4    4    0    0 -0.21379210846E+02 -0.34475553875E+01 -0.17301325378E+02  0.27718083527E+02  0.00000000000E+00 0.  1.
         12    1    4    4    0    0 -0.72184550846E+02 -0.39753774135E+02 -0.32289316839E+03  0.33324310965E+03  0.00000000000E+00 0. -1.
         -5    1    5    5    0  502 -0.12301115239E+02 -0.78153631006E+00 -0.95215937708E+02  0.96125402619E+02  0.47000000000E+01 0.  1.
         11    1    6    6    0    0  0.45988957379E+02 -0.61446446810E+00 -0.45660564145E+02  0.64809327148E+02  0.00000000000E+00 0. -1.
        -12    1    6    6    0    0  0.42363197802E+02  0.22964499536E+02  0.31540364936E+02  0.57591695471E+02  0.00000000000E+00 0.  1.
</event>
<event>
12    1  0.8526130E-002  0.1953564E+03  0.7818608E-02  0.1153895E+00
         21   -1    0    0  503  502  0.00000000000E+00  0.00000000000E+00  0.47506385920E+03  0.47506385920E+03  0.00000000000E+00 0.  1.
         21   -1    0    0  501  503 -0.00000000000E+00 -0.00000000000E+00 -0.80190649510E+02  0.80190649510E+02  0.00000000000E+00 0. -1.
          6    2    1    2  501    0 -0.55230035341E+02  0.74200262273E+02  0.18430533861E+03  0.26857509229E+03  0.17207000503E+03 0.  0.
         24    2    3    3    0    0 -0.60437163422E+02  0.11748855294E+03  0.13072887732E+03  0.19933985923E+03  0.72042552148E+02 0.  0.
         -6    2    1    2    0  502  0.55230035341E+02 -0.74200262273E+02  0.21056787108E+03  0.28667941643E+03  0.17114386856E+03 0.  0.
        -24    2    5    5    0    0  0.53424093075E+02 -0.70313171534E+02  0.53677400286E+02  0.12966005224E+03  0.78309578174E+02 0.  0.
          5    1    3    3  501    0  0.52071280813E+01 -0.43288290665E+02  0.53576461289E+02  0.69235233052E+02  0.47000000000E+01 0. -1.
        -13    1    4    4    0    0 -0.66100772229E+02  0.80663364043E+02  0.12305028044E+03  0.16129867298E+03  0.00000000000E+00 0.  1.
         14    1    4    4    0    0  0.56636088068E+01  0.36825188895E+02  0.76785968839E+01  0.38041186259E+02  0.00000000000E+00 0. -1.
         -5    1    5    5    0  502  0.18059422659E+01 -0.38870907399E+01  0.15689047080E+03  0.15701936418E+03  0.47000000000E+01 0.  1.
         11    1    6    6    0    0 -0.15857333231E+02 -0.35963232443E+02  0.27698692389E+02  0.48083538400E+02  0.00000000000E+00 0. -1.
        -12    1    6    6    0    0  0.69281426306E+02 -0.34349939090E+02  0.25978707897E+02  0.81576513842E+02  0.00000000000E+00 0.  1.
</event>
<event>
12    1  0.8526130E-002  0.2070586E+03  0.7818608E-02  0.1145283E+00
         21   -1    0    0  501  502  0.00000000000E+00  0.00000000000E+00  0.25356015949E+02  0.25356015949E+02  0.00000000000E+00 0.  1.
         21   -1    0    0  502  503 -0.00000000000E+00 -0.00000000000E+00 -0.18195435248E+04  0.18195435248E+04  0.00000000000E+00 0. -1.
         -6    2    1    2    0  503  0.68349672117E+02 -0.78298828533E+02 -0.11761091194E+04  0.11930604855E+04  0.17134257254E+03 0.  0.
        -24    2    3    3    0    0  0.49288512369E+02  0.10414237979E+02 -0.54188280984E+03  0.55235896553E+03  0.94475570410E+02 0.  0.
          6    2    1    2  501    0 -0.68349672117E+02  0.78298828533E+02 -0.61807838950E+03  0.65183905527E+03  0.17908342799E+03 0.  0.
         24    2    5    5    0    0 -0.89364983995E+02  0.47814406505E+02 -0.24296154245E+03  0.27486998192E+03  0.79062494386E+02 0.  0.
          5    1    5    5  501    0  0.21015311878E+02  0.30484422028E+02 -0.37511684705E+03  0.37696907335E+03  0.47000000000E+01 0. -1.
        -11    1    6    6    0    0 -0.47439665454E+02  0.36644758988E+02 -0.21512417820E+03  0.22331988775E+03  0.00000000000E+00 0.  1.
         12    1    6    6    0    0 -0.41925318541E+02  0.11169647517E+02 -0.27837364246E+02  0.51550094166E+02  0.00000000000E+00 0. -1.
         -5    1    3    3    0  503  0.19061159748E+02 -0.88713066512E+02 -0.63422630956E+03  0.64070152000E+03  0.47000000000E+01 0.  1.
         13    1    4    4    0    0  0.77409275752E+02  0.12391732265E+01 -0.38308243837E+03  0.39082718189E+03  0.00000000000E+00 0. -1.
        -14    1    4    4    0    0 -0.28120763383E+02  0.91750647527E+01 -0.15880037147E+03  0.16153178364E+03  0.00000000000E+00 0.  1.
</event>
<event>
12    1  0.8526130E-002  0.2099671E+03  0.7818608E-02  0.1141615E+00
         21   -1    0    0  501  502  0.00000000000E+00  0.00000000000E+00  0.10994765798E+03  0.10994765798E+03  0.00000000000E+00 0. -1.
         21   -1    0    0  502  503 -0.00000000000E+00 -0.00000000000E+00 -0.43636269879E+03  0.43636269879E+03  0.00000000000E+00 0.  1.
         -6    2    1    2    0  503  0.74818810717E+02 -0.94843508589E+02 -0.24119963972E+03  0.31970971065E+03  0.17159221231E+03 0.  0.
        -24    2    3    3    0    0 -0.39307501011E+01 -0.71385687372E+02 -0.65523926289E+02  0.12571020293E+03  0.79989393343E+02 0.  0.
          6    2    1    2  501    0 -0.74818810717E+02  0.94843508589E+02 -0.85215401096E+02  0.22660064612E+03  0.17173538563E+03 0.  0.
         24    2    5    5    0    0 -0.50768375427E+02 -0.12758631320E+02 -0.11853475131E+02  0.94083831593E+02  0.77272581669E+02 0.  0.
          5    1    5    5  501    0 -0.24050435290E+02  0.10760213991E+03 -0.73361925965E+02  0.13251681452E+03  0.47000000000E+01 0. -1.
        -11    1    6    6    0    0  0.10562137005E+02  0.14530923331E+02  0.13349013450E+02  0.22380854117E+02  0.00000000000E+00 0.  1.
         12    1    6    6    0    0 -0.61330512432E+02 -0.27289554650E+02 -0.25202488581E+02  0.71702977475E+02  0.00000000000E+00 0. -1.
         -5    1    3    3    0  503  0.78749560818E+02 -0.23457821217E+02 -0.17567571343E+03  0.19399950772E+03  0.47000000000E+01 0.  1.
         11    1    4    4    0    0 -0.15384625266E+02 -0.42000402125E+02 -0.79495478655E+02  0.91215413170E+02  0.00000000000E+00 0. -1.
        -12    1    4    4    0    0  0.11453875165E+02 -0.29385285246E+02  0.13971552366E+02  0.34494789763E+02  0.00000000000E+00 0.  1.
</event>
<event>
12    1  0.8526130E-002  0.1740502E+03  0.7818608E-02  0.1173878E+00
         21   -1    0    0  501  502  0.00000000000E+00  0.00000000000E+00  0.11781499742E+04  0.11781499742E+04  0.00000000000E+00 0.  1.
         21   -1    0    0  502  503 -0.00000000000E+00 -0.00000000000E+00 -0.30320413466E+02  0.30320413466E+02  0.00000000000E+00 0.  1.
         -6    2    1    2    0  503  0.19174312619E+02 -0.94932758402E+01  0.33660492274E+03  0.37894110138E+03  0.17273015876E+03 0.  0.
        -24    2    3    3    0    0  0.70036029387E+02 -0.17648385598E+02  0.15239897783E+03  0.18761065375E+03  0.82193661738E+02 0.  0.
          6    2    1    2  501    0 -0.19174312619E+02  0.94932758402E+01  0.81122463794E+03  0.82952928624E+03  0.17197571624E+03 0.  0.
         24    2    5    5    0    0 -0.70054763478E+02 -0.21013903006E+02  0.61895148749E+03  0.62825692692E+03  0.79098472524E+02 0.  0.
          5    1    5    5  501    0  0.50880450859E+02  0.30507178846E+02  0.19227315046E+03  0.20127235932E+03  0.47000000000E+01 0. -1.
        -13    1    6    6    0    0 -0.52590995660E+02  0.25202004809E+02  0.33870232991E+03  0.34368622632E+03  0.00000000000E+00 0.  1.
         14    1    6    6    0    0 -0.17463767818E+02 -0.46215907815E+02  0.28024915757E+03  0.28457070060E+03  0.00000000000E+00 0. -1.
         -5    1    3    3    0  503 -0.50861716768E+02  0.81551097580E+01  0.18420594491E+03  0.19133044763E+03  0.47000000000E+01 0.  1.
         11    1    4    4    0    0 -0.97491236322E+01  0.19018536940E+02  0.25110940069E+02  0.32974375962E+02  0.00000000000E+00 0. -1.
        -12    1    4    4    0    0  0.79785153019E+02 -0.36666922538E+02  0.12728803776E+03  0.15463627779E+03  0.00000000000E+00 0.  1.
</event>
<event>
12    1  0.8526130E-002  0.2014064E+03  0.7818608E-02  0.1149183E+00
         21   -1    0    0  501  502  0.00000000000E+00  0.00000000000E+00  0.31853180164E+03  0.31853180164E+03  0.00000000000E+00 0. -1.
         21   -1    0    0  502  503 -0.00000000000E+00 -0.00000000000E+00 -0.13377435580E+03  0.13377435580E+03  0.00000000000E+00 0. -1.
         -6    2    1    2    0  503  0.95211518214E+02 -0.31616400862E+02  0.35417668031E+02  0.20157340697E+03  0.17120922050E+03 0.  0.
        -24    2    3    3    0    0  0.23388760137E+02 -0.44176357745E+02  0.72435428162E+02  0.11966696241E+03  0.81084560521E+02 0.  0.
          6    2    1    2  501    0 -0.95211518214E+02  0.31616400862E+02  0.14933977781E+03  0.25073275047E+03  0.17464167006E+03 0.  0.
         24    2    5    5    0    0 -0.10153471217E+03 -0.20835756282E+02  0.52277553462E+02  0.14012363256E+03  0.78474602842E+02 0.  0.
          5    1    5    5  501    0  0.63231939517E+01  0.52452157144E+02  0.97062224347E+02  0.11060911792E+03  0.47000000000E+01 0. -1.
        -13    1    6    6    0    0 -0.21177079326E+02  0.28120482620E+02  0.20870986032E+02  0.40924666028E+02  0.00000000000E+00 0.  1.
         14    1    6    6    0    0 -0.80357632840E+02 -0.48956238903E+02  0.31406567429E+02  0.99198966531E+02  0.00000000000E+00 0. -1.
         -5    1    3    3    0  503  0.71822758077E+02  0.12559956883E+02 -0.37017760132E+02  0.81906444557E+02  0.47000000000E+01 0.  1.
         13    1    4    4    0    0  0.24585906297E+02  0.19544563055E+02  0.21192207915E+02  0.37888869207E+02  0.00000000000E+00 0. -1.
        -14    1    4    4    0    0 -0.11971461599E+01 -0.63720920800E+02  0.51243220247E+02  0.81778093202E+02  0.00000000000E+00 0.  1.
</event>
<event>
12    1  0.8526130E-002  0.2335079E+03  0.7818608E-02  0.1124364E+00
         21   -1    0    0  503  502  0.00000000000E+00  0.00000000000E+00  0.42066524494E+03  0.42066524494E+03  0.00000000000E+00 0. -1.
         21   -1    0    0  501  503 -0.00000000000E+00 -0.00000000000E+00 -0.21293655987E+03  0.21293655987E+03  0.00000000000E+00 0.  1.
          6    2    1    2  501    0 -0.70965938856E+02 -0.14131797129E+03 -0.94815638095E+02  0.25202366826E+03  0.17181091540E+03 0.  0.
         24    2    3    3    0    0  0.84520986493E+01 -0.10647524679E+02 -0.33251445815E+02  0.87116936836E+02  0.79365573654E+02 0.  0.
         -6    2    1    2    0  502  0.70965938856E+02  0.14131797129E+03  0.30254432317E+03  0.38157813655E+03  0.17047543320E+03 0.  0.
        -24    2    5    5    0    0  0.54832358783E+02  0.11170174487E+03  0.31264657809E+03  0.34605970714E+03  0.80781004828E+02 0.  0.
          5    1    3    3  501    0 -0.79418037505E+02 -0.13067044661E+03 -0.61564192280E+02  0.16490673142E+03  0.47000000000E+01 0. -1.
        -11    1    4    4    0    0  0.20603071698E+02 -0.33176740156E+02 -0.44457158752E+02  0.59174501393E+02  0.00000000000E+00 0.  1.
         12    1    4    4    0    0 -0.12150973048E+02  0.22529215477E+02  0.11205712938E+02  0.27942435443E+02  0.00000000000E+00 0. -1.
         -5    1    5    5    0  502  0.16133580073E+02  0.29616226416E+02 -0.10102254920E+02  0.35518429407E+02  0.47000000000E+01 0.  1.
         11    1    6    6    0    0  0.61957258966E+02  0.36808076098E+02  0.13239062909E+03  0.15073425316E+03  0.00000000000E+00 0. -1.
        -12    1    6    6    0    0 -0.71249001831E+01  0.74893668774E+02  0.18025594900E+03  0.19532545398E+03  0.00000000000E+00 0.  1.
</event>
<event>
12    1  0.8526130E-002  0.1946545E+03  0.7818608E-02  0.1154596E+00
         21   -1    0    0  501  502  0.00000000000E+00  0.00000000000E+00  0.49516198125E+03  0.49516198125E+03  0.00000000000E+00 0. -1.
         21   -1    0    0  502  503 -0.00000000000E+00 -0.00000000000E+00 -0.21419129321E+03  0.21419129321E+03  0.00000000000E+00 0.  1.
         -6    2    1    2    0  503 -0.50535515833E+02  0.73404543933E+02 -0.14419992686E+03  0.24224778342E+03  0.17305578359E+03 0.  0.
        -24    2    3    3    0    0  0.40516077903E+02  0.36567527251E+02 -0.78809308564E+02  0.12415721868E+03  0.78901021638E+02 0.  0.
          6    2    1    2  501    0  0.50535515833E+02 -0.73404543933E+02  0.42517061490E+03  0.46710549105E+03  0.17168407778E+03 0.  0.
         24    2    5    5    0    0  0.11710948072E+02 -0.67169963556E+02  0.12183111009E+03  0.16119183945E+03  0.80566987106E+02 0.  0.
          5    1    5    5  501    0  0.38824567761E+02 -0.62345803772E+01  0.30333950481E+03  0.30591365160E+03  0.47000000000E+01 0. -1.
        -11    1    6    6    0    0 -0.73982997831E+01 -0.66960087992E+02  0.12482937381E+03  0.14184766755E+03  0.00000000000E+00 0.  1.
         12    1    6    6    0    0  0.19109247855E+02 -0.20987556395E+00 -0.29982637176E+01  0.19344171904E+02  0.00000000000E+00 0. -1.
         -5    1    3    3    0  503 -0.91051593736E+02  0.36837016682E+02 -0.65390618297E+02  0.11809056474E+03  0.47000000000E+01 0.  1.
         13    1    4    4    0    0 -0.11948652390E+02  0.32723373993E+02 -0.57851785498E+02  0.67530871346E+02  0.00000000000E+00 0. -1.
        -14    1    4    4    0    0  0.52464730294E+02  0.38441532578E+01 -0.20957523065E+02  0.56626347332E+02  0.00000000000E+00 0.  1.
</event>
<event>
12    1  0.8526130E-002  0.2008011E+03  0.7818608E-02  0.1149155E+00
         21   -1    0    0  503  502  0.00000000000E+00  0.00000000000E+00  0.39590604586E+03  0.39590604586E+03  0.00000000000E+00 0.  1.
         21   -1    0    0  501  503 -0.00000000000E+00 -0.00000000000E+00 -0.10687185037E+03  0.10687185037E+03  0.00000000000E+00 0.  1.
          6    2    1    2  501    0  0.10130218055E+03 -0.11471095112E+02  0.88684427299E+02  0.21912124777E+03  0.17249775585E+03 0.  0.
         24    2    3    3    0    0  0.13684584102E+03  0.28840824307E+01  0.85892266771E+02  0.18040033505E+03  0.80197863171E+02 0.  0.
         -6    2    1    2    0  502 -0.10130218055E+03  0.11471095112E+02  0.20034976819E+03  0.28365664846E+03  0.17299522189E+03 0.  0.
        -24    2    5    5    0    0 -0.55596954165E+02 -0.59515339007E+02  0.11744895397E+03  0.16523926568E+03  0.82925636826E+02 0.  0.
          5    1    3    3  501    0 -0.35543660474E+02 -0.14355177543E+02  0.27921605281E+01  0.38720912729E+02  0.47000000000E+01 0. -1.
        -13    1    4    4    0    0  0.64258142619E+02  0.38195028581E+02  0.23442074758E+02  0.78342197889E+02  0.00000000000E+00 0.  1.
         14    1    4    4    0    0  0.72587698402E+02 -0.35310946150E+02  0.62450192013E+02  0.10205813716E+03  0.00000000000E+00 0. -1.
         -5    1    5    5    0  502 -0.45705226383E+02  0.70986434119E+02  0.82900814219E+02  0.11841738279E+03  0.47000000000E+01 0.  1.
         11    1    6    6    0    0 -0.15106404514E+02  0.13784306525E+02  0.60777009424E+02  0.64125310434E+02  0.00000000000E+00 0. -1.
        -12    1    6    6    0    0 -0.40490549650E+02 -0.73299645532E+02  0.56671944548E+02  0.10111395524E+03  0.00000000000E+00 0.  1.
</event>
<event>
12    1  0.8526130E-002  0.1757345E+03  0.7818608E-02  0.1172235E+00
         21   -1    0    0  503  502  0.00000000000E+00  0.00000000000E+00  0.77874774931E+02  0.77874774931E+02  0.00000000000E+00 0. -1.
         21   -1    0    0  501  503 -0.00000000000E+00 -0.00000000000E+00 -0.41284395000E+03  0.41284395000E+03  0.00000000000E+00 0. -1.
          6    2    1    2  501    0  0.15383153138E+02 -0.30278161021E+02 -0.21888582104E+03  0.28010546632E+03  0.17144871296E+03 0.  0.
         24    2    3    3    0    0 -0.48128673092E+02 -0.47593297468E+02 -0.12465266843E+03  0.16505963601E+03  0.84409149709E+02 0.  0.
         -6    2    1    2    0  502 -0.15383153138E+02  0.30278161021E+02 -0.11608335403E+03  0.21061325861E+03  0.17242155082E+03 0.  0.
        -24    2    5    5    0    0 -0.49732382909E+02  0.17580544645E+02 -0.13736875673E+03  0.16799568694E+03  0.81055475113E+02 0.  0.
          5    1    3    3  501    0  0.63511826231E+02  0.17315136447E+02 -0.94233152611E+02  0.11504583031E+03  0.47000000000E+01 0. -1.
        -11    1    4    4    0    0 -0.44543452775E+02  0.12535472921E+02 -0.40014121583E+02  0.61175053678E+02  0.00000000000E+00 0.  1.
         12    1    4    4    0    0 -0.35852203178E+01 -0.60128770389E+02 -0.84638546851E+02  0.10388458233E+03  0.00000000000E+00 0. -1.
         -5    1    5    5    0  502  0.34349229770E+02  0.12697616376E+02  0.21285402697E+02  0.42617571674E+02  0.47000000000E+01 0.  1.
         11    1    6    6    0    0 -0.55880765886E+02  0.40763964660E+02 -0.79648618362E+02  0.10549058355E+03  0.00000000000E+00 0. -1.
        -12    1    6    6    0    0  0.61483829774E+01 -0.23183420015E+02 -0.57720138363E+02  0.62505103388E+02  0.00000000000E+00 0.  1.
</event>
<event>
12    1  0.8526130E-002  0.1878885E+03  0.7818608E-02  0.1160453E+00
         21   -1    0    0  503  502  0.00000000000E+00  0.00000000000E+00  0.50724821639E+03  0.50724821639E+03  0.00000000000E+00 0.  1.
         21   -1    0    0  501  503 -0.00000000000E+00 -0.00000000000E+00 -0.88364042877E+02  0.88364042877E+02  0.00000000000E+00 0.  1.
          6    2    1    2  501    0 -0.29395632847E+02 -0.68292884015E+02  0.71898968124E+02  0.20117546629E+03  0.17255168902E+03 0.  0.
         24    2    3    3    0    0  0.21465807262E+02 -0.34502689268E+02 -0.20193124330E+02  0.90578419119E+02  0.78393056400E+02 0.  0.
         -6    2    1    2    0  502  0.29395632847E+02  0.68292884015E+02  0.34698520539E+03  0.39443679298E+03  0.17220229283E+03 0.  0.
        -24    2    5    5    0    0 -0.30369549333E+02  0.47837105041E+02  0.10044016368E+03  0.13988451251E+03  0.79175452107E+02 0.  0.
          5    1    3    3  501    0 -0.50861440109E+02 -0.33790194747E+02  0.92092092454E+02  0.11059704717E+03  0.47000000000E+01 0. -1.
        -11    1    4    4    0    0 -0.92629260242E+01 -0.52010421235E+02 -0.99398919849E+01  0.53755810553E+02  0.00000000000E+00 0.  1.
         12    1    4    4    0    0  0.30728733287E+02  0.17507731967E+02 -0.10253232345E+02  0.36822608565E+02  0.00000000000E+00 0. -1.
         -5    1    5    5    0  502  0.59765182180E+02  0.20455778973E+02  0.24654504172E+03  0.25455228046E+03  0.47000000000E+01 0.  1.
         11    1    6    6    0    0  0.25324066983E+02  0.23009930714E+02  0.22608109725E+02  0.41010875453E+02  0.00000000000E+00 0. -1.
        -12    1    6    6    0    0 -0.55693616316E+02  0.24827174327E+02  0.77832053951E+02  0.98873637061E+02  0.00000000000E+00 0.  1.
</event>
<event>
12    1  0.8526130E-002  0.2625066E+03  0.7818608E-02  0.1105968E+00
         21   -1    0    0  501  502  0.00000000000E+00  0.00000000000E+00  0.17765002906E+03  0.17765002906E+03  0.00000000000E+00 0. -1.
         21   -1    0    0  502  503 -0.00000000000E+00 -0.00000000000E+00 -0.60235473315E+03  0.60235473315E+03  0.00000000000E+00 0.  1.
         -6    2    1    2    0  503  0.13511503331E+02  0.19942388702E+03 -0.44622137848E+03  0.51661786113E+03  0.16681741032E+03 0.  0.
        -24    2    3    3    0    0  0.40891332698E+02  0.47507422758E+02 -0.21064145299E+03  0.23492963194E+03  0.83024417719E+02 0.  0.
          6    2    1    2  501    0 -0.13511503331E+02 -0.19942388702E+03  0.21516674389E+02  0.26338690108E+03  0.17016828419E+03 0.  0.
         24    2    5    5    0    0  0.27341035128E+02 -0.16442301140E+03 -0.33499963988E+02  0.18629661835E+03  0.76169045822E+02 0.  0.
          5    1    5    5  501    0 -0.40852538458E+02 -0.35000875623E+02  0.55016638377E+02  0.77090282729E+02  0.47000000000E+01 0. -1.
        -13    1    6    6    0    0  0.28411315732E+02 -0.55023329822E+02  0.19236726143E+02  0.64844593599E+02  0.00000000000E+00 0.  1.
         14    1    6    6    0    0 -0.10702806045E+01 -0.10939968158E+03 -0.52736690131E+02  0.12145202475E+03  0.00000000000E+00 0. -1.
         -5    1    3    3    0  503 -0.27379829367E+02  0.15191646427E+03 -0.23557992549E+03  0.28168822919E+03  0.47000000000E+01 0.  1.
         13    1    4    4    0    0  0.50052410169E+02  0.15800523504E+02 -0.55785860464E+02  0.76596099995E+02  0.00000000000E+00 0. -1.
        -14    1    4    4    0    0 -0.91610774713E+01  0.31706899254E+02 -0.15485559253E+03  0.15833353194E+03  0.00000000000E+00 0.  1.
</event>
<event>
12    1  0.8526130E-002  0.1759530E+03  0.7818608E-02  0.1171849E+00
         21   -1    0    0  503  502  0.00000000000E+00  0.00000000000E+00  0.33142376079E+03  0.33142376079E+03  0.00000000000E+00 0. -1.
         21   -1    0    0  501  503 -0.00000000000E+00 -0.00000000000E+00 -0.10248477383E+03  0.10248477383E+03  0.00000000000E+00 0. -1.
          6    2    1    2  501    0 -0.52414561432E+01  0.37761934588E+02  0.49303059454E+02  0.18245569982E+03  0.17148135222E+03 0.  0.
         24    2    3    3    0    0 -0.27367191226E+02 -0.19336423745E+02 -0.22715766944E+02  0.87805966421E+02  0.77916758354E+02 0.  0.
         -6    2    1    2    0  502  0.52414561432E+01 -0.37761934588E+02  0.17963592751E+03  0.25145283479E+03  0.17177317924E+03 0.  0.
        -24    2    5    5    0    0 -0.30733587014E+02 -0.51947021430E+02  0.18716132936E+03  0.21177737523E+03  0.78595464531E+02 0.  0.
          5    1    3    3  501    0  0.22125735083E+02  0.57098358333E+02  0.72018826398E+02  0.94649733401E+02  0.47000000000E+01 0. -1.
        -13    1    4    4    0    0 -0.38036353678E+02 -0.26990843235E+02  0.14095187316E+02  0.48723137472E+02  0.00000000000E+00 0.  1.
         14    1    4    4    0    0  0.10669162452E+02  0.76544194897E+01 -0.36810954260E+02  0.39082828949E+02  0.00000000000E+00 0. -1.
         -5    1    5    5    0  502  0.35975043157E+02  0.14185086842E+02 -0.75254018458E+01  0.39675459567E+02  0.47000000000E+01 0.  1.
         13    1    6    6    0    0 -0.45176903797E+02 -0.28621225024E+01  0.63815859556E+02  0.78240707517E+02  0.00000000000E+00 0. -1.
        -14    1    6    6    0    0  0.14443316783E+02 -0.49084898928E+02  0.12334546980E+03  0.13353666771E+03  0.00000000000E+00 0.  1.
</event>
<event>
12    1  0.8526130E-002  0.1810836E+03  0.7818608E-02  0.1168001E+00
         21   -1    0    0  501  502  0.00000000000E+00  0.00000000000E+00  0.40627976047E+03  0.40627976047E+03  0.00000000000E+00 0.  1.
         21   -1    0    0  502  503 -0.00000000000E+00 -0.00000000000E+00 -0.82206934717E+02  0.82206934717E+02  0.00000000000E+00 0.  1.
         -6    2    1    2    0  503 -0.41001457423E+02  0.22546554566E+02  0.11207216528E+03  0.21295880473E+03  0.17493374645E+03 0.  0.
        -24    2    3    3    0    0 -0.30190811664E+01  0.10040339788E+02 -0.12238144459E+02  0.82290486379E+02  0.80697141799E+02 0.  0.
          6    2    1    2  501    0  0.41001457423E+02 -0.22546554566E+02  0.21200066048E+03  0.27552789046E+03  0.16965220819E+03 0.  0.
         24    2    5    5    0    0  0.70234203161E+02  0.22670697498E+02  0.86577467979E+02  0.13895475795E+03  0.79786985001E+02 0.  0.
          5    1    5    5  501    0 -0.29232745738E+02 -0.45217252064E+02  0.12542319250E+03  0.13657313251E+03  0.47000000000E+01 0. -1.
        -13    1    6    6    0    0  0.81457458358E+02 -0.18991094228E+01  0.61342284532E+02  0.10198921517E+03  0.00000000000E+00 0.  1.
         14    1    6    6    0    0 -0.11223255197E+02  0.24569806921E+02  0.25235183447E+02  0.36965542779E+02  0.00000000000E+00 0. -1.
         -5    1    3    3    0  503 -0.37982376257E+02  0.12506214777E+02  0.12431030974E+03  0.13066831835E+03  0.47000000000E+01 0.  1.
         11    1    4    4    0    0  0.33600061559E+02 -0.15095660776E+02 -0.78109259228E+01  0.37654397815E+02  0.00000000000E+00 0. -1.
        -12    1    4    4    0    0 -0.36619142725E+02  0.25136000564E+02 -0.44272185358E+01  0.44636088564E+02  0.00000000000E+00 0.  1.
</event>
<event>
12    1  0.8526130E-002  0.1930882E+03  0.7818608E-02  0.1155877E+00
         21   -1    0    0  501  502  0.00000000000E+00  0.00000000000E+00  0.13613859768E+03  0.13613859768E+03  0.00000000000E+00 0.  1.
         21   -1    0    0  502  503 -0.00000000000E+00 -0.00000000000E+00 -0.27682341219E+03  0.27682341219E+03  0.00000000000E+00 0.  1.
         -6    2    1    2    0  503 -0.33933685425E+02 -0.80397725769E+02 -0.95495089697E+02  0.21541204952E+03  0.17224328610E+03 0.  0.
        -24    2    3    3    0    0 -0.10958492849E+02 -0.36238802676E+02  0.18537811492E+02  0.90899148516E+02  0.80533628759E+02 0.  0.
          6    2    1    2  501    0  0.33933685425E+02  0.80397725769E+02 -0.45189724816E+02  0.19754996035E+03  0.17137265328E+03 0.  0.
         24    2    5    5    0    0  0.63607616238E+02  0.79949922929E+01  0.96872083971E+01  0.10186158183E+03  0.78562657171E+02 0.  0.
          5    1    5    5  501    0 -0.29673930813E+02  0.72402733477E+02 -0.54876933213E+02  0.95688378519E+02  0.47000000000E+01 0. -1.
        -11    1    6    6    0    0 -0.46553497140E+01  0.25963144886E+02  0.16230623044E+02  0.30970797499E+02  0.00000000000E+00 0.  1.
         12    1    6    6    0    0  0.68262965952E+02 -0.17968152593E+02 -0.65434146471E+01  0.70890784334E+02  0.00000000000E+00 0. -1.
         -5    1    3    3    0  503 -0.22975192576E+02 -0.44158923094E+02 -0.11403290119E+03  0.12451290100E+03  0.47000000000E+01 0.  1.
         11    1    4    4    0    0 -0.19664471790E+02 -0.49313182750E+02 -0.13882124771E+02  0.54874354957E+02  0.00000000000E+00 0. -1.
        -12    1    4    4    0    0  0.87059789414E+01  0.13074380074E+02  0.32419936264E+02  0.36024793559E+02  0.00000000000E+00 0.  1.
</event>
<event>
12    1  0.8526130E-002  0.2424904E+03  0.7818608E-02  0.1118207E+00
         21   -1    0    0  503  502  0.00000000000E+00  0.00000000000E+00  0.12948038150E+04  0.12948038150E+04  0.00000000000E+00 0.  1.
         21   -1    0    0  501  503 -0.00000000000E+00 -0.00000000000E+00 -0.50900331045E+02  0.50900331045E+02  0.00000000000E+00 0. -1.
          6    2    1    2  501    0  0.15649377717E+03  0.72105012842E+02  0.84470841728E+03  0.87882529552E+03  0.17062284331E+03 0.  0.
         24    2    3    3    0    0  0.69264973681E+02  0.85509288371E+02  0.33516257865E+03  0.36167194261E+03  0.79769448854E+02 0.  0.
         -6    2    1    2    0  502 -0.15649377717E+03 -0.72105012842E+02  0.39919506673E+03  0.46687885057E+03  0.17008740295E+03 0.  0.
        -24    2    5    5    0    0 -0.86604381386E+02 -0.53824752697E+02  0.12532756382E+03  0.18360478769E+03  0.87214086773E+02 0.  0.
          5    1    3    3  501    0  0.87228803489E+02 -0.13404275530E+02  0.50954583863E+03  0.51715335291E+03  0.47000000000E+01 0. -1.
        -13    1    4    4    0    0 -0.17700042673E+02  0.21941770695E+02  0.68649844655E+02  0.74212761591E+02  0.00000000000E+00 0.  1.
         14    1    4    4    0    0  0.86965016354E+02  0.63567517677E+02  0.26651273399E+03  0.28745918102E+03  0.00000000000E+00 0. -1.
         -5    1    5    5    0  502 -0.69889395783E+02 -0.18280260145E+02  0.27386750290E+03  0.28327406288E+03  0.47000000000E+01 0.  1.
         13    1    6    6    0    0  0.13626689106E+02  0.20720228874E+01  0.15440437397E+00  0.13784185705E+02  0.00000000000E+00 0. -1.
        -14    1    6    6    0    0 -0.10023107049E+03 -0.55896775584E+02  0.12517315945E+03  0.16982060199E+03  0.00000000000E+00 0.  1.
</event>
<event>
12    1  0.8526130E-002  0.1789949E+03  0.7818608E-02  0.1168813E+00
         21   -1    0    0  503  502  0.00000000000E+00  0.00000000000E+00  0.38302202465E+02  0.38302202465E+02  0.00000000000E+00 0. -1.
         21   -1    0    0  501  503 -0.00000000000E+00 -0.00000000000E+00 -0.98677676711E+03  0.98677676711E+03  0.00000000000E+00 0. -1.
          6    2    1    2  501    0 -0.11836279925E+02 -0.47816430933E+02 -0.67484193696E+03  0.69817677433E+03  0.17208329304E+03 0.  0.
         24    2    3    3    0    0  0.20393046838E+01  0.22825112461E+02 -0.16637080579E+03  0.18461300931E+03  0.76665335496E+02 0.  0.
         -6    2    1    2    0  502  0.11836279925E+02  0.47816430933E+02 -0.27363262769E+03  0.32690219525E+03  0.17194104145E+03 0.  0.
        -24    2    5    5    0    0 -0.60171579692E+02  0.17719164185E+02 -0.14491492008E+03  0.17629902276E+03  0.78399129982E+02 0.  0.
          5    1    3    3  501    0 -0.13875584609E+02 -0.70641543393E+02 -0.50847113117E+03  0.51356376502E+03  0.47000000000E+01 0. -1.
        -13    1    4    4    0    0 -0.25429467683E+02  0.23314454494E+02 -0.14700858154E+03  0.15100246575E+03  0.00000000000E+00 0.  1.
         14    1    4    4    0    0  0.27468772367E+02 -0.48934203297E+00 -0.19362224245E+02  0.33610543564E+02  0.00000000000E+00 0. -1.
         -5    1    5    5    0  502  0.72007859617E+02  0.30097266748E+02 -0.12871770760E+03  0.15060317249E+03  0.47000000000E+01 0.  1.
         11    1    6    6    0    0 -0.57430442481E+02 -0.19574822675E+02 -0.70482647273E+02  0.93001252534E+02  0.00000000000E+00 0. -1.
        -12    1    6    6    0    0 -0.27411372102E+01  0.37293986860E+02 -0.74432272811E+02  0.83297770228E+02  0.00000000000E+00 0.  1.
</event>
<event>
12    1  0.8526130E-002  0.1774101E+03  0.7818608E-02  0.1170544E+00
         21   -1    0    0  501  502  0.00000000000E+00  0.00000000000E+00  0.41611385529E+03  0.41611385529E+03  0.00000000000E+00 0. -1.
         21   -1    0    0  502  503 -0.00000000000E+00 -0.00000000000E+00 -0.18213868279E+03  0.18213868279E+03  0.00000000000E+00 0. -1.
         -6    2    1    2    0  503  0.39262500940E+02 -0.28913873145E+01 -0.11225066870E+03  0.20921952498E+03  0.17211244263E+03 0.  0.
        -24    2    3    3    0    0  0.27149623564E+02  0.63041314004E+02 -0.51741058866E+02  0.11879084710E+03  0.81992797554E+02 0.  0.
          6    2    1    2  501    0 -0.39262500940E+02  0.28913873145E+01  0.34622584120E+03  0.38903301310E+03  0.17298684362E+03 0.  0.
         24    2    5    5    0    0  0.21795463794E+02 -0.36996845826E+02  0.26525096768E+03  0.27995429683E+03  0.78565409799E+02 0.  0.
          5    1    5    5  501    0 -0.61057964734E+02  0.39888233141E+02  0.80974873523E+02  0.10907871627E+03  0.47000000000E+01 0. -1.
        -11    1    6    6    0    0  0.22113121015E+02 -0.28213083021E+02  0.36937869019E+02  0.51472073421E+02  0.00000000000E+00 0.  1.
         12    1    6    6    0    0 -0.31765722065E+00 -0.87837628053E+01  0.22831309866E+03  0.22848222341E+03  0.00000000000E+00 0. -1.
         -5    1    3    3    0  503  0.12112877376E+02 -0.65932701319E+02 -0.60509609832E+02  0.90428677882E+02  0.47000000000E+01 0.  1.
         13    1    4    4    0    0 -0.18449100147E+02  0.23984858010E+02 -0.50341341106E+02  0.58735792617E+02  0.00000000000E+00 0. -1.
        -14    1    4    4    0    0  0.45598723711E+02  0.39056455994E+02 -0.13997177594E+01  0.60055054481E+02  0.00000000000E+00 0.  1.
</event>
<event>
12    1  0.8526130E-002  0.1860724E+03  0.7818608E-02  0.1162145E+00
         21   -1    0    0  503  502  0.00000000000E+00  0.00000000000E+00  0.27469215186E+03  0.27469215186E+03  0.00000000000E+00 0.  1.
         21   -1    0    0  501  503 -0.00000000000E+00 -0.00000000000E+00 -0.13144234682E+03  0.13144234682E+03  0.00000000000E+00 0.  1.
          6    2    1    2  501    0 -0.54919286823E+02 -0.44856067636E+02  0.29524737066E+02  0.18840020978E+03  0.17203120088E+03 0.  0.
         24    2    3    3    0    0 -0.81221525455E+02 -0.36783025123E+02 -0.29794124315E+02  0.12284260848E+03  0.79073949435E+02 0.  0.
         -6    2    1    2    0  502  0.54919286823E+02  0.44856067636E+02  0.11372506797E+03  0.21773428890E+03  0.17160021740E+03 0.  0.
        -24    2    5    5    0    0  0.51426203502E+02  0.47420584861E+02  0.27005736823E+01  0.10652589574E+03  0.80293879527E+02 0.  0.
          5    1    3    3  501    0  0.26302238632E+02 -0.80730425129E+01  0.59318861381E+02  0.65557601299E+02  0.47000000000E+01 0. -1.
        -11    1    4    4    0    0 -0.26497618467E+02 -0.34825052016E+02  0.20652700265E+02  0.48388449661E+02  0.00000000000E+00 0.  1.
         12    1    4    4    0    0 -0.54723906988E+02 -0.19579731065E+01 -0.50446824580E+02  0.74454158816E+02  0.00000000000E+00 0. -1.
         -5    1    5    5    0  502  0.34930833212E+01 -0.25645172256E+01  0.11102449428E+03  0.11120839317E+03  0.47000000000E+01 0.  1.
         11    1    6    6    0    0  0.56897518033E+01  0.50823863082E+02 -0.20538367113E+02  0.55111367773E+02  0.00000000000E+00 0. -1.
        -12    1    6    6    0    0  0.45736451698E+02 -0.34032782208E+01  0.23238940795E+02  0.51414527965E+02  0.00000000000E+00 0.  1.
</event>
<event>
12    1  0.8526130E-002  0.1910922E+03  0.7818608E-02  0.1157627E+00
         21   -1    0    0  503  502  0.00000000000E+00  0.00000000000E+00  0.11013132666E+03  0.11013132666E+03  0.00000000000E+00 0.  1.
         21   -1    0    0  501  503 -0.00000000000E+00 -0.00000000000E+00 -0.34339871704E+03  0.34339871704E+03  0.00000000000E+00 0. -1.
          6    2    1    2  501    0 -0.53904455745E+02  0.59822671703E+02 -0.72758925630E+02  0.20447511538E+03  0.17329676613E+03 0.  0.
         24    2    3    3    0    0 -0.83192878958E+02 -0.86828514588E+01 -0.34492015509E+02  0.12058670826E+03  0.79718304404E+02 0.  0.
         -6    2    1    2    0  502  0.53904455745E+02 -0.59822671703E+02 -0.16050846475E+03  0.24905492832E+03  0.17257157259E+03 0.  0.
        -24    2    5    5    0    0 -0.21037619842E+01 -0.77468161833E+02 -0.15388242575E+03  0.18977358076E+03  0.79551675588E+02 0.  0.
          5    1    3    3  501    0  0.29288423212E+02  0.68505523162E+02 -0.38266910121E+02  0.83888407114E+02  0.47000000000E+01 0. -1.
        -11    1    4    4    0    0 -0.19381321774E+02  0.96581415627E+01  0.23840501158E+02  0.32206906520E+02  0.00000000000E+00 0.  1.
         12    1    4    4    0    0 -0.63811557184E+02 -0.18340993022E+02 -0.58332516667E+02  0.88379801742E+02  0.00000000000E+00 0. -1.
         -5    1    5    5    0  502  0.56008217729E+02  0.17645490130E+02 -0.66260390005E+01  0.59281347555E+02  0.47000000000E+01 0.  1.
         13    1    6    6    0    0  0.21928914168E+02 -0.13015312923E+02 -0.97654976531E+02  0.10092953031E+03  0.00000000000E+00 0. -1.
        -14    1    6    6    0    0 -0.24032676152E+02 -0.64452848909E+02 -0.56227449221E+02  0.88844050456E+02  0.00000000000E+00 0.  1.
</event>
<event>
12    1  0.8526130E-002  0.1862401E+03  0.7818608E-02  0.1162184E+00
         21   -1    0    0  503  502  0.00000000000E+00  0.00000000000E+00  0.10108839257E+03  0.10108839257E+03  0.00000000000E+00 0.  1.
         21   -1    0    0  501  503 -0.00000000000E+00 -0.00000000000E+00 -0.34097005220E+03  0.34097005220E+03  0.00000000000E+00 0.  1.
          6    2    1    2  501    0 -0.46990437066E+02  0.51504610105E+02 -0.12455977960E+03  0.22405469454E+03  0.17269783268E+03 0.  0.
         24    2    3    3    0    0 -0.20631756025E+02  0.85707862249E+02 -0.34000749572E+02  0.12361729890E+03  0.79709965548E+02 0.  0.
         -6    2    1    2    0  502  0.46990437066E+02 -0.51504610105E+02 -0.11532188002E+03  0.21800375023E+03  0.17136415338E+03 0.  0.
        -24    2    5    5    0    0  0.52893098459E+02  0.33247772466E+02 -0.64244010638E+02  0.11876239542E+03  0.77936637244E+02 0.  0.
          5    1    3    3  501    0 -0.26358681041E+02 -0.34203252143E+02 -0.90559030030E+02  0.10043739564E+03  0.47000000000E+01 0. -1.
        -11    1    4    4    0    0 -0.44680391798E+02  0.28088891292E+02 -0.30784353519E+02  0.61098278592E+02  0.00000000000E+00 0.  1.
         12    1    4    4    0    0  0.24048635773E+02  0.57618970956E+02 -0.32163960527E+01  0.62519020307E+02  0.00000000000E+00 0. -1.
         -5    1    5    5    0  502 -0.59026613933E+01 -0.84752382571E+02 -0.51077869386E+02  0.99241354807E+02  0.47000000000E+01 0.  1.
         13    1    6    6    0    0  0.12854700787E+01 -0.78791602366E+01 -0.50790741201E+02  0.51414326710E+02  0.00000000000E+00 0. -1.
        -14    1    6    6    0    0  0.51607628381E+02  0.41126932702E+02 -0.13453269437E+02  0.67348068711E+02  0.00000000000E+00 0.  1.
</event>
<event>
12    1  0.8526130E-002  0.2001569E+03  0.7818608E-02  0.1149721E+00
         21   -1    0    0  501  502  0.00000000000E+00  0.00000000000E+00  0.21974808441E+03  0.21974808441E+03  0.00000000000E+00 0.  1.
         21   -1    0    0  502  503 -0.00000000000E+00 -0.00000000000E+00 -0.20663870935E+03  0.20663870935E+03  0.00000000000E+00 0.  1.
         -6    2    1    2    0  503 -0.56964163492E+02  0.84327943543E+02  0.80448260207E+02  0.21571906713E+03  0.17235624552E+03 0.  0.
        -24    2    3    3    0    0 -0.69237910284E+02  0.73524360664E+02  0.11795313298E+03  0.17453572408E+03  0.79687248455E+02 0.  0.
          6    2    1    2  501    0  0.56964163492E+02 -0.84327943543E+02 -0.67338885147E+02  0.21066772663E+03  0.17172724771E+03 0.  0.
         24    2    5    5    0    0  0.86268384603E+02 -0.48161231010E+02  0.21140480539E+01  0.12692664710E+03  0.79650274271E+02 0.  0.
          5    1    5    5  501    0 -0.29304221111E+02 -0.36166712533E+02 -0.69452933201E+02  0.83741079528E+02  0.47000000000E+01 0. -1.
        -11    1    6    6    0    0 -0.12322660810E+02 -0.28032550945E+01 -0.12074670071E+02  0.17478668882E+02  0.00000000000E+00 0.  1.
         12    1    6    6    0    0  0.98591045413E+02 -0.45357975916E+02  0.14188718125E+02  0.10944797822E+03  0.00000000000E+00 0. -1.
         -5    1    3    3    0  503  0.12273746793E+02  0.10803582879E+02 -0.37504872777E+02  0.41183343057E+02  0.47000000000E+01 0.  1.
         11    1    4    4    0    0 -0.62595155899E+02  0.42244018303E+02  0.30541666743E+02  0.81458603179E+02  0.00000000000E+00 0. -1.
        -12    1    4    4    0    0 -0.66427543856E+01  0.31280342361E+02  0.87411466241E+02  0.93077120897E+02  0.00000000000E+00 0.  1.
</event>
<event>
12    1  0.8526130E-002  0.3996235E+03  0.7818608E-02  0.1043937E+00
         21   -1    0    0  503  502  0.00000000000E+00  0.00000000000E+00  0.66484009068E+03  0.66484009068E+03  0.00000000000E+00 0.  1.
         21   -1    0    0  501  503 -0.00000000000E+00 -0.00000000000E+00 -0.55568690542E+03  0.55568690542E+03  0.00000000000E+00 0. -1.
          6    2    1    2  501    0 -0.27151835496E+03 -0.23727128472E+03 -0.40538717377E+03  0.56902817010E+03  0.17156461781E+03 0.  0.
         24    2    3    3    0    0 -0.22970741438E+03 -0.16380642205E+03 -0.22429061737E+03  0.36911995732E+03  0.79656900056E+02 0.  0.
         -6    2    1    2    0  502  0.27151835496E+03  0.23727128472E+03  0.51454035903E+03  0.65149882600E+03  0.17227611433E+03 0.  0.
        -24    2    5    5    0    0  0.20650572859E+03  0.13766165859E+03  0.24864676946E+03  0.36017390399E+03  0.79401996000E+02 0.  0.
          5    1    3    3  501    0 -0.41810940584E+02 -0.73464862672E+02 -0.18109655640E+03  0.19990821279E+03  0.47000000000E+01 0. -1.
        -13    1    4    4    0    0 -0.18089824038E+03 -0.11110232405E+03 -0.12431129121E+03  0.24601056258E+03  0.00000000000E+00 0.  1.
         14    1    4    4    0    0 -0.48809174001E+02 -0.52704098004E+02 -0.99979326160E+02  0.12310939474E+03  0.00000000000E+00 0. -1.
         -5    1    5    5    0  502  0.65012626375E+02  0.99609626136E+02  0.26589358957E+03  0.29132492201E+03  0.47000000000E+01 0.  1.
         13    1    6    6    0    0  0.69628198104E+02  0.92487925454E+02  0.97996105744E+02  0.15167511024E+03  0.00000000000E+00 0. -1.
        -14    1    6    6    0    0  0.13687753048E+03  0.45173733131E+02  0.15065066372E+03  0.20849879375E+03  0.00000000000E+00 0.  1.
</event>
<event>
12    1  0.8526130E-002  0.2126146E+03  0.7818608E-02  0.1139690E+00
         21   -1    0    0  501  502  0.00000000000E+00  0.00000000000E+00  0.63909975465E+03  0.63909975465E+03  0.00000000000E+00 0. -1.
         21   -1    0    0  502  503 -0.00000000000E+00 -0.00000000000E+00 -0.16249523540E+03  0.16249523540E+03  0.00000000000E+00 0. -1.
         -6    2    1    2    0  503 -0.11909958331E+03 -0.36244330344E+02 -0.63604856227E+02  0.22105116760E+03  0.17122990023E+03 0.  0.
        -24    2    3    3    0    0 -0.49082828070E+02 -0.44352438356E+02  0.26432699291E+02  0.10660930972E+03  0.79313268302E+02 0.  0.
          6    2    1    2  501    0  0.11909958331E+03  0.36244330344E+02  0.54020937548E+03  0.58054382245E+03  0.17235602165E+03 0.  0.
         24    2    5    5    0    0  0.19325206618E+02 -0.28794783393E+02  0.30714816271E+03  0.31877172413E+03  0.77928268862E+02 0.  0.
          5    1    5    5  501    0  0.99774376692E+02  0.65039113737E+02  0.23306121277E+03  0.26177209832E+03  0.47000000000E+01 0. -1.
        -11    1    6    6    0    0 -0.74053816603E+01 -0.39291538166E+02  0.76274806933E+02  0.86119166401E+02  0.00000000000E+00 0.  1.
         12    1    6    6    0    0  0.26730588278E+02  0.10496754774E+02  0.23087335577E+03  0.23265255773E+03  0.00000000000E+00 0. -1.
         -5    1    3    3    0  503 -0.70016755241E+02  0.81081080115E+01 -0.90037555518E+02  0.11444185787E+03  0.47000000000E+01 0.  1.
         13    1    4    4    0    0 -0.42375055882E+02 -0.60779693242E+02 -0.80981317556E+00  0.74097721078E+02  0.00000000000E+00 0. -1.
        -14    1    4    4    0    0 -0.67077721882E+01  0.16427254887E+02  0.27242512467E+02  0.32511588647E+02  0.00000000000E+00 0.  1.
</event>
<event>
12    1  0.8526130E-002  0.2991325E+03  0.7818608E-02  0.1085740E+00
         21   -1    0    0  503  502  0.00000000000E+00  0.00000000000E+00  0.29019029569E+03  0.29019029569E+03  0.00000000000E+00 0.  1.
         21   -1    0    0  501  503 -0.00000000000E+00 -0.00000000000E+00 -0.41066918958E+03  0.41066918958E+03  0.00000000000E+00 0. -1.
          6    2    1    2  501    0 -0.17249245478E+03  0.17408314004E+03  0.11509200897E+03  0.32050963908E+03  0.17152746607E+03 0.  0.
         24    2    3    3    0    0 -0.18371019924E+03  0.99946263172E+02  0.80732352132E+02  0.23789734992E+03  0.79616226934E+02 0.  0.
         -6    2    1    2    0  502  0.17249245478E+03 -0.17408314004E+03 -0.23557090287E+03  0.38034984619E+03  0.17062757286E+03 0.  0.
        -24    2    5    5    0    0  0.13116495800E+03 -0.60936044745E+02 -0.79316366366E+02  0.18299788309E+03  0.79244504452E+02 0.  0.
          5    1    3    3  501    0  0.11217744468E+02  0.74136876863E+02  0.34359656835E+02  0.82612289157E+02  0.47000000000E+01 0. -1.
        -13    1    4    4    0    0 -0.37750759795E+02  0.25079988887E+02  0.55937666331E+02  0.71994084633E+02  0.00000000000E+00 0.  1.
         14    1    4    4    0    0 -0.14595943945E+03  0.74866274285E+02  0.24794685801E+02  0.16590326529E+03  0.00000000000E+00 0. -1.
         -5    1    5    5    0  502  0.41327496775E+02 -0.11314709529E+03 -0.15625453650E+03  0.19735196310E+03  0.47000000000E+01 0.  1.
         13    1    6    6    0    0  0.58932347269E+01  0.14586365837E+02 -0.19272100329E+02  0.24877824161E+02  0.00000000000E+00 0. -1.
        -14    1    6    6    0    0  0.12527172327E+03 -0.75522410583E+02 -0.60044266036E+02  0.15812005893E+03  0.00000000000E+00 0.  1.
</event>
<event>
12    1  0.8526130E-002  0.2393445E+03  0.7818608E-02  0.1120317E+00
         21   -1    0    0  501  502  0.00000000000E+00  0.00000000000E+00  0.55637292654E+03  0.55637292654E+03  0.00000000000E+00 0.  1.
         21   -1    0    0  502  503 -0.00000000000E+00 -0.00000000000E+00 -0.14776076406E+03  0.14776076406E+03  0.00000000000E+00 0.  1.
         -6    2    1    2    0  503  0.11991620528E+03  0.11553864149E+03  0.10123660397E+02  0.23955853043E+03  0.17192069984E+03 0.  0.
        -24    2    3    3    0    0  0.12616560252E+02  0.85884633777E+01 -0.22588542296E+02  0.84498114372E+02  0.79979683630E+02 0.  0.
          6    2    1    2  501    0 -0.11991620528E+03 -0.11553864149E+03  0.39848850209E+03  0.46457516018E+03  0.17119555832E+03 0.  0.
         24    2    5    5    0    0 -0.40889802591E+02 -0.11473813239E+03  0.17666070634E+03  0.22904283946E+03  0.80092460078E+02 0.  0.
          5    1    5    5  501    0 -0.79026402692E+02 -0.80050909867E+00  0.22182779575E+03  0.23553232072E+03  0.47000000000E+01 0. -1.
        -11    1    6    6    0    0 -0.30297747374E+02 -0.91162878607E+02  0.17894076247E+03  0.20309707139E+03  0.00000000000E+00 0.  1.
         12    1    6    6    0    0 -0.10592055216E+02 -0.23575253784E+02 -0.22800561333E+01  0.25945768068E+02  0.00000000000E+00 0. -1.
         -5    1    3    3    0  503  0.10729964503E+03  0.10695017811E+03  0.32712202694E+02  0.15506041605E+03  0.47000000000E+01 0.  1.
         13    1    4    4    0    0  0.30308172939E+02 -0.27669067425E+02 -0.10053258762E+02  0.42251989904E+02  0.00000000000E+00 0. -1.
        -14    1    4    4    0    0 -0.17691612687E+02  0.36257530802E+02 -0.12535283534E+02  0.42246124469E+02  0.00000000000E+00 0.  1.
</event>
<event>
12    1  0.8526130E-002  0.2756393E+03  0.7818608E-02  0.1098468E+00
         21   -1    0    0  503  502  0.00000000000E+00  0.00000000000E+00  0.10435791038E+03  0.10435791038E+03  0.00000000000E+00 0.  1.
         21   -1    0    0  501  503 -0.00000000000E+00 -0.00000000000E+00 -0.73090278543E+03  0.73090278543E+03  0.00000000000E+00 0. -1.
          6    2    1    2  501    0 -0.20207788314E+03  0.65603257284E+02 -0.26619416788E+03  0.38319230099E+03  0.17560679458E+03 0.  0.
         24    2    3    3    0    0 -0.22056482859E+03  0.49097255266E+02 -0.26751755053E+03  0.35793251880E+03  0.74099015432E+02 0.  0.
         -6    2    1    2    0  502  0.20207788314E+03 -0.65603257284E+02 -0.36035070718E+03  0.45206839482E+03  0.17138828202E+03 0.  0.
        -24    2    5    5    0    0  0.11005998454E+03 -0.80298126989E+02 -0.30686393969E+03  0.34452232491E+03  0.77260374601E+02 0.  0.
          5    1    3    3  501    0  0.18486945448E+02  0.16506002018E+02  0.13233826474E+01  0.25259782190E+02  0.47000000000E+01 0. -1.
        -13    1    4    4    0    0 -0.15265285582E+03 -0.19076473822E+01 -0.16469808559E+03  0.22457068577E+03  0.00000000000E+00 0.  1.
         14    1    4    4    0    0 -0.67911972765E+02  0.51004902648E+02 -0.10281946494E+03  0.13336183303E+03  0.00000000000E+00 0. -1.
         -5    1    5    5    0  502  0.92017898600E+02  0.14694869704E+02 -0.53486767491E+02  0.10754606992E+03  0.47000000000E+01 0.  1.
         11    1    6    6    0    0 -0.45888557175E+01 -0.31531573700E+02 -0.69117351834E+02  0.76108515038E+02  0.00000000000E+00 0. -1.
        -12    1    6    6    0    0  0.11464884025E+03 -0.48766553288E+02 -0.23774658785E+03  0.26841380987E+03  0.00000000000E+00 0.  1.
</event>
<event>
12    1  0.8526130E-002  0.1716256E+03  0.7818608E-02  0.1177598E+00
         21   -1    0    0  501  502  0.00000000000E+00  0.00000000000E+00  0.65085998870E+03  0.65085998870E+03  0.00000000000E+00 0.  1.
         21   -1    0    0  502  503 -0.00000000000E+00 -0.00000000000E+00 -0.68911820627E+02  0.68911820627E+02  0.00000000000E+00 0.  1.
         -6    2    1    2    0  503  0.19234212865E+01  0.18308440083E+02  0.76845340075E+02  0.18804399556E+03  0.17063539917E+03 0.  0.
        -24    2    3    3    0    0  0.41892977143E+02 -0.27028498782E+01 -0.97271695693E+01  0.90289562788E+02  0.79342676973E+02 0.  0.
          6    2    1    2  501    0 -0.19234212865E+01 -0.18308440083E+02  0.50510282800E+03  0.53172781376E+03  0.16512632301E+03 0.  0.
         24    2    5    5    0    0 -0.41972339798E+02  0.46317243138E+00  0.45836317560E+03  0.46720669771E+03  0.80146152757E+02 0.  0.
          5    1    5    5  501    0  0.40048918511E+02 -0.18771612514E+02  0.46739652394E+02  0.64521116049E+02  0.47000000000E+01 0. -1.
        -11    1    6    6    0    0 -0.24185422873E+01 -0.10698611584E+02  0.36539291532E+03  0.36555750875E+03  0.00000000000E+00 0.  1.
         12    1    6    6    0    0 -0.39553797510E+02  0.11161784015E+02  0.92970260283E+02  0.10164918896E+03  0.00000000000E+00 0. -1.
         -5    1    3    3    0  503 -0.39969555857E+02  0.21011289961E+02  0.86572509644E+02  0.97754432776E+02  0.47000000000E+01 0.  1.
         11    1    4    4    0    0 -0.20622871936E+02  0.12691692326E+02  0.37688134862E+01  0.24506853248E+02  0.00000000000E+00 0. -1.
        -12    1    4    4    0    0  0.62515849080E+02 -0.15394542205E+02 -0.13495983056E+02  0.65782709540E+02  0.00000000000E+00 0.  1.
</event>
<event>
12    1  0.8526130E-002  0.1829395E+03  0.7818608E-02  0.1165305E+00
         21   -1    0    0  501  502  0.00000000000E+00  0.00000000000E+00  0.34716495098E+03  0.34716495098E+03  0.00000000000E+00 0.  1.
         21   -1    0    0  502  503 -0.00000000000E+00 -0.00000000000E+00 -0.99149684673E+02  0.99149684673E+02  0.00000000000E+00 0.  1.
         -6    2    1    2    0  503  0.48434172906E+02  0.38762810578E+02  0.81939936193E+02  0.19923597092E+03  0.17068214428E+03 0.  0.
        -24    2    3    3    0    0 -0.28611893792E+02 -0.19732473841E+02  0.23718658690E+02  0.86233307909E+02  0.75270164293E+02 0.  0.
          6    2    1    2  501    0 -0.48434172906E+02 -0.38762810578E+02  0.16607533011E+03  0.24707866473E+03  0.17210004854E+03 0.  0.
         24    2    5    5    0    0 -0.34954949169E+01  0.38085870161E+02  0.52778425443E+02  0.10291388707E+03  0.79642664254E+02 0.  0.
          5    1    5    5  501    0 -0.44938677989E+02 -0.76848680739E+02  0.11329690467E+03  0.14416477766E+03  0.47000000000E+01 0. -1.
        -11    1    6    6    0    0 -0.36463634229E+02 -0.10216656604E+01  0.15567942025E+02  0.39661079673E+02  0.00000000000E+00 0.  1.
         12    1    6    6    0    0  0.32968139312E+02  0.39107535821E+02  0.37210483418E+02  0.63252807400E+02  0.00000000000E+00 0. -1.
         -5    1    3    3    0  503  0.77046066698E+02  0.58495284419E+02  0.58221277503E+02  0.11300266301E+03  0.47000000000E+01 0.  1.
         11    1    4    4    0    0 -0.30590273668E+02 -0.17485479641E+02  0.49233783074E+02  0.60543143601E+02  0.00000000000E+00 0. -1.
        -12    1    4    4    0    0  0.19783798755E+01 -0.22469941997E+01 -0.25515124384E+02  0.25690164308E+02  0.00000000000E+00 0.  1.
</event>
<event>
12    1  0.8526130E-002  0.2274541E+03  0.7818608E-02  0.1129394E+00
         21   -1    0    0  503  502  0.00000000000E+00  0.00000000000E+00  0.11057268995E+03  0.11057268995E+03  0.00000000000E+00 0. -1.
         21   -1    0    0  501  503 -0.00000000000E+00 -0.00000000000E+00 -0.81277883342E+03  0.81277883342E+03  0.00000000000E+00 0.  1.
          6    2    1    2  501    0  0.55728625664E+02 -0.13247524429E+03 -0.65417448545E+03  0.69088125287E+03  0.16946173044E+03 0.  0.
         24    2    3    3    0    0  0.48595587552E+02 -0.10136126313E+03 -0.25012221303E+03  0.28554276604E+03  0.79611010511E+02 0.  0.
         -6    2    1    2    0  502 -0.55728625664E+02  0.13247524429E+03 -0.48031658012E+02  0.23247027050E+03  0.17629525356E+03 0.  0.
        -24    2    5    5    0    0 -0.41942538335E+02  0.34179179128E+02  0.35666010689E+02  0.10254890053E+03  0.79478423951E+02 0.  0.
          5    1    3    3  501    0  0.71330381119E+01 -0.31113981161E+02 -0.40405227242E+03  0.40533848683E+03  0.47000000000E+01 0. -1.
        -11    1    4    4    0    0  0.11699142621E+02 -0.23906396821E+01 -0.10700409931E+03  0.10766829787E+03  0.00000000000E+00 0.  1.
         12    1    4    4    0    0  0.36896444930E+02 -0.98970623443E+02 -0.14311811372E+03  0.17787446817E+03  0.00000000000E+00 0. -1.
         -5    1    5    5    0  502 -0.13786087329E+02  0.98296065158E+02 -0.83697668700E+02  0.12992136997E+03  0.47000000000E+01 0.  1.
         11    1    6    6    0    0  0.15808139123E+02  0.23539472165E+02 -0.78945710866E+01  0.29433454860E+02  0.00000000000E+00 0. -1.
        -12    1    6    6    0    0 -0.57750677458E+02  0.10639706963E+02  0.43560581775E+02  0.73115445671E+02  0.00000000000E+00 0.  1.
</event>
<event>
12    1  0.8526130E-002  0.1834072E+03  0.7818608E-02  0.1164891E+00
         21   -1    0    0  501  502  0.00000000000E+00  0.00000000000E+00  0.86959222815E+02  0.86959222815E+02  0.00000000000E+00 0. -1.
         21   -1    0    0  502  503 -0.00000000000E+00 -0.00000000000E+00 -0.71078672476E+03  0.71078672476E+03  0.00000000000E+00 0.  1.
         -6    2    1    2    0  503 -0.12439720988E+02  0.59651469915E+02 -0.58179575404E+03  0.60958410001E+03  0.17144512549E+03 0.  0.
        -24    2    3    3    0    0  0.59656808240E+02  0.43910188898E+02 -0.33781435402E+03  0.35464349711E+03  0.78526637540E+02 0.  0.
          6    2    1    2  501    0  0.12439720988E+02 -0.59651469915E+02 -0.42031747906E+02  0.18816184756E+03  0.17298892601E+03 0.  0.
         24    2    5    5    0    0 -0.52039666693E+02 -0.67393466766E+02 -0.33109187937E+02  0.12244098308E+03  0.81520363961E+02 0.  0.
          5    1    5    5  501    0  0.64479387680E+02  0.77419968509E+01 -0.89225599684E+01  0.65720864474E+02  0.47000000000E+01 0. -1.
        -13    1    6    6    0    0  0.18492181013E+02 -0.34895478218E+02 -0.47985146259E+01  0.39782922232E+02  0.00000000000E+00 0.  1.
         14    1    6    6    0    0 -0.70531847706E+02 -0.32497988548E+02 -0.28310673311E+02  0.82658060852E+02  0.00000000000E+00 0. -1.
         -5    1    3    3    0  503 -0.72096529227E+02  0.15741281017E+02 -0.24398140002E+03  0.25494060290E+03  0.47000000000E+01 0.  1.
         11    1    4    4    0    0  0.30207432572E+02 -0.98736053730E+01 -0.21538374130E+03  0.21771571621E+03  0.00000000000E+00 0. -1.
        -12    1    4    4    0    0  0.29449375668E+02  0.53783794271E+02 -0.12243061272E+03  0.13692778091E+03  0.00000000000E+00 0.  1.
</event>
<event>
12    1  0.8526130E-002  0.2063682E+03  0.7818608E-02  0.1144714E+00
         21   -1    0    0  501  502  0.00000000000E+00  0.00000000000E+00  0.61581022920E+02  0.61581022920E+02  0.00000000000E+00 0.  1.
         21   -1    0    0  502  503 -0.00000000000E+00 -0.00000000000E+00 -0.88340402153E+03  0.88340402153E+03  0.00000000000E+00 0. -1.
         -6    2    1    2    0  503  0.63450321717E+02 -0.91718358940E+02 -0.18756415517E+03  0.27799770877E+03  0.17223301973E+03 0.  0.
        -24    2    3    3    0    0  0.95509543993E+02 -0.42088009971E+02 -0.17331973477E+03  0.21703904421E+03  0.78566803904E+02 0.  0.
          6    2    1    2  501    0 -0.63450321717E+02  0.91718358940E+02 -0.63425884345E+03  0.66698733568E+03  0.17363647307E+03 0.  0.
         24    2    5    5    0    0 -0.21600767816E+02  0.51994830940E+02 -0.14647103608E+03  0.17577620099E+03  0.79205131193E+02 0.  0.
          5    1    5    5  501    0 -0.41849553901E+02  0.39723527999E+02 -0.48778780736E+03  0.49121113470E+03  0.47000000000E+01 0. -1.
        -13    1    6    6    0    0 -0.91854267737E+01 -0.65924258317E+01 -0.98220157818E+02  0.98868759197E+02  0.00000000000E+00 0.  1.
         14    1    6    6    0    0 -0.12415341042E+02  0.58587256772E+02 -0.48250878265E+02  0.76907441789E+02  0.00000000000E+00 0. -1.
         -5    1    3    3    0  503 -0.32059222277E+02 -0.49630348968E+02 -0.14244420396E+02  0.60958664553E+02  0.47000000000E+01 0.  1.
         11    1    4    4    0    0  0.78339955402E+02 -0.14459639007E+02 -0.61661632677E+02  0.10073920149E+03  0.00000000000E+00 0. -1.
        -12    1    4    4    0    0  0.17169588591E+02 -0.27628370964E+02 -0.11165810209E+03  0.11629984272E+03  0.00000000000E+00 0.  1.
</event>
<event>
12    1  0.8526130E-002  0.1752555E+03  0.7818608E-02  0.1173921E+00
         21   -1    0    0  501  502  0.00000000000E+00  0.00000000000E+00  0.75203274632E+02  0.75203274632E+02  0.00000000000E+00 0. -1.
         21   -1    0    0  502  503 -0.00000000000E+00 -0.00000000000E+00 -0.48289196023E+03  0.48289196023E+03  0.00000000000E+00 0. -1.
         -6    2    1    2    0  503 -0.20759015163E+02 -0.25971040052E+02 -0.32540903454E+03  0.36960187210E+03  0.17207286964E+03 0.  0.
        -24    2    3    3    0    0  0.26529998750E+02  0.21502902193E+02 -0.90034238817E+02  0.12482971173E+03  0.79435993953E+02 0.  0.
          6    2    1    2  501    0  0.20759015163E+02  0.25971040052E+02 -0.82279651058E+02  0.18849336276E+03  0.16629604684E+03 0.  0.
         24    2    5    5    0    0  0.15853684297E+01  0.13234636992E+02 -0.11990639442E+03  0.14413452478E+03  0.78864116057E+02 0.  0.
          5    1    5    5  501    0  0.19173646733E+02  0.12736403059E+02  0.37626743358E+02  0.44358837988E+02  0.47000000000E+01 0. -1.
        -13    1    6    6    0    0 -0.14401196253E+02  0.14784418207E+02  0.23998439726E+01  0.20778179091E+02  0.00000000000E+00 0.  1.
         14    1    6    6    0    0  0.15986564683E+02 -0.15497812147E+01 -0.12230623839E+03  0.12335634569E+03  0.00000000000E+00 0. -1.
         -5    1    3    3    0  503 -0.47289013912E+02 -0.47473942244E+02 -0.23537479572E+03  0.24477216036E+03  0.47000000000E+01 0.  1.
         13    1    4    4    0    0  0.16083939707E+02  0.25528248582E+02 -0.10321600629E+03  0.10753570824E+03  0.00000000000E+00 0. -1.
        -14    1    4    4    0    0  0.10446059043E+02 -0.40253463891E+01  0.13181767473E+02  0.17294003492E+02  0.00000000000E+00 0.  1.
</event>
<event>
12    1  0.8526130E-002  0.1817057E+03  0.7818608E-02  0.1166224E+00
         21   -1    0    0  501  502  0.00000000000E+00  0.00000000000E+00  0.16120389502E+03  0.16120389502E+03  0.00000000000E+00 0. -1.
         21   -1    0    0  502  503 -0.00000000000E+00 -0.00000000000E+00 -0.26294801673E+03  0.26294801673E+03  0.00000000000E+00 0. -1.
         -6    2    1    2    0  503  0.39967960750E+02 -0.42957134512E+02 -0.15080879559E+03  0.23593850400E+03  0.17170012101E+03 0.  0.
        -24    2    3    3    0    0  0.35883974780E+02 -0.64274667972E+02 -0.30566842556E+02  0.11366285867E+03  0.81030987825E+02 0.  0.
          6    2    1    2  501    0 -0.39967960750E+02  0.42957134512E+02  0.49064673875E+02  0.18821340775E+03  0.17197148410E+03 0.  0.
         24    2    5    5    0    0 -0.79129763849E+02  0.60848378273E+02  0.60632677353E+01  0.12718100361E+03  0.78576076498E+02 0.  0.
          5    1    5    5  501    0  0.39161803099E+02 -0.17891243761E+02  0.43001406139E+02  0.61032404141E+02  0.47000000000E+01 0. -1.
        -13    1    6    6    0    0 -0.42398660918E+02  0.63486700635E+02  0.31329294771E+02  0.82521102247E+02  0.00000000000E+00 0.  1.
         14    1    6    6    0    0 -0.36731102932E+02 -0.26383223618E+01 -0.25266027036E+02  0.44659901362E+02  0.00000000000E+00 0. -1.
         -5    1    3    3    0  503  0.40839859702E+01  0.21317533460E+02 -0.12024195303E+03  0.12227564534E+03  0.47000000000E+01 0.  1.
         13    1    4    4    0    0  0.34742197141E+02 -0.10265269167E+02 -0.44977178413E+02  0.57752424982E+02  0.00000000000E+00 0. -1.
        -14    1    4    4    0    0  0.11417776388E+01 -0.54009398805E+02  0.14410335857E+02  0.55910433686E+02  0.00000000000E+00 0.  1.
</event>
<event>
12    1  0.8526130E-002  0.2242097E+03  0.7818608E-02  0.1130799E+00
         21   -1    0    0  503  502  0.00000000000E+00  0.00000000000E+00  0.20367159081E+02  0.20367159081E+02  0.00000000000E+00 0. -1.
         21   -1    0    0  501  503 -0.00000000000E+00 -0.00000000000E+00 -0.25158946831E+04  0.25158946831E+04  0.00000000000E+00 0.  1.
          6    2    1    2  501    0  0.12415330370E+03 -0.74970176513E+02 -0.10715717498E+04  0.10947766929E+04  0.17098368984E+03 0.  0.
         24    2    3    3    0    0  0.40585917453E+01  0.27745037766E+01 -0.32761592817E+03  0.33717565695E+03  0.79567940854E+02 0.  0.
         -6    2    1    2    0  502 -0.12415330370E+03  0.74970176513E+02 -0.14239557741E+04  0.14414851492E+04  0.17086491285E+03 0.  0.
        -24    2    5    5    0    0 -0.12342119487E+03  0.14021336848E+01 -0.73043026705E+03  0.74405234821E+03  0.69647430115E+02 0.  0.
          5    1    3    3  501    0  0.12009471196E+03 -0.77744680289E+02 -0.74395582167E+03  0.75760103600E+03  0.47000000000E+01 0. -1.
        -11    1    4    4    0    0 -0.37807524405E+01 -0.29178773170E+02 -0.26324333303E+03  0.26488251599E+03  0.00000000000E+00 0.  1.
         12    1    4    4    0    0  0.78393441858E+01  0.31953276947E+02 -0.64372595139E+02  0.72293140960E+02  0.00000000000E+00 0. -1.
         -5    1    5    5    0  502 -0.73210883143E+00  0.73568042828E+02 -0.69352550709E+03  0.69743280099E+03  0.47000000000E+01 0.  1.
         13    1    6    6    0    0 -0.84640869776E+02 -0.31242381965E+02 -0.42837420239E+03  0.43777233871E+03  0.00000000000E+00 0. -1.
        -14    1    6    6    0    0 -0.38780325094E+02  0.32644515650E+02 -0.30205606466E+03  0.30628000950E+03  0.00000000000E+00 0.  1.
</event>
<event>
12    1  0.8526130E-002  0.1859483E+03  0.7818608E-02  0.1162367E+00
         21   -1    0    0  501  502  0.00000000000E+00  0.00000000000E+00  0.20070817056E+03  0.20070817056E+03  0.00000000000E+00 0.  1.
         21   -1    0    0  502  503 -0.00000000000E+00 -0.00000000000E+00 -0.17475682576E+03  0.17475682576E+03  0.00000000000E+00 0.  1.
         -6    2    1    2    0  503 -0.50931161780E+02 -0.47998750772E+02 -0.12702416192E+02  0.18638162079E+03  0.17227563343E+03 0.  0.
        -24    2    3    3    0    0  0.15877912305E+02  0.25821373251E+02 -0.11750304896E+02  0.86702838660E+02  0.80376993915E+02 0.  0.
          6    2    1    2  501    0  0.50931161780E+02  0.47998750772E+02  0.38653760992E+02  0.18908337552E+03  0.17134919417E+03 0.  0.
         24    2    5    5    0    0  0.43475604486E+02 -0.16497224985E+02  0.70957495523E+02  0.11641331643E+03  0.79717046198E+02 0.  0.
          5    1    5    5  501    0  0.74555572943E+01  0.64495975757E+02 -0.32303734531E+02  0.72670059089E+02  0.47000000000E+01 0. -1.
        -11    1    6    6    0    0  0.46559322527E+02 -0.12868865172E+02  0.31165753754E+01  0.48405487779E+02  0.00000000000E+00 0.  1.
         12    1    6    6    0    0 -0.30837180417E+01 -0.36283598130E+01  0.67840920147E+02  0.68007828655E+02  0.00000000000E+00 0. -1.
         -5    1    3    3    0  503 -0.66809074085E+02 -0.73820124023E+02 -0.95211129579E+00  0.99678782130E+02  0.47000000000E+01 0.  1.
         11    1    4    4    0    0  0.45354294947E+02  0.89107506594E+01  0.87117712451E+01  0.47035183700E+02  0.00000000000E+00 0. -1.
        -12    1    4    4    0    0 -0.29476382642E+02  0.16910622592E+02 -0.20462076141E+02  0.39667654961E+02  0.00000000000E+00 0.  1.
</event>
<event>
12    1  0.8526130E-002  0.1930999E+03  0.7818608E-02  0.1155772E+00
         21   -1    0    0  501  502  0.00000000000E+00  0.00000000000E+00  0.17774838411E+03  0.17774838411E+03  0.00000000000E+00 0.  1.
         21   -1    0    0  502  503 -0.00000000000E+00 -0.00000000000E+00 -0.22962501753E+03  0.22962501753E+03  0.00000000000E+00 0.  1.
         -6    2    1    2    0  503 -0.72190283881E+02 -0.51562355865E+02 -0.86413946321E+02  0.21155364298E+03  0.17151518915E+03 0.  0.
        -24    2    3    3    0    0 -0.77192076140E+02 -0.64863475063E+02 -0.11798953621E+03  0.17661018044E+03  0.84283676735E+02 0.  0.
          6    2    1    2  501    0  0.72190283881E+02  0.51562355865E+02  0.34537312907E+02  0.19581975866E+03  0.17112112163E+03 0.  0.
         24    2    5    5    0    0 -0.40503628120E+00  0.43797861611E+02 -0.33455414482E+02  0.95942489683E+02  0.78532030614E+02 0.  0.
          5    1    5    5  501    0  0.72595320162E+02  0.77644942541E+01  0.67992727389E+02  0.99877268977E+02  0.47000000000E+01 0. -1.
        -11    1    6    6    0    0  0.27679787908E+02 -0.88484925136E+01 -0.37896643017E+01  0.29305767929E+02  0.00000000000E+00 0.  1.
         12    1    6    6    0    0 -0.28084824189E+02  0.52646354125E+02 -0.29665750180E+02  0.66636721754E+02  0.00000000000E+00 0. -1.
         -5    1    3    3    0  503  0.50017922586E+01  0.13301119198E+02  0.31575589885E+02  0.34943462541E+02  0.47000000000E+01 0.  1.
         13    1    4    4    0    0 -0.22313493067E+02  0.20056945309E+02 -0.22118801933E+02  0.37274849791E+02  0.00000000000E+00 0. -1.
        -14    1    4    4    0    0 -0.54878583073E+02 -0.84920420372E+02 -0.95870734273E+02  0.13933533065E+03  0.00000000000E+00 0.  1.
</event>
<event>
12    1  0.8526130E-002  0.1871268E+03  0.7818608E-02  0.1162914E+00
         21   -1    0    0  501  502  0.00000000000E+00  0.00000000000E+00  0.20933043794E+03  0.20933043794E+03  0.00000000000E+00 0.  1.
         21   -1    0    0  502  503 -0.00000000000E+00 -0.00000000000E+00 -0.17546064616E+03  0.17546064616E+03  0.00000000000E+00 0.  1.
         -6    2    1    2    0  503 -0.67734659637E+02  0.26490547753E+02 -0.39131102316E+02  0.19117445772E+03  0.17241431750E+03 0.  0.
        -24    2    3    3    0    0 -0.62925599538E+02 -0.47340015719E+02 -0.15498466941E+02  0.11336269372E+03  0.80063660197E+02 0.  0.
          6    2    1    2  501    0  0.67734659637E+02 -0.26490547753E+02  0.73000894097E+02  0.19361662639E+03  0.16391624153E+03 0.  0.
         24    2    5    5    0    0  0.10302797949E+02 -0.70073989598E+02  0.36900078753E+02  0.11284971479E+03  0.79730362175E+02 0.  0.
          5    1    5    5  501    0  0.57431861688E+02  0.43583441846E+02  0.36100815344E+02  0.80766911595E+02  0.47000000000E+01 0. -1.
        -11    1    6    6    0    0  0.32947202934E+02 -0.68838526529E+01  0.30497130560E+02  0.45420046025E+02  0.00000000000E+00 0.  1.
         12    1    6    6    0    0 -0.22644404985E+02 -0.63190136945E+02  0.64029481928E+01  0.67429668766E+02  0.00000000000E+00 0. -1.
         -5    1    3    3    0  503 -0.48090600996E+01  0.73830563472E+02 -0.23632635376E+02  0.77811763998E+02  0.47000000000E+01 0.  1.
         13    1    4    4    0    0  0.61899897238E+01 -0.59589187657E+01  0.22653603947E+02  0.24228298690E+02  0.00000000000E+00 0. -1.
        -14    1    4    4    0    0 -0.69115589262E+02 -0.41381096954E+02 -0.38152070887E+02  0.89134395028E+02  0.00000000000E+00 0.  1.
</event>
<event>
12    1  0.8526130E-002  0.1996596E+03  0.7818608E-02  0.1150227E+00
         21   -1    0    0  501  502  0.00000000000E+00  0.00000000000E+00  0.56929807630E+02  0.56929807630E+02  0.00000000000E+00 0.  1.
         21   -1    0    0  502  503 -0.00000000000E+00 -0.00000000000E+00 -0.13983045985E+04  0.13983045985E+04  0.00000000000E+00 0.  1.
         -6    2    1    2    0  503  0.64684079953E+02  0.77157724451E+02 -0.11852189248E+04  0.12017613321E+04  0.17131565902E+03 0.  0.
        -24    2    3    3    0    0  0.18025785498E+02  0.60005130841E+01 -0.23433106866E+03  0.24706234808E+03  0.75946158551E+02 0.  0.
          6    2    1    2  501    0 -0.64684079953E+02 -0.77157724451E+02 -0.15615586610E+03  0.25347307405E+03  0.17241403686E+03 0.  0.
         24    2    5    5    0    0  0.15530114577E+02 -0.81632641157E+02 -0.12197087305E+03  0.16603712244E+03  0.76068124687E+02 0.  0.
          5    1    5    5  501    0 -0.80214194531E+02  0.44749167061E+01 -0.34184993055E+02  0.87435951610E+02  0.47000000000E+01 0. -1.
        -13    1    6    6    0    0 -0.30784374585E+02 -0.26801561868E+02 -0.41509678369E+02  0.58215589281E+02  0.00000000000E+00 0.  1.
         14    1    6    6    0    0  0.46314489162E+02 -0.54831079289E+02 -0.80461194680E+02  0.10782153315E+03  0.00000000000E+00 0. -1.
         -5    1    3    3    0  503  0.46658294456E+02  0.71157211366E+02 -0.95088785609E+03  0.95469898399E+03  0.47000000000E+01 0.  1.
         13    1    4    4    0    0 -0.29254471033E+02 -0.20978971086E+00 -0.67897574945E+02  0.73932055095E+02  0.00000000000E+00 0. -1.
        -14    1    4    4    0    0  0.47280256531E+02  0.62103027949E+01 -0.16643349372E+03  0.17313029299E+03  0.00000000000E+00 0.  1.
</event>
<event>
12    1  0.8526130E-002  0.1763774E+03  0.7818608E-02  0.1171928E+00
         21   -1    0    0  503  502  0.00000000000E+00  0.00000000000E+00  0.72219684765E+02  0.72219684765E+02  0.00000000000E+00 0. -1.
         21   -1    0    0  501  503 -0.00000000000E+00 -0.00000000000E+00 -0.74800893214E+03  0.74800893214E+03  0.00000000000E+00 0. -1.
          6    2    1    2  501    0  0.12707917511E+01  0.32779667326E+02 -0.60606050689E+03  0.63056813559E+03  0.17096992165E+03 0.  0.
         24    2    3    3    0    0 -0.20368247007E+02  0.59086390160E+02 -0.57636365910E+03  0.58513373856E+03  0.79248706533E+02 0.  0.
         -6    2    1    2    0  502 -0.12707917511E+01 -0.32779667326E+02 -0.69728740483E+02  0.18966048131E+03  0.17329996948E+03 0.  0.
        -24    2    5    5    0    0 -0.80630028116E+01 -0.73696272086E+02 -0.10343724665E+00  0.10848120115E+03  0.79196008554E+02 0.  0.
          5    1    3    3  501    0  0.21639038758E+02 -0.26306722834E+02 -0.29696847795E+02  0.45434397031E+02  0.47000000000E+01 0. -1.
        -13    1    4    4    0    0 -0.49921670306E+02  0.37947276262E+02 -0.30774512016E+03  0.31406882673E+03  0.00000000000E+00 0.  1.
         14    1    4    4    0    0  0.29553423300E+02  0.21139113897E+02 -0.26861853894E+03  0.27106491183E+03  0.00000000000E+00 0. -1.
         -5    1    5    5    0  502  0.67922110605E+01  0.40916604760E+02 -0.69625303236E+02  0.81179280157E+02  0.47000000000E+01 0.  1.
         11    1    6    6    0    0 -0.47002247101E+01  0.16524019326E+02  0.54619850740E+01  0.18026885698E+02  0.00000000000E+00 0. -1.
        -12    1    6    6    0    0 -0.33627781014E+01 -0.90220291412E+02 -0.55654223207E+01  0.90454315456E+02  0.00000000000E+00 0.  1.
</event>
<event>
12    1  0.8526130E-002  0.2129700E+03  0.7818608E-02  0.1139334E+00
         21   -1    0    0  503  502  0.00000000000E+00  0.00000000000E+00  0.13915265905E+04  0.13915265905E+04  0.00000000000E+00 0. -1.
         21   -1    0    0  501  503 -0.00000000000E+00 -0.00000000000E+00 -0.44621357512E+02  0.44621357512E+02  0.00000000000E+00 0.  1.
          6    2    1    2  501    0  0.99150792632E+01  0.12478921900E+03  0.10468626890E+04  0.10682053367E+04  0.17166972300E+03 0.  0.
         24    2    3    3    0    0  0.70977810038E+02  0.96028190799E+02  0.76972619850E+03  0.78292901768E+03  0.78994703199E+02 0.  0.
         -6    2    1    2    0  502 -0.99150792632E+01 -0.12478921900E+03  0.30004254403E+03  0.36794261134E+03  0.17229503485E+03 0.  0.
        -24    2    5    5    0    0 -0.24562084152E+02 -0.26653632810E+02  0.39582125479E+02  0.89183131388E+02  0.71226218114E+02 0.  0.
          5    1    3    3  501    0 -0.61062730775E+02  0.28761028201E+02  0.27713649047E+03  0.28527631900E+03  0.47000000000E+01 0. -1.
        -13    1    4    4    0    0 -0.33113663829E+01  0.53770573047E+02  0.21441242239E+03  0.22107674358E+03  0.00000000000E+00 0.  1.
         14    1    4    4    0    0  0.74289176421E+02  0.42257617752E+02  0.55531377610E+03  0.56185227411E+03  0.00000000000E+00 0. -1.
         -5    1    5    5    0  502  0.14647004889E+02 -0.98135586189E+02  0.26046041855E+03  0.27875947995E+03  0.47000000000E+01 0.  1.
         13    1    6    6    0    0  0.58994629685E+01  0.20349983603E+02  0.21840903129E+02  0.30429435510E+02  0.00000000000E+00 0. -1.
        -14    1    6    6    0    0 -0.30461547121E+02 -0.47003616413E+02  0.17741222350E+02  0.58753695878E+02  0.00000000000E+00 0.  1.
</event>
<event>
12    1  0.8526130E-002  0.2136723E+03  0.7818608E-02  0.1139059E+00
         21   -1    0    0  501  502  0.00000000000E+00  0.00000000000E+00  0.59941874807E+03  0.59941874807E+03  0.00000000000E+00 0.  1.
         21   -1    0    0  502  503 -0.00000000000E+00 -0.00000000000E+00 -0.92669313710E+02  0.92669313710E+02  0.00000000000E+00 0. -1.
         -6    2    1    2    0  503  0.14082706608E+02 -0.12231200741E+03  0.10347919352E+03  0.23570803457E+03  0.17231304155E+03 0.  0.
        -24    2    3    3    0    0  0.56479100242E+02 -0.34854292232E+02  0.82378921013E+02  0.13614088317E+03  0.85693307748E+02 0.  0.
          6    2    1    2  501    0 -0.14082706608E+02  0.12231200741E+03  0.40327024084E+03  0.45638002721E+03  0.17463473969E+03 0.  0.
         24    2    5    5    0    0  0.31542730750E+02  0.12499674876E+03  0.21814832561E+03  0.26564171991E+03  0.79735188777E+02 0.  0.
          5    1    5    5  501    0 -0.45625437358E+02 -0.26847413492E+01  0.18512191524E+03  0.19073830730E+03  0.47000000000E+01 0. -1.
        -13    1    6    6    0    0  0.32660329396E+02  0.11173165640E+03  0.22293364054E+03  0.25149566247E+03  0.00000000000E+00 0.  1.
         14    1    6    6    0    0 -0.11175986467E+01  0.13265092362E+02 -0.47853149333E+01  0.14146057441E+02  0.00000000000E+00 0. -1.
         -5    1    3    3    0  503 -0.42396393634E+02 -0.87457715179E+02  0.21100272506E+02  0.99567151397E+02  0.47000000000E+01 0.  1.
         13    1    4    4    0    0  0.47163182351E+02 -0.54136625103E+02  0.88410611516E+02  0.11389282759E+03  0.00000000000E+00 0. -1.
        -14    1    4    4    0    0  0.93159178912E+01  0.19282332871E+02 -0.60316905025E+01  0.22248055587E+02  0.00000000000E+00 0.  1.
</event>
<event>
12    1  0.8526130E-002  0.2262490E+03  0.7818608E-02  0.1129439E+00
         21   -1    0    0  501  502  0.00000000000E+00  0.00000000000E+00  0.17260119304E+03  0.17260119304E+03  0.00000000000E+00 0.  1.
         21   -1    0    0  502  503 -0.00000000000E+00 -0.00000000000E+00 -0.70873695847E+03  0.70873695847E+03  0.00000000000E+00 0.  1.
         -6    2    1    2    0  503 -0.31646313184E+02 -0.14215697595E+03 -0.60432770051E+03  0.64503594954E+03  0.17218975477E+03 0.  0.
        -24    2    3    3    0    0 -0.32306866909E+02 -0.39015642071E+02 -0.45634593121E+03  0.46459408874E+03  0.70923228771E+02 0.  0.
          6    2    1    2  501    0  0.31646313184E+02  0.14215697595E+03  0.68191935080E+02  0.23630220197E+03  0.17314299204E+03 0.  0.
         24    2    5    5    0    0  0.86297665567E+02  0.83458517689E+02  0.58000334668E+02  0.15531925290E+03  0.79670698778E+02 0.  0.
          5    1    5    5  501    0 -0.54651352383E+02  0.58698458265E+02  0.10191600412E+02  0.80982949063E+02  0.47000000000E+01 0. -1.
        -13    1    6    6    0    0  0.64387497592E+01  0.47755134533E+02  0.46721119035E+02  0.67118353203E+02  0.00000000000E+00 0.  1.
         14    1    6    6    0    0  0.79858915807E+02  0.35703383156E+02  0.11279215632E+02  0.88200899700E+02  0.00000000000E+00 0. -1.
         -5    1    3    3    0  503  0.66055372486E+00 -0.10314133388E+03 -0.14798176929E+03  0.18044186080E+03  0.47000000000E+01 0.  1.
         13    1    4    4    0    0 -0.10074993525E+02 -0.62783957371E+01 -0.75755881931E+01  0.14082374943E+02  0.00000000000E+00 0. -1.
        -14    1    4    4    0    0 -0.22231873384E+02 -0.32737246333E+02 -0.44877034302E+03  0.45051171379E+03  0.00000000000E+00 0.  1.
</event>
<event>
12    1  0.8526130E-002  0.2536104E+03  0.7818608E-02  0.1111204E+00
         21   -1    0    0  503  502  0.00000000000E+00  0.00000000000E+00  0.93632751546E+02  0.93632751546E+02  0.00000000000E+00 0.  1.
         21   -1    0    0  501  503 -0.00000000000E+00 -0.00000000000E+00 -0.72562646982E+03  0.72562646982E+03  0.00000000000E+00 0. -1.
          6    2    1    2  501    0  0.10450757860E+03  0.15296816803E+03 -0.41333498507E+03  0.48440119210E+03  0.17169044995E+03 0.  0.
         24    2    3    3    0    0  0.12988832714E+03  0.15408945299E+03 -0.39997213732E+03  0.45531347344E+03  0.81964086129E+02 0.  0.
         -6    2    1    2    0  502 -0.10450757860E+03 -0.15296816803E+03 -0.21865873320E+03  0.33485802927E+03  0.17319689300E+03 0.  0.
        -24    2    5    5    0    0 -0.17252592442E+01 -0.95191465083E+02 -0.16042477198E+03  0.20326913607E+03  0.80733157171E+02 0.  0.
          5    1    3    3  501    0 -0.25380748542E+02 -0.11212849553E+01 -0.13362847755E+02  0.29087718656E+02  0.47000000000E+01 0. -1.
        -13    1    4    4    0    0  0.11353233596E+03  0.94713439253E+02 -0.21975318468E+03  0.26486164136E+03  0.00000000000E+00 0.  1.
         14    1    4    4    0    0  0.16355991180E+02  0.59376013734E+02 -0.18021895264E+03  0.19045183208E+03  0.00000000000E+00 0. -1.
         -5    1    5    5    0  502 -0.10278231935E+03 -0.57776702949E+02 -0.58233961217E+02  0.13158889320E+03  0.47000000000E+01 0.  1.
         13    1    6    6    0    0  0.33586038927E+02 -0.26926613341E+02 -0.86553552392E+02  0.96667377892E+02  0.00000000000E+00 0. -1.
        -14    1    6    6    0    0 -0.35311298171E+02 -0.68264851741E+02 -0.73871219592E+02  0.10660175817E+03  0.00000000000E+00 0.  1.
</event>
<event>
12    1  0.8526130E-002  0.3048746E+03  0.7818608E-02  0.1082952E+00
         21   -1    0    0  503  502  0.00000000000E+00  0.00000000000E+00  0.38201653268E+03  0.38201653268E+03  0.00000000000E+00 0.  1.
         21   -1    0    0  501  503 -0.00000000000E+00 -0.00000000000E+00 -0.24426343876E+03  0.24426343876E+03  0.00000000000E+00 0.  1.
          6    2    1    2  501    0 -0.10860265527E+03 -0.22669860928E+03  0.42239508321E+02  0.30679391165E+03  0.17073819720E+03 0.  0.
         24    2    3    3    0    0 -0.40506415505E+02 -0.20618385369E+03  0.60244991129E+02  0.23328037223E+03  0.81472215454E+02 0.  0.
         -6    2    1    2    0  502  0.10860265527E+03  0.22669860928E+03  0.95513585599E+02  0.31948605979E+03  0.17251579981E+03 0.  0.
        -24    2    5    5    0    0  0.10126909605E+03  0.96035380608E+02  0.97747713983E+02  0.18851376597E+03  0.80651101848E+02 0.  0.
          5    1    3    3  501    0 -0.68096239765E+02 -0.20514755586E+02 -0.18005482807E+02  0.73513539419E+02  0.47000000000E+01 0. -1.
        -11    1    4    4    0    0  0.21149753906E+02 -0.53896955806E+02 -0.10943878180E+01  0.57908476238E+02  0.00000000000E+00 0.  1.
         12    1    4    4    0    0 -0.61656169412E+02 -0.15228689789E+03  0.61339378947E+02  0.17537189599E+03  0.00000000000E+00 0. -1.
         -5    1    5    5    0  502  0.73335592220E+01  0.13066322867E+03 -0.22341283844E+01  0.13097229382E+03  0.47000000000E+01 0.  1.
         11    1    6    6    0    0 -0.74264857369E+01  0.58434564016E+01  0.30783949170E+02  0.32201711128E+02  0.00000000000E+00 0. -1.
        -12    1    6    6    0    0  0.10869558178E+03  0.90191924206E+02  0.66963764814E+02  0.15631205484E+03  0.00000000000E+00 0.  1.
</event>
<event>
12    1  0.8526130E-002  0.1888112E+03  0.7818608E-02  0.1160034E+00
         21   -1    0    0  501  502  0.00000000000E+00  0.00000000000E+00  0.45374790645E+03  0.45374790645E+03  0.00000000000E+00 0.  1.
         21   -1    0    0  502  503 -0.00000000000E+00 -0.00000000000E+00 -0.11262643375E+03  0.11262643375E+03  0.00000000000E+00 0.  1.
         -6    2    1    2    0  503 -0.32317078907E+02  0.69096370032E+02  0.13469278321E+02  0.18929099068E+03  0.17271640268E+03 0.  0.
        -24    2    3    3    0    0 -0.49290812836E+02  0.10576248587E+03 -0.11423395428E+02  0.14160192590E+03  0.79406069084E+02 0.  0.
          6    2    1    2  501    0  0.32317078907E+02 -0.69096370032E+02  0.32765219437E+03  0.37708334952E+03  0.17034432795E+03 0.  0.
         24    2    5    5    0    0  0.52211386982E+01 -0.98307851172E+02  0.30698067533E+03  0.33195129543E+03  0.79138066844E+02 0.  0.
          5    1    5    5  501    0  0.27095940209E+02  0.29211481140E+02  0.20671519042E+02  0.45132054083E+02  0.47000000000E+01 0. -1.
        -11    1    6    6    0    0 -0.27572911602E+02 -0.25436351810E+02  0.16320341667E+03  0.16745933435E+03  0.00000000000E+00 0.  1.
         12    1    6    6    0    0  0.32794050300E+02 -0.72871499362E+02  0.14377725865E+03  0.16449196108E+03  0.00000000000E+00 0. -1.
         -5    1    3    3    0  503  0.16973733929E+02 -0.36666115835E+02  0.24892673749E+02  0.47689064788E+02  0.47000000000E+01 0.  1.
         11    1    4    4    0    0 -0.39826251504E+02  0.28092701276E+02  0.25587287043E+02  0.55045793955E+02  0.00000000000E+00 0. -1.
        -12    1    4    4    0    0 -0.94645613319E+01  0.77669784591E+02 -0.37010682471E+02  0.86556131941E+02  0.00000000000E+00 0.  1.
</event>
<event>
12    1  0.8526130E-002  0.2438081E+03  0.7818608E-02  0.1117398E+00
         21   -1    0    0  503  502  0.00000000000E+00  0.00000000000E+00  0.55414241232E+03  0.55414241232E+03  0.00000000000E+00 0.  1.
         21   -1    0    0  501  503 -0.00000000000E+00 -0.00000000000E+00 -0.16928772936E+03  0.16928772936E+03  0.00000000000E+00 0.  1.
          6    2    1    2  501    0  0.17139199276E+03  0.42323780725E+01 -0.26881895653E+02  0.24528559219E+03  0.17334721577E+03 0.  0.
         24    2    3    3    0    0  0.16479051429E+03 -0.16820325782E+02  0.28554778784E+02  0.18543485510E+03  0.78306277752E+02 0.  0.
         -6    2    1    2    0  502 -0.17139199276E+03 -0.42323780725E+01  0.41173657861E+03  0.47814454949E+03  0.17234289030E+03 0.  0.
        -24    2    5    5    0    0 -0.18092595705E+03  0.16164541378E+02  0.27520593416E+03  0.33969008884E+03  0.81581590634E+02 0.  0.
          5    1    3    3  501    0  0.66014784749E+01  0.21052703854E+02 -0.55436674437E+02  0.59850737091E+02  0.47000000000E+01 0. -1.
        -11    1    4    4    0    0  0.15714085494E+03 -0.11348981302E+02  0.47270668420E+02  0.16448879524E+03  0.00000000000E+00 0.  1.
         12    1    4    4    0    0  0.76496593467E+01 -0.54713444802E+01 -0.18715889636E+02  0.20946059854E+02  0.00000000000E+00 0. -1.
         -5    1    5    5    0  502  0.95339642921E+01 -0.20396919450E+02  0.13653064445E+03  0.13845446064E+03  0.47000000000E+01 0.  1.
         11    1    6    6    0    0 -0.29756921455E+02  0.27031094369E+02  0.25556636785E+02  0.47637129647E+02  0.00000000000E+00 0. -1.
        -12    1    6    6    0    0 -0.15116903560E+03 -0.10866552991E+02  0.24964929737E+03  0.29205295920E+03  0.00000000000E+00 0.  1.
</event>
<event>
12    1  0.8526130E-002  0.1768071E+03  0.7818608E-02  0.1171435E+00
         21   -1    0    0  503  502  0.00000000000E+00  0.00000000000E+00  0.10958174678E+04  0.10958174678E+04  0.00000000000E+00 0.  1.
         21   -1    0    0  501  503 -0.00000000000E+00 -0.00000000000E+00 -0.29937813389E+02  0.29937813389E+02  0.00000000000E+00 0.  1.
          6    2    1    2  501    0  0.30630498909E+01 -0.43719985386E+02  0.66562576011E+03  0.68818936666E+03  0.16919258986E+03 0.  0.
         24    2    3    3    0    0  0.62361031027E+02 -0.61080616109E+01  0.33830711235E+03  0.35339018125E+03  0.80664188663E+02 0.  0.
         -6    2    1    2    0  502 -0.30630498909E+01  0.43719985386E+02  0.40025389427E+03  0.43756591450E+03  0.17128902550E+03 0.  0.
        -24    2    5    5    0    0  0.49967030411E+02  0.24083042525E+02  0.34441918713E+03  0.35795810418E+03  0.80204306749E+02 0.  0.
          5    1    3    3  501    0 -0.59297981136E+02 -0.37611923775E+02  0.32731864777E+03  0.33479918541E+03  0.47000000000E+01 0. -1.
        -13    1    4    4    0    0  0.49520770980E+02 -0.99905306280E+01  0.33600277012E+03  0.33977930924E+03  0.00000000000E+00 0.  1.
         14    1    4    4    0    0  0.12840260047E+02  0.38824690171E+01  0.23043422271E+01  0.13610872009E+02  0.00000000000E+00 0. -1.
         -5    1    5    5    0  502 -0.53030080302E+02  0.19636942861E+02  0.55834707135E+02  0.79607810312E+02  0.47000000000E+01 0.  1.
         11    1    6    6    0    0 -0.15499240323E+02  0.22514884416E+02  0.15858667873E+03  0.16092507928E+03  0.00000000000E+00 0. -1.
        -12    1    6    6    0    0  0.65466270734E+02  0.15681581090E+01  0.18583250841E+03  0.19703302491E+03  0.00000000000E+00 0.  1.
</event>
<event>
12    1  0.8526130E-002  0.1852043E+03  0.7818608E-02  0.1165110E+00
         21   -1    0    0  503  502  0.00000000000E+00  0.00000000000E+00  0.31236632957E+03  0.31236632957E+03  0.00000000000E+00 0.  1.
         21   -1    0    0  501  503 -0.00000000000E+00 -0.00000000000E+00 -0.30028231011E+03  0.30028231011E+03  0.00000000000E+00 0.  1.
          6    2    1    2  501    0 -0.27336596359E+02 -0.12884720181E+02 -0.24133742134E+03  0.30421110109E+03  0.18272202268E+03 0.  0.
         24    2    3    3    0    0 -0.45937108520E+02  0.42566885677E+02 -0.72351315543E+02  0.12532774916E+03  0.80933146199E+02 0.  0.
         -6    2    1    2    0  502  0.27336596359E+02  0.12884720181E+02  0.25342144079E+03  0.30843753860E+03  0.17319925822E+03 0.  0.
        -24    2    5    5    0    0 -0.26309889346E+02 -0.73439785666E+00  0.73861624847E+02  0.12048210955E+03  0.91474857089E+02 0.  0.
          5    1    3    3  501    0  0.18600512160E+02 -0.55451605858E+02 -0.16898610579E+03  0.17888335193E+03  0.47000000000E+01 0. -1.
        -13    1    4    4    0    0 -0.19510562975E+02  0.54932293959E+02 -0.76154155121E+02  0.95904506304E+02  0.00000000000E+00 0.  1.
         14    1    4    4    0    0 -0.26426545545E+02 -0.12365408282E+02  0.38028395773E+01  0.29423242858E+02  0.00000000000E+00 0. -1.
         -5    1    5    5    0  502  0.53646485706E+02  0.13619118038E+02  0.17955981595E+03  0.18795542905E+03  0.47000000000E+01 0.  1.
         13    1    6    6    0    0  0.15210436758E+02 -0.32416599495E+02  0.84740447970E+01  0.36796776278E+02  0.00000000000E+00 0. -1.
        -14    1    6    6    0    0 -0.41520326104E+02  0.31682201639E+02  0.65387580050E+02  0.83685333275E+02  0.00000000000E+00 0.  1.
</event>
<event>
12    1  0.8526130E-002  0.2594395E+03  0.7818608E-02  0.1107735E+00
         21   -1    0    0  501  502  0.00000000000E+00  0.00000000000E+00  0.19143230020E+03  0.19143230020E+03  0.00000000000E+00 0. -1.
         21   -1    0    0  502  503 -0.00000000000E+00 -0.00000000000E+00 -0.62956792756E+03  0.62956792756E+03  0.00000000000E+00 0. -1.
         -6    2    1    2    0  503 -0.19231720861E+03  0.65383010895E+01 -0.49255029760E+03  0.55591567310E+03  0.17148697276E+03 0.  0.
        -24    2    3    3    0    0 -0.21393285985E+03  0.71537092151E+01 -0.47700045686E+03  0.52886936739E+03  0.79717801307E+02 0.  0.
          6    2    1    2  501    0  0.19231720861E+03 -0.65383010895E+01  0.54414670233E+02  0.26508455467E+03  0.17401208773E+03 0.  0.
         24    2    5    5    0    0  0.99555165923E+02 -0.14241717294E+01 -0.37681992922E+02  0.13418445441E+03  0.81684000190E+02 0.  0.
          5    1    5    5  501    0  0.92762042692E+02 -0.51141293602E+01  0.92096663155E+02  0.13090010026E+03  0.47000000000E+01 0. -1.
        -13    1    6    6    0    0 -0.87642169992E+01 -0.30054032438E+01 -0.23084511630E+02  0.24874457290E+02  0.00000000000E+00 0.  1.
         14    1    6    6    0    0  0.10831938292E+03  0.15812315144E+01 -0.14597481292E+02  0.10930999712E+03  0.00000000000E+00 0. -1.
         -5    1    3    3    0  503  0.21615651234E+02 -0.61540812559E+00 -0.15549840739E+02  0.27046305708E+02  0.47000000000E+01 0.  1.
         11    1    4    4    0    0 -0.19947497858E+03  0.50599098029E+01 -0.36554071163E+03  0.41645633820E+03  0.00000000000E+00 0. -1.
        -12    1    4    4    0    0 -0.14457881272E+02  0.20937994122E+01 -0.11145974522E+03  0.11241302919E+03  0.00000000000E+00 0.  1.
</event>
<event>
12    1  0.8526130E-002  0.1999278E+03  0.7818608E-02  0.1150731E+00
         21   -1    0    0  501  502  0.00000000000E+00  0.00000000000E+00  0.57438550058E+02  0.57438550058E+02  0.00000000000E+00 0. -1.
         21   -1    0    0  502  503 -0.00000000000E+00 -0.00000000000E+00 -0.72617854934E+03  0.72617854934E+03  0.00000000000E+00 0. -1.
         -6    2    1    2    0  503 -0.91126339646E+02 -0.11625814284E+02 -0.23298358678E+03  0.30418538083E+03  0.17265058606E+03 0.  0.
        -24    2    3    3    0    0 -0.28394412789E+02  0.51581523178E+02 -0.82507439452E+02  0.12926933505E+03  0.80225851246E+02 0.  0.
          6    2    1    2  501    0  0.91126339646E+02  0.11625814284E+02 -0.43575641250E+03  0.47943171857E+03  0.17757238637E+03 0.  0.
         24    2    5    5    0    0  0.66810898695E+02  0.44736728900E+02 -0.13757219236E+03  0.17839435797E+03  0.80208277302E+02 0.  0.
          5    1    5    5  501    0  0.24315440951E+02 -0.33110914616E+02 -0.29818422014E+03  0.30103736060E+03  0.47000000000E+01 0. -1.
        -13    1    6    6    0    0 -0.35604051462E+01 -0.76894980453E+01  0.58210592224E+01  0.10280544512E+02  0.00000000000E+00 0.  1.
         14    1    6    6    0    0  0.70371303841E+02  0.52426226945E+02 -0.14339325158E+03  0.16811381346E+03  0.00000000000E+00 0. -1.
         -5    1    3    3    0  503 -0.62731926857E+02 -0.63207337463E+02 -0.15047614733E+03  0.17491604578E+03  0.47000000000E+01 0.  1.
         11    1    4    4    0    0 -0.29701502827E+01 -0.32149957006E+01  0.14414150505E+02  0.15064054064E+02  0.00000000000E+00 0. -1.
        -12    1    4    4    0    0 -0.25424262506E+02  0.54796518879E+02 -0.96921589957E+02  0.11420528099E+03  0.00000000000E+00 0.  1.
</event>
<event>
12    1  0.8526130E-002  0.2311435E+03  0.7818608E-02  0.1126047E+00
         21   -1    0    0  503  502  0.00000000000E+00  0.00000000000E+00  0.16773858159E+03  0.16773858159E+03  0.00000000000E+00 0. -1.
         21   -1    0    0  501  503 -0.00000000000E+00 -0.00000000000E+00 -0.64350983529E+03  0.64350983529E+03  0.00000000000E+00 0.  1.
          6    2    1    2  501    0  0.69234765900E+02  0.13711472220E+03 -0.52657052511E+03  0.57458856286E+03  0.17111866879E+03 0.  0.
         24    2    3    3    0    0  0.53505516032E+01  0.40706857808E+02 -0.11203529509E+03  0.14419662976E+03  0.80963473329E+02 0.  0.
         -6    2    1    2    0  502 -0.69234765900E+02 -0.13711472220E+03  0.50799271414E+02  0.23665985402E+03  0.17272353827E+03 0.  0.
        -24    2    5    5    0    0 -0.10786607863E+03 -0.11940931435E+03  0.65364207798E+02  0.19149252996E+03  0.80642631995E+02 0.  0.
          5    1    3    3  501    0  0.63884214297E+02  0.96407864390E+02 -0.41453523002E+03  0.43039193310E+03  0.47000000000E+01 0. -1.
        -13    1    4    4    0    0  0.79007102624E+01 -0.22993364049E+02 -0.16647091058E+02  0.29465940570E+02  0.00000000000E+00 0.  1.
         14    1    4    4    0    0 -0.25501586592E+01  0.63700221857E+02 -0.95388204033E+02  0.11473068919E+03  0.00000000000E+00 0. -1.
         -5    1    5    5    0  502  0.38631312734E+02 -0.17705407844E+02 -0.14564936384E+02  0.45167324056E+02  0.47000000000E+01 0.  1.
         13    1    6    6    0    0 -0.57005584992E+02 -0.65087626009E+02  0.77424916078E+02  0.11610621607E+03  0.00000000000E+00 0. -1.
        -14    1    6    6    0    0 -0.50860493641E+02 -0.54321688345E+02 -0.12060708280E+02  0.75386313892E+02  0.00000000000E+00 0.  1.
</event>
<event>
12    1  0.8526130E-002  0.1912581E+03  0.7818608E-02  0.1157753E+00
         21   -1    0    0  501  502  0.00000000000E+00  0.00000000000E+00  0.97145579716E+02  0.97145579716E+02  0.00000000000E+00 0.  1.
         21   -1    0    0  502  503 -0.00000000000E+00 -0.00000000000E+00 -0.37900331011E+03  0.37900331011E+03  0.00000000000E+00 0.  1.
         -6    2    1    2    0  503  0.10023207602E+02  0.85893977598E+02 -0.17191282449E+03  0.25716466731E+03  0.17059134448E+03 0.  0.
        -24    2    3    3    0    0 -0.58328593105E+00  0.82449165795E+01 -0.16264132461E+02  0.82836013002E+02  0.80802005999E+02 0.  0.
          6    2    1    2  501    0 -0.10023207602E+02 -0.85893977598E+02 -0.10994490590E+03  0.21898422251E+03  0.16848729121E+03 0.  0.
         24    2    5    5    0    0  0.42468835540E+02 -0.63493803889E+02 -0.18163703910E+02  0.11080353378E+03  0.78182081288E+02 0.  0.
          5    1    5    5  501    0 -0.52492043142E+02 -0.22400173709E+02 -0.91781201992E+02  0.10818068873E+03  0.47000000000E+01 0. -1.
        -13    1    6    6    0    0  0.50034719838E+02 -0.24178772218E+02 -0.36791164543E+02  0.66645900126E+02  0.00000000000E+00 0.  1.
         14    1    6    6    0    0 -0.75658842980E+01 -0.39315031671E+02  0.18627460632E+02  0.44157633656E+02  0.00000000000E+00 0. -1.
         -5    1    3    3    0  503  0.10606493533E+02  0.77649061018E+02 -0.15564869203E+03  0.17432865431E+03  0.47000000000E+01 0.  1.
         13    1    4    4    0    0 -0.16909687769E+02  0.13430639820E+02  0.28007504456E+02  0.35365801734E+02  0.00000000000E+00 0. -1.
        -14    1    4    4    0    0  0.16326401838E+02 -0.51857232409E+01 -0.44271636917E+02  0.47470211268E+02  0.00000000000E+00 0.  1.
</event>
<event>
12    1  0.8526130E-002  0.1989203E+03  0.7818608E-02  0.1152264E+00
         21   -1    0    0  503  502  0.00000000000E+00  0.00000000000E+00  0.23782400285E+03  0.23782400285E+03  0.00000000000E+00 0.  1.
         21   -1    0    0  501  503 -0.00000000000E+00 -0.00000000000E+00 -0.57166065771E+03  0.57166065771E+03  0.00000000000E+00 0.  1.
          6    2    1    2  501    0  0.82857375522E+02 -0.20058341405E+01 -0.51116026481E+03  0.54850167610E+03  0.18083114864E+03 0.  0.
         24    2    3    3    0    0  0.80844733489E+02  0.37987770267E+02 -0.48667464014E+03  0.50132991615E+03  0.80625913025E+02 0.  0.
         -6    2    1    2    0  502 -0.82857375522E+02  0.20058341405E+01  0.17732360995E+03  0.26098298446E+03  0.17262412196E+03 0.  0.
        -24    2    5    5    0    0 -0.29675660676E+02  0.54038982327E+02  0.14888578895E+03  0.18119236492E+03  0.82842250731E+02 0.  0.
          5    1    3    3  501    0  0.20126420330E+01 -0.39993604408E+02 -0.24485624672E+02  0.47171759953E+02  0.47000000000E+01 0. -1.
        -13    1    4    4    0    0  0.39310356468E+02  0.44077866439E+02 -0.13759015310E+03  0.14973046673E+03  0.00000000000E+00 0.  1.
         14    1    4    4    0    0  0.41534377021E+02 -0.60900961722E+01 -0.34908448704E+03  0.35159944943E+03  0.00000000000E+00 0. -1.
         -5    1    5    5    0  502 -0.53181714846E+02 -0.52033148186E+02  0.28437821005E+02  0.79790619547E+02  0.47000000000E+01 0.  1.
         13    1    6    6    0    0  0.41656758691E+01 -0.13655458783E+02  0.71646330651E+02  0.73054918422E+02  0.00000000000E+00 0. -1.
        -14    1    6    6    0    0 -0.33841336545E+02  0.67694441110E+02  0.77239458295E+02  0.10813744649E+03  0.00000000000E+00 0.  1.
</event>
<event>
12    1  0.8526130E-002  0.1883750E+03  0.7818608E-02  0.1159977E+00
         21   -1    0    0  501  502  0.00000000000E+00  0.00000000000E+00  0.19635341562E+03  0.19635341562E+03  0.00000000000E+00 0. -1.
         21   -1    0    0  502  503 -0.00000000000E+00 -0.00000000000E+00 -0.21615652790E+03  0.21615652790E+03  0.00000000000E+00 0. -1.
         -6    2    1    2    0  503  0.67549657401E+02  0.37821765399E+02 -0.93624274335E+02  0.21035839419E+03  0.17173149713E+03 0.  0.
        -24    2    3    3    0    0  0.89704109736E+02  0.46089108332E+02 -0.11924028112E+03  0.17518114982E+03  0.79367231266E+02 0.  0.
          6    2    1    2  501    0 -0.67549657401E+02 -0.37821765399E+02  0.73821162051E+02  0.20215154934E+03  0.17152913099E+03 0.  0.
         24    2    5    5    0    0 -0.66497888066E+02  0.27710536059E+02  0.82702170379E+02  0.13584505597E+03  0.80152275831E+02 0.  0.
          5    1    5    5  501    0 -0.10517693350E+01 -0.65532301458E+02 -0.88810083276E+01  0.66306493362E+02  0.47000000000E+01 0. -1.
        -11    1    6    6    0    0 -0.83721576947E+02  0.24049949379E+02  0.54992541114E+02  0.10301398978E+03  0.00000000000E+00 0.  1.
         12    1    6    6    0    0  0.17223688881E+02  0.36605866805E+01  0.27709629265E+02  0.32831066195E+02  0.00000000000E+00 0. -1.
         -5    1    3    3    0  503 -0.22154452335E+02 -0.82673429336E+01  0.25616006789E+02  0.35177244367E+02  0.47000000000E+01 0.  1.
         11    1    4    4    0    0  0.70335852331E+02  0.68423322107E+02 -0.98736207116E+02  0.13920388546E+03  0.00000000000E+00 0. -1.
        -12    1    4    4    0    0  0.19368257405E+02 -0.22334213775E+02 -0.20504074008E+02  0.35977264359E+02  0.00000000000E+00 0.  1.
</event>
<event>
12    1  0.8526130E-002  0.2899965E+03  0.7818608E-02  0.1090506E+00
         21   -1    0    0  501  502  0.00000000000E+00  0.00000000000E+00  0.91477420296E+03  0.91477420296E+03  0.00000000000E+00 0.  1.
         21   -1    0    0  502  503 -0.00000000000E+00 -0.00000000000E+00 -0.12201740881E+03  0.12201740881E+03  0.00000000000E+00 0.  1.
         -6    2    1    2    0  503  0.23150964676E+03 -0.17511862513E+02  0.13675691333E+03  0.31955119317E+03  0.17177639490E+03 0.  0.
        -24    2    3    3    0    0  0.19954557513E+03 -0.70981612322E+02  0.11394239217E+03  0.25304323579E+03  0.78684081004E+02 0.  0.
          6    2    1    2  501    0 -0.23150964676E+03  0.17511862513E+02  0.65599988083E+03  0.71724041860E+03  0.17376591308E+03 0.  0.
         24    2    5    5    0    0 -0.15936820438E+03 -0.37871607380E+02  0.31264150900E+03  0.36200982032E+03  0.80460634127E+02 0.  0.
          5    1    5    5  501    0 -0.72141442373E+02  0.55383469893E+02  0.34335837183E+03  0.35523059827E+03  0.47000000000E+01 0. -1.
        -11    1    6    6    0    0 -0.15671046217E+03 -0.29306184161E+02  0.31472614104E+03  0.35280244505E+03  0.00000000000E+00 0.  1.
         12    1    6    6    0    0 -0.26577422168E+01 -0.85654232185E+01 -0.20846320364E+01  0.92073752683E+01  0.00000000000E+00 0. -1.
         -5    1    3    3    0  503  0.31964071626E+02  0.53469749808E+02  0.22814521151E+02  0.66507957380E+02  0.47000000000E+01 0.  1.
         13    1    4    4    0    0  0.84389185951E+02 -0.47839918357E+02  0.12433724211E+02  0.97799744333E+02  0.00000000000E+00 0. -1.
        -14    1    4    4    0    0  0.11515638918E+03 -0.23141693965E+02  0.10150866796E+03  0.15524349146E+03  0.00000000000E+00 0.  1.
</event>
<event>
12    1  0.8526130E-002  0.2079493E+03  0.7818608E-02  0.1146843E+00
         21   -1    0    0  503  502  0.00000000000E+00  0.00000000000E+00  0.60902456121E+02  0.60902456121E+02  0.00000000000E+00 0. -1.
         21   -1    0    0  501  503 -0.00000000000E+00 -0.00000000000E+00 -0.10897479513E+04  0.10897479513E+04  0.00000000000E+00 0.  1.
          6    2    1    2  501    0 -0.71000958030E+02  0.94057055020E+02 -0.89222534385E+03  0.91613808789E+03  0.17133320235E+03 0.  0.
         24    2    3    3    0    0 -0.10934289957E+03  0.95402304434E+02 -0.64730201485E+03  0.66818357337E+03  0.80074464867E+02 0.  0.
         -6    2    1    2    0  502  0.71000958030E+02 -0.94057055020E+02 -0.13662015137E+03  0.23451231957E+03  0.14981020203E+03 0.  0.
        -24    2    5    5    0    0  0.78407744937E+02 -0.37997604232E+02 -0.44409073077E+02  0.12624184588E+03  0.79832609161E+02 0.  0.
          5    1    3    3  501    0  0.38341941541E+02 -0.13452494134E+01 -0.24492332900E+03  0.24795451451E+03  0.47000000000E+01 0. -1.
        -13    1    4    4    0    0 -0.53815955720E+02  0.63679310844E+01 -0.31749859665E+03  0.32209015277E+03  0.00000000000E+00 0.  1.
         14    1    4    4    0    0 -0.55526943852E+02  0.89034373349E+02 -0.32980341819E+03  0.34609342060E+03  0.00000000000E+00 0. -1.
         -5    1    5    5    0  502 -0.74067869065E+01 -0.56059450788E+02 -0.92211078288E+02  0.10827047369E+03  0.47000000000E+01 0.  1.
         13    1    6    6    0    0  0.19017069616E+02 -0.52275059962E+02 -0.11299417230E+02  0.56762731264E+02  0.00000000000E+00 0. -1.
        -14    1    6    6    0    0  0.59390675321E+02  0.14277455730E+02 -0.33109655847E+02  0.69479114613E+02  0.00000000000E+00 0.  1.
</event>
<event>
12    1  0.8526130E-002  0.1815419E+03  0.7818608E-02  0.1167238E+00
         21   -1    0    0  501  502  0.00000000000E+00  0.00000000000E+00  0.97222952549E+01  0.97222952549E+01  0.00000000000E+00 0. -1.
         21   -1    0    0  502  503 -0.00000000000E+00 -0.00000000000E+00 -0.36387849377E+04  0.36387849377E+04  0.00000000000E+00 0. -1.
         -6    2    1    2    0  503 -0.55768032472E+02 -0.46898285457E+01 -0.23725118394E+04  0.23794473904E+04  0.17270028181E+03 0.  0.
        -24    2    3    3    0    0 -0.54263838988E+02 -0.45982054157E+02 -0.89647726670E+03  0.90282710729E+03  0.79789613489E+02 0.  0.
          6    2    1    2  501    0  0.55768032472E+02  0.46898285457E+01 -0.12565508031E+04  0.12690598426E+04  0.16870357311E+03 0.  0.
         24    2    5    5    0    0 -0.28021890238E+02 -0.17758287011E+02 -0.74707924677E+03  0.75223489576E+03  0.81420847212E+02 0.  0.
          5    1    5    5  501    0  0.83789922711E+02  0.22448115556E+02 -0.50947155628E+03  0.51682494686E+03  0.47000000000E+01 0. -1.
        -11    1    6    6    0    0  0.30711558434E+00 -0.32335709844E+02 -0.11803765495E+03  0.12238701090E+03  0.00000000000E+00 0.  1.
         12    1    6    6    0    0 -0.28329005823E+02  0.14577422834E+02 -0.62904159182E+03  0.62984788486E+03  0.00000000000E+00 0. -1.
         -5    1    3    3    0  503 -0.15041934839E+01  0.41292225611E+02 -0.14760345727E+04  0.14766202831E+04  0.47000000000E+01 0.  1.
         11    1    4    4    0    0 -0.21526859453E+02  0.13037002406E+02 -0.50105008198E+03  0.50168172556E+03  0.00000000000E+00 0. -1.
        -12    1    4    4    0    0 -0.32736979536E+02 -0.59019056563E+02 -0.39542718473E+03  0.40114538174E+03  0.00000000000E+00 0.  1.
</event>
<event>
12    1  0.8526130E-002  0.2489532E+03  0.7818608E-02  0.1114587E+00
         21   -1    0    0  501  502  0.00000000000E+00  0.00000000000E+00  0.18774643728E+03  0.18774643728E+03  0.00000000000E+00 0.  1.
         21   -1    0    0  502  503 -0.00000000000E+00 -0.00000000000E+00 -0.34585640032E+03  0.34585640032E+03  0.00000000000E+00 0. -1.
         -6    2    1    2    0  503 -0.91254840547E+01 -0.17387860700E+03 -0.14513228724E+03  0.28816844645E+03  0.17793433703E+03 0.  0.
        -24    2    3    3    0    0  0.23499112998E+02 -0.26187868515E+02 -0.94503953029E+02  0.12859953722E+03  0.79804956398E+02 0.  0.
          6    2    1    2  501    0  0.91254840547E+01  0.17387860700E+03 -0.12977675794E+02  0.24543439116E+03  0.17248935000E+03 0.  0.
         24    2    5    5    0    0  0.25676557482E+02  0.19689736698E+03 -0.22059378893E+02  0.21529523600E+03  0.80234429769E+02 0.  0.
          5    1    5    5  501    0 -0.16551073428E+02 -0.23018759976E+02  0.90817030994E+01  0.30139155158E+02  0.47000000000E+01 0. -1.
        -13    1    6    6    0    0  0.73031333921E+01  0.10001443539E+03 -0.51029954811E+02  0.11251790672E+03  0.00000000000E+00 0.  1.
         14    1    6    6    0    0  0.18373424090E+02  0.96882931585E+02  0.28970575918E+02  0.10277732928E+03  0.00000000000E+00 0. -1.
         -5    1    3    3    0  503 -0.32624597052E+02 -0.14769073849E+03 -0.50628334216E+02  0.15956890923E+03  0.47000000000E+01 0.  1.
         13    1    4    4    0    0  0.17632820473E+02 -0.51588691286E+02 -0.84737224780E+02  0.10076064058E+03  0.00000000000E+00 0. -1.
        -14    1    4    4    0    0  0.58662925247E+01  0.25400822771E+02 -0.97667282484E+01  0.27838896639E+02  0.00000000000E+00 0.  1.
</event>
<event>
12    1  0.8526130E-002  0.2023728E+03  0.7818608E-02  0.1147753E+00
         21   -1    0    0  503  502  0.00000000000E+00  0.00000000000E+00  0.97438733195E+03  0.97438733195E+03  0.00000000000E+00 0.  1.
         21   -1    0    0  501  503 -0.00000000000E+00 -0.00000000000E+00 -0.54881927255E+02  0.54881927255E+02  0.00000000000E+00 0.  1.
          6    2    1    2  501    0  0.98173157220E+02  0.38766246914E+02  0.21071955814E+03  0.29216003081E+03  0.17266719643E+03 0.  0.
         24    2    3    3    0    0  0.84961119641E+02  0.90033659941E+02  0.14094632641E+03  0.20444857522E+03  0.81295148741E+02 0.  0.
         -6    2    1    2    0  502 -0.98173157220E+02 -0.38766246914E+02  0.70878584655E+03  0.73710922839E+03  0.17266107729E+03 0.  0.
        -24    2    5    5    0    0 -0.38568068004E+02  0.43024440412E+02  0.40087544540E+03  0.41295897260E+03  0.80593994705E+02 0.  0.
          5    1    3    3  501    0  0.13212037579E+02 -0.51267413027E+02  0.69773231735E+02  0.87711455593E+02  0.47000000000E+01 0. -1.
        -13    1    4    4    0    0  0.90839120974E+02  0.84479860404E+02  0.90993499644E+02  0.15384540842E+03  0.00000000000E+00 0.  1.
         14    1    4    4    0    0 -0.58780013327E+01  0.55537995369E+01  0.49952826764E+02  0.50603166804E+02  0.00000000000E+00 0. -1.
         -5    1    5    5    0  502 -0.59605089217E+02 -0.81790687326E+02  0.30791040115E+03  0.32415025580E+03  0.47000000000E+01 0.  1.
         13    1    6    6    0    0 -0.57302675278E+02  0.30850434522E+02  0.18863490438E+03  0.19954566659E+03  0.00000000000E+00 0. -1.
        -14    1    6    6    0    0  0.18734607274E+02  0.12174005890E+02  0.21224054102E+03  0.21341330601E+03  0.00000000000E+00 0.  1.
</event>
<event>
12    1  0.8526130E-002  0.1854665E+03  0.7818608E-02  0.1162983E+00
         21   -1    0    0  503  502  0.00000000000E+00  0.00000000000E+00  0.16152288313E+04  0.16152288313E+04  0.00000000000E+00 0.  1.
         21   -1    0    0  501  503 -0.00000000000E+00 -0.00000000000E+00 -0.45716742226E+02  0.45716742226E+02  0.00000000000E+00 0. -1.
          6    2    1    2  501    0 -0.19263498436E+02  0.61427628309E+02  0.17709467141E+03  0.25643779349E+03  0.17393499762E+03 0.  0.
         24    2    3    3    0    0  0.95591791784E+01  0.97197530665E+02  0.16734934713E+03  0.20924357769E+03  0.78983118108E+02 0.  0.
         -6    2    1    2    0  502  0.19263498436E+02 -0.61427628309E+02  0.13924174177E+04  0.14045077800E+04  0.17225389189E+03 0.  0.
        -24    2    5    5    0    0 -0.48079999656E+02 -0.64037034148E+00  0.67791500324E+03  0.68425363900E+03  0.79512228105E+02 0.  0.
          5    1    3    3  501    0 -0.28822677615E+02 -0.35769902355E+02  0.97453242728E+01  0.47194215796E+02  0.47000000000E+01 0. -1.
        -11    1    4    4    0    0  0.22890952687E+02 -0.42390850473E+01  0.32400993102E+02  0.39897241897E+02  0.00000000000E+00 0.  1.
         12    1    4    4    0    0 -0.13331773509E+02  0.10143661571E+03  0.13494835403E+03  0.16934633580E+03  0.00000000000E+00 0. -1.
         -5    1    5    5    0  502  0.67343498092E+02 -0.60787257968E+02  0.71450241442E+03  0.72025414104E+03  0.47000000000E+01 0.  1.
         11    1    6    6    0    0  0.14828115421E+02  0.21434477123E+02  0.17154619350E+03  0.17351485908E+03  0.00000000000E+00 0. -1.
        -12    1    6    6    0    0 -0.62908115077E+02 -0.22074847465E+02  0.50636880974E+03  0.51073877992E+03  0.00000000000E+00 0.  1.
</event>
<event>
12    1  0.8526130E-002  0.1968391E+03  0.7818608E-02  0.1152765E+00
         21   -1    0    0  501  502  0.00000000000E+00  0.00000000000E+00  0.11069450062E+03  0.11069450062E+03  0.00000000000E+00 0.  1.
         21   -1    0    0  502  503 -0.00000000000E+00 -0.00000000000E+00 -0.37367529193E+03  0.37367529193E+03  0.00000000000E+00 0. -1.
         -6    2    1    2    0  503  0.90866672600E+02  0.13540176207E+02 -0.19535374053E+03  0.27623751013E+03  0.17234845372E+03 0.  0.
        -24    2    3    3    0    0  0.76633188014E+02 -0.50824994730E+02 -0.15142291785E+03  0.19688088158E+03  0.85891535593E+02 0.  0.
          6    2    1    2  501    0 -0.90866672600E+02 -0.13540176207E+02 -0.67627050779E+02  0.20813228242E+03  0.17408486559E+03 0.  0.
         24    2    5    5    0    0 -0.12417461204E+03 -0.29762838503E+02 -0.75687328317E+02  0.16992689438E+03  0.82712858345E+02 0.  0.
          5    1    5    5  501    0  0.33307939438E+02  0.16222662295E+02  0.80602775378E+01  0.38205388044E+02  0.47000000000E+01 0. -1.
        -13    1    6    6    0    0 -0.34644544910E+02 -0.45808599283E+02 -0.47996065303E+02  0.74848477239E+02  0.00000000000E+00 0.  1.
         14    1    6    6    0    0 -0.89530067128E+02  0.16045760781E+02 -0.27691263014E+02  0.95078417142E+02  0.00000000000E+00 0. -1.
         -5    1    3    3    0  503  0.14233484586E+02  0.64365170937E+02 -0.43930822689E+02  0.79356628554E+02  0.47000000000E+01 0.  1.
         11    1    4    4    0    0  0.17625627983E+02  0.13367469869E+02 -0.83425843244E+02  0.86308883282E+02  0.00000000000E+00 0. -1.
        -12    1    4    4    0    0  0.59007560031E+02 -0.64192464599E+02 -0.67997074602E+02  0.11057199829E+03  0.00000000000E+00 0.  1.
</event>
<event>
12    1  0.8526130E-002  0.1771743E+03  0.7818608E-02  0.1171239E+00
         21   -1    0    0  503  502  0.00000000000E+00  0.00000000000E+00  0.22604381165E+03  0.22604381165E+03  0.00000000000E+00 0.  1.
         21   -1    0    0  501  503 -0.00000000000E+00 -0.00000000000E+00 -0.13719841336E+03  0.13719841336E+03  0.00000000000E+00 0.  1.
          6    2    1    2  501    0  0.22353748485E+02 -0.23943560316E+02  0.34513298131E+02  0.18050455942E+03  0.17411991291E+03 0.  0.
         24    2    3    3    0    0  0.36365015264E+02  0.20044371012E+02  0.85597063766E+02  0.11149083027E+03  0.58130514926E+02 0.  0.
         -6    2    1    2    0  502 -0.22353748485E+02  0.23943560316E+02  0.54332100158E+02  0.18273766558E+03  0.17137121451E+03 0.  0.
        -24    2    5    5    0    0 -0.71178322277E+02  0.12890944552E+02 -0.17863805929E+00  0.10857898502E+03  0.80974280261E+02 0.  0.
          5    1    3    3  501    0 -0.14011266779E+02 -0.43987931328E+02 -0.51083765634E+02  0.69013729147E+02  0.47000000000E+01 0. -1.
        -13    1    4    4    0    0  0.94636221449E+01 -0.17678887839E+02  0.90198065515E+01  0.21987726794E+02  0.00000000000E+00 0.  1.
         14    1    4    4    0    0  0.26901393119E+02  0.37723258852E+02  0.76577257214E+02  0.89503103480E+02  0.00000000000E+00 0. -1.
         -5    1    5    5    0  502  0.48824573792E+02  0.11052615764E+02  0.54510738217E+02  0.74158680558E+02  0.47000000000E+01 0.  1.
         11    1    6    6    0    0 -0.40786395342E+02 -0.70857440560E+01 -0.37938671777E+02  0.56152298529E+02  0.00000000000E+00 0. -1.
        -12    1    6    6    0    0 -0.30391926935E+02  0.19976688608E+02  0.37760033718E+02  0.52426686496E+02  0.00000000000E+00 0.  1.
</event>
<event>
12    1  0.8526130E-002  0.1896105E+03  0.7818608E-02  0.1158817E+00
         21   -1    0    0  501  502  0.00000000000E+00  0.00000000000E+00  0.30566823310E+02  0.30566823310E+02  0.00000000000E+00 0. -1.
         21   -1    0    0  502  503 -0.00000000000E+00 -0.00000000000E+00 -0.17861118627E+04  0.17861118627E+04  0.00000000000E+00 0.  1.
         -6    2    1    2    0  503 -0.33084949528E+02 -0.72330528556E+02 -0.14085981242E+04  0.14213000060E+04  0.17210087783E+03 0.  0.
        -24    2    3    3    0    0 -0.69690108782E+02 -0.35604480667E+02 -0.12353236700E+04  0.12403722116E+04  0.79838984303E+02 0.  0.
          6    2    1    2  501    0  0.33084949528E+02  0.72330528556E+02 -0.34694691519E+03  0.39537868006E+03  0.17212152522E+03 0.  0.
         24    2    5    5    0    0  0.34429750751E+02  0.64679924686E+02 -0.36201288551E+03  0.37778852112E+03  0.79384740518E+02 0.  0.
          5    1    5    5  501    0 -0.13448012230E+01  0.76506038705E+01  0.15065970318E+02  0.17590158940E+02  0.47000000000E+01 0. -1.
        -13    1    6    6    0    0  0.19807618413E+02 -0.15959485340E+02 -0.10437225483E+03  0.10742725211E+03  0.00000000000E+00 0.  1.
         14    1    6    6    0    0  0.14622132338E+02  0.80639410026E+02 -0.25764063068E+03  0.27036126901E+03  0.00000000000E+00 0. -1.
         -5    1    3    3    0  503  0.36605159255E+02 -0.36726047889E+02 -0.17327445423E+03  0.18092779434E+03  0.47000000000E+01 0.  1.
         13    1    4    4    0    0 -0.59013016881E+02 -0.14914027919E+02 -0.38943245723E+03  0.39416063113E+03  0.00000000000E+00 0. -1.
        -14    1    4    4    0    0 -0.10677091901E+02 -0.20690452748E+02 -0.84589121276E+03  0.84621158049E+03  0.00000000000E+00 0.  1.
</event>
<event>
12    1  0.8526130E-002  0.2312698E+03  0.7818608E-02  0.1126279E+00
         21   -1    0    0  501  502  0.00000000000E+00  0.00000000000E+00  0.51181577288E+03  0.51181577288E+03  0.00000000000E+00 0.  1.
         21   -1    0    0  502  503 -0.00000000000E+00 -0.00000000000E+00 -0.26277887678E+03  0.26277887678E+03  0.00000000000E+00 0.  1.
         -6    2    1    2    0  503  0.15413355986E+03  0.12727771448E+02 -0.17766249839E+03  0.28925139489E+03  0.16787869332E+03 0.  0.
        -24    2    3    3    0    0  0.35240809447E+02  0.15388940895E+02 -0.24040966491E+02  0.94921178539E+02  0.83386617110E+02 0.  0.
          6    2    1    2  501    0 -0.15413355986E+03 -0.12727771448E+02  0.42669939449E+03  0.48534325477E+03  0.17194926943E+03 0.  0.
         24    2    5    5    0    0 -0.78804877736E+02 -0.98775449031E+01  0.38075874682E+03  0.39693982017E+03  0.79222616137E+02 0.  0.
          5    1    5    5  501    0 -0.75328682121E+02 -0.28502265445E+01  0.45940647668E+02  0.88403434603E+02  0.47000000000E+01 0. -1.
        -13    1    6    6    0    0 -0.42687597531E+02 -0.44799794132E+02  0.21646306865E+03  0.22513443234E+03  0.00000000000E+00 0.  1.
         14    1    6    6    0    0 -0.36117280205E+02  0.34922249228E+02  0.16429567817E+03  0.17180538782E+03  0.00000000000E+00 0. -1.
         -5    1    3    3    0  503  0.11889275041E+03 -0.26611694478E+01 -0.15362153190E+03  0.19433021635E+03  0.47000000000E+01 0.  1.
         13    1    4    4    0    0  0.13355651694E+02  0.44651055538E+02 -0.33234242556E+02  0.57241637565E+02  0.00000000000E+00 0. -1.
        -14    1    4    4    0    0  0.21885157753E+02 -0.29262114643E+02  0.91932760649E+01  0.37679540974E+02  0.00000000000E+00 0.  1.
</event>
<event>
12    1  0.8526130E-002  0.1808425E+03  0.7818608E-02  0.1167290E+00
         21   -1    0    0  503  502  0.00000000000E+00  0.00000000000E+00  0.29382150133E+03  0.29382150133E+03  0.00000000000E+00 0. -1.
         21   -1    0    0  501  503 -0.00000000000E+00 -0.00000000000E+00 -0.13670852060E+03  0.13670852060E+03  0.00000000000E+00 0. -1.
          6    2    1    2  501    0 -0.35704875673E+02 -0.33938116650E+02  0.17295337717E+03  0.25023361793E+03  0.17400390501E+03 0.  0.
         24    2    3    3    0    0  0.25145283247E+02 -0.33518362572E+02  0.30605373385E+02  0.95353140737E+02  0.79998541670E+02 0.  0.
         -6    2    1    2    0  502  0.35704875673E+02  0.33938116650E+02 -0.15840396446E+02  0.18029640400E+03  0.17271143919E+03 0.  0.
        -24    2    5    5    0    0 -0.47108902153E+02  0.21889066947E+02 -0.54081502774E+00  0.95093888850E+02  0.79650331461E+02 0.  0.
          5    1    3    3  501    0 -0.60850158920E+02 -0.41975407871E+00  0.14234800379E+03  0.15488047720E+03  0.47000000000E+01 0. -1.
        -13    1    4    4    0    0 -0.16403154491E+02  0.17807676086E+02  0.66575381387E+01  0.25109751470E+02  0.00000000000E+00 0.  1.
         14    1    4    4    0    0  0.41548437738E+02 -0.51326038657E+02  0.23947835247E+02  0.70243389267E+02  0.00000000000E+00 0. -1.
         -5    1    5    5    0  502  0.82813777826E+02  0.12049049703E+02 -0.15299581418E+02  0.85202515151E+02  0.47000000000E+01 0.  1.
         13    1    6    6    0    0 -0.42773775877E+02  0.85760752083E+00  0.33846873663E+02  0.54552197483E+02  0.00000000000E+00 0. -1.
        -14    1    6    6    0    0 -0.43351262760E+01  0.21031459426E+02 -0.34387688691E+02  0.40541691367E+02  0.00000000000E+00 0.  1.
</event>
<event>
12    1  0.8526130E-002  0.1731435E+03  0.7818608E-02  0.1174712E+00
         21   -1    0    0  501  502  0.00000000000E+00  0.00000000000E+00  0.18496783862E+03  0.18496783862E+03  0.00000000000E+00 0. -1.
         21   -1    0    0  502  503 -0.00000000000E+00 -0.00000000000E+00 -0.16240545475E+03  0.16240545475E+03  0.00000000000E+00 0. -1.
         -6    2    1    2    0  503 -0.96957134121E+01 -0.18139211112E+02  0.22760039915E+02  0.17463306221E+03  0.17191756502E+03 0.  0.
        -24    2    3    3    0    0  0.55395427726E+02  0.17608138778E+02  0.20993165431E+02  0.10020227877E+03  0.78873846813E+02 0.  0.
          6    2    1    2  501    0  0.96957134121E+01  0.18139211112E+02 -0.19765604350E+00  0.17274023115E+03  0.17151125489E+03 0.  0.
         24    2    5    5    0    0 -0.50096125673E+02 -0.21214965584E+02  0.17064176592E+02  0.98957603725E+02  0.80880928778E+02 0.  0.
          5    1    5    5  501    0  0.59791839085E+02  0.39354176696E+02 -0.17261832635E+02  0.73782627430E+02  0.47000000000E+01 0. -1.
        -13    1    6    6    0    0 -0.39616229649E+02  0.24767422915E+02 -0.48139621796E+01  0.46968554601E+02  0.00000000000E+00 0.  1.
         14    1    6    6    0    0 -0.10479896023E+02 -0.45982388498E+02  0.21878138772E+02  0.51989049124E+02  0.00000000000E+00 0. -1.
         -5    1    3    3    0  503 -0.65091141138E+02 -0.35747349890E+02  0.17668744844E+01  0.74430783445E+02  0.47000000000E+01 0.  1.
         11    1    4    4    0    0  0.17765694640E+02  0.67879207820E+01  0.48669798660E+02  0.52253660888E+02  0.00000000000E+00 0. -1.
        -12    1    4    4    0    0  0.37629733086E+02  0.10820217996E+02 -0.27676633229E+02  0.47948617879E+02  0.00000000000E+00 0.  1.
</event>
<event>
12    1  0.8526130E-002  0.2720754E+03  0.7818608E-02  0.1100278E+00
         21   -1    0    0  503  502  0.00000000000E+00  0.00000000000E+00  0.17767979462E+04  0.17767979462E+04  0.00000000000E+00 0.  1.
         21   -1    0    0  501  503 -0.00000000000E+00 -0.00000000000E+00 -0.95483626138E+02  0.95483626138E+02  0.00000000000E+00 0.  1.
          6    2    1    2  501    0  0.10442635047E+03  0.18291791288E+03  0.13740705186E+03  0.30480439149E+03  0.17222425394E+03 0.  0.
         24    2    3    3    0    0  0.13863258489E+03  0.16787171611E+03  0.10261261808E+03  0.25352869420E+03  0.79671467487E+02 0.  0.
         -6    2    1    2    0  502 -0.10442635047E+03 -0.18291791288E+03  0.15439072682E+04  0.15674771809E+04  0.17020938324E+03 0.  0.
        -24    2    5    5    0    0 -0.42349396780E+02 -0.85414694705E+02  0.43282312680E+03  0.45038699424E+03  0.80146391123E+02 0.  0.
          5    1    3    3  501    0 -0.34206234420E+02  0.15046196771E+02  0.34794433783E+02  0.51275697291E+02  0.47000000000E+01 0. -1.
        -11    1    4    4    0    0  0.10538933086E+03  0.16776901465E+03  0.93375057594E+02  0.21902569419E+03  0.00000000000E+00 0.  1.
         12    1    4    4    0    0  0.33243254027E+02  0.10270146115E+00  0.92375604863E+01  0.34503000009E+02  0.00000000000E+00 0. -1.
         -5    1    5    5    0  502 -0.62076953690E+02 -0.97503218176E+02  0.11110841414E+04  0.11170901866E+04  0.47000000000E+01 0.  1.
         11    1    6    6    0    0 -0.49301898172E+02 -0.73493452068E+02  0.22022697881E+03  0.23734339438E+03  0.00000000000E+00 0. -1.
        -12    1    6    6    0    0  0.69525013917E+01 -0.11921242637E+02  0.21259614799E+03  0.21304359987E+03  0.00000000000E+00 0.  1.
</event>
<event>
12    1  0.8526130E-002  0.2894204E+03  0.7818608E-02  0.1090735E+00
         21   -1    0    0  501  502  0.00000000000E+00  0.00000000000E+00  0.77054355731E+03  0.77054355731E+03  0.00000000000E+00 0. -1.
         21   -1    0    0  502  503 -0.00000000000E+00 -0.00000000000E+00 -0.14713349445E+03  0.14713349445E+03  0.00000000000E+00 0. -1.
         -6    2    1    2    0  503 -0.10497093865E+02  0.23248579873E+03  0.76748734202E+02  0.29942368903E+03  0.17205912287E+03 0.  0.
        -24    2    3    3    0    0  0.47978006755E+02  0.19530775011E+03  0.37846329764E+02  0.21981821333E+03  0.80253946004E+02 0.  0.
          6    2    1    2  501    0  0.10497093865E+02 -0.23248579873E+03  0.54666132865E+03  0.61825336272E+03  0.17099349894E+03 0.  0.
         24    2    5    5    0    0  0.27461999307E+02 -0.14215857007E+03  0.47048884052E+03  0.49879142651E+03  0.80435798383E+02 0.  0.
          5    1    5    5  501    0 -0.16964905443E+02 -0.90327228659E+02  0.76172488139E+02  0.11946193621E+03  0.47000000000E+01 0. -1.
        -13    1    6    6    0    0 -0.17172339076E+02 -0.77380317901E+02  0.31120889132E+03  0.32114416835E+03  0.00000000000E+00 0.  1.
         14    1    6    6    0    0  0.44634338383E+02 -0.64778252166E+02  0.15927994919E+03  0.17764725816E+03  0.00000000000E+00 0. -1.
         -5    1    3    3    0  503 -0.58475100620E+02  0.37178048618E+02  0.38902404437E+02  0.79605475707E+02  0.47000000000E+01 0.  1.
         13    1    4    4    0    0  0.74104041006E+01  0.14116723278E+03  0.52141749444E+02  0.15067137663E+03  0.00000000000E+00 0. -1.
        -14    1    4    4    0    0  0.40567602655E+02  0.54140517327E+02 -0.14295419680E+02  0.69146836699E+02  0.00000000000E+00 0.  1.
</event>
<event>
12    1  0.8526130E-002  0.2452720E+03  0.7818608E-02  0.1116370E+00
         21   -1    0    0  503  502  0.00000000000E+00  0.00000000000E+00  0.32133178335E+03  0.32133178335E+03  0.00000000000E+00 0.  1.
         21   -1    0    0  501  503 -0.00000000000E+00 -0.00000000000E+00 -0.18711754305E+03  0.18711754305E+03  0.00000000000E+00 0. -1.
          6    2    1    2  501    0 -0.10624756380E+03  0.13863957110E+03  0.61573940078E+02  0.25288276711E+03  0.17218846743E+03 0.  0.
         24    2    3    3    0    0 -0.97832561459E+02  0.54401281916E+02 -0.14862491390E+02  0.13872708532E+03  0.80582882771E+02 0.  0.
         -6    2    1    2    0  502  0.10624756380E+03 -0.13863957110E+03  0.72640300224E+02  0.25556655928E+03  0.17183764872E+03 0.  0.
        -24    2    5    5    0    0  0.63586545348E+02 -0.10708849239E+03 -0.18392686806E+02  0.15009368224E+03  0.81722876661E+02 0.  0.
          5    1    3    3  501    0 -0.84150023432E+01  0.84238289188E+02  0.76436431468E+02  0.11415568179E+03  0.47000000000E+01 0. -1.
        -11    1    4    4    0    0 -0.19071775191E+02 -0.20674354212E+02 -0.98475116692E+01  0.29801594204E+02  0.00000000000E+00 0.  1.
         12    1    4    4    0    0 -0.78760786268E+02  0.75075636128E+02 -0.50149797205E+01  0.10892549112E+03  0.00000000000E+00 0. -1.
         -5    1    5    5    0  502  0.42661018455E+02 -0.31551078713E+02  0.91032987030E+02  0.10547287704E+03  0.47000000000E+01 0.  1.
         11    1    6    6    0    0  0.72124494503E+02 -0.98414608447E+02  0.67077429779E+01  0.12219808378E+03  0.00000000000E+00 0. -1.
        -12    1    6    6    0    0 -0.85379491553E+01 -0.86738839445E+01 -0.25100429784E+02  0.27895598467E+02  0.00000000000E+00 0.  1.
</event>
<event>
12    1  0.8526130E-002  0.2213843E+03  0.7818608E-02  0.1132986E+00
         21   -1    0    0  501  502  0.00000000000E+00  0.00000000000E+00  0.12611063869E+03  0.12611063869E+03  0.00000000000E+00 0.  1.
         21   -1    0    0  502  503 -0.00000000000E+00 -0.00000000000E+00 -0.50846780055E+03  0.50846780055E+03  0.00000000000E+00 0. -1.
         -6    2    1    2    0  503 -0.13723448603E+03 -0.17339805545E+02 -0.34624045281E+03  0.41096650523E+03  0.17284977365E+03 0.  0.
        -24    2    3    3    0    0 -0.58469673319E+02 -0.63706065870E+02 -0.12454308199E+03  0.17112168030E+03  0.79337788421E+02 0.  0.
          6    2    1    2  501    0  0.13723448603E+03  0.17339805545E+02 -0.36116709053E+02  0.22361193401E+03  0.17194158121E+03 0.  0.
         24    2    5    5    0    0  0.15329053965E+03  0.54213690823E+02 -0.37536829457E+02  0.18309543101E+03  0.75351240685E+02 0.  0.
          5    1    5    5  501    0 -0.16056053622E+02 -0.36873885278E+02  0.14201204039E+01  0.40516503000E+02  0.47000000000E+01 0. -1.
        -13    1    6    6    0    0  0.19842041758E+02 -0.18516120349E+02 -0.77365757120E+01  0.28220700517E+02  0.00000000000E+00 0.  1.
         14    1    6    6    0    0  0.13344849789E+03  0.72729811171E+02 -0.29800253745E+02  0.15487473049E+03  0.00000000000E+00 0. -1.
         -5    1    3    3    0  503 -0.78764812707E+02  0.46366260325E+02 -0.22169737082E+03  0.23984482493E+03  0.47000000000E+01 0.  1.
         11    1    4    4    0    0  0.17550240612E+02 -0.17301167708E+01 -0.30542563539E+02  0.35268292234E+02  0.00000000000E+00 0. -1.
        -12    1    4    4    0    0 -0.76019913930E+02 -0.61975949099E+02 -0.94000518451E+02  0.13585338807E+03  0.00000000000E+00 0.  1.
</event>
<event>
12    1  0.8526130E-002  0.2713575E+03  0.7818608E-02  0.1100525E+00
         21   -1    0    0  503  502  0.00000000000E+00  0.00000000000E+00  0.14898555920E+03  0.14898555920E+03  0.00000000000E+00 0. -1.
         21   -1    0    0  501  503 -0.00000000000E+00 -0.00000000000E+00 -0.51273546793E+03  0.51273546793E+03  0.00000000000E+00 0.  1.
          6    2    1    2  501    0 -0.13556248690E+03 -0.15966613589E+03 -0.24509547772E+03  0.36555594254E+03  0.17230464627E+03 0.  0.
         24    2    3    3    0    0 -0.80634337240E+02 -0.15561695905E+02 -0.12920670714E+03  0.17259094988E+03  0.79681868002E+02 0.  0.
         -6    2    1    2    0  502  0.13556248690E+03  0.15966613589E+03 -0.11865443102E+03  0.29616508459E+03  0.17252368105E+03 0.  0.
        -24    2    5    5    0    0  0.65135090153E+02  0.40407076661E+02 -0.11107976100E+03  0.15737673116E+03  0.80953137029E+02 0.  0.
          5    1    3    3  501    0 -0.54928149662E+02 -0.14410443998E+03 -0.11588877057E+03  0.19296499266E+03  0.47000000000E+01 0. -1.
        -11    1    4    4    0    0 -0.34348756093E+02  0.58798304560E+01 -0.11422955232E+03  0.11942696544E+03  0.00000000000E+00 0.  1.
         12    1    4    4    0    0 -0.46285581146E+02 -0.21441526362E+02 -0.14977154823E+02  0.53163984438E+02  0.00000000000E+00 0. -1.
         -5    1    5    5    0  502  0.70427396748E+02  0.11925905923E+03 -0.75746700261E+01  0.13878835342E+03  0.47000000000E+01 0.  1.
         11    1    6    6    0    0  0.20863481706E+01  0.10161178879E+02  0.11973572763E+02  0.15841996389E+02  0.00000000000E+00 0. -1.
        -12    1    6    6    0    0  0.63048741983E+02  0.30245897782E+02 -0.12305333376E+03  0.14153473477E+03  0.00000000000E+00 0.  1.
</event>
<event>
12    1  0.8526130E-002  0.1818727E+03  0.7818608E-02  0.1166474E+00
         21   -1    0    0  501  502  0.00000000000E+00  0.00000000000E+00  0.27078036465E+03  0.27078036465E+03  0.00000000000E+00 0.  1.
         21   -1    0    0  502  503 -0.00000000000E+00 -0.00000000000E+00 -0.13007965029E+03  0.13007965029E+03  0.00000000000E+00 0.  1.
         -6    2    1    2    0  503  0.31122973136E+02  0.44878565511E+02  0.17296190892E+02  0.18269331117E+03  0.17347899766E+03 0.  0.
        -24    2    3    3    0    0  0.59027506467E+02 -0.81380855892E+01  0.51649506061E+02  0.11347143213E+03  0.81594236790E+02 0.  0.
          6    2    1    2  501    0 -0.31122973136E+02 -0.44878565511E+02  0.12340452347E+03  0.21816670377E+03  0.17142143717E+03 0.  0.
         24    2    5    5    0    0 -0.56040154770E+02 -0.42178967376E+02  0.14829883886E+03  0.18253005537E+03  0.80031939076E+02 0.  0.
          5    1    5    5  501    0  0.24917181634E+02 -0.26995981349E+01 -0.24894315387E+02  0.35636648401E+02  0.47000000000E+01 0. -1.
        -13    1    6    6    0    0 -0.27537039217E+01 -0.21486265199E+02  0.11362766051E+03  0.11567405807E+03  0.00000000000E+00 0.  1.
         14    1    6    6    0    0 -0.53286450848E+02 -0.20692702178E+02  0.34671178349E+02  0.66855997304E+02  0.00000000000E+00 0. -1.
         -5    1    3    3    0  503 -0.27904533331E+02  0.53016651101E+02 -0.34353315170E+02  0.69221879038E+02  0.47000000000E+01 0.  1.
         13    1    4    4    0    0  0.72724020064E+02 -0.24362981688E+02  0.51233104137E+02  0.92234315364E+02  0.00000000000E+00 0. -1.
        -14    1    4    4    0    0 -0.13696513597E+02  0.16224896099E+02  0.41640192441E+00  0.21237116770E+02  0.00000000000E+00 0.  1.
</event>
<event>
12    1  0.8526130E-002  0.2024487E+03  0.7818608E-02  0.1148542E+00
         21   -1    0    0  501  502  0.00000000000E+00  0.00000000000E+00  0.12190467831E+03  0.12190467831E+03  0.00000000000E+00 0.  1.
         21   -1    0    0  502  503 -0.00000000000E+00 -0.00000000000E+00 -0.42785409030E+03  0.42785409030E+03  0.00000000000E+00 0.  1.
         -6    2    1    2    0  503 -0.10540527218E+03  0.18552566313E+02 -0.28595706198E+03  0.35036682119E+03  0.17184585818E+03 0.  0.
        -24    2    3    3    0    0 -0.11048855251E+02 -0.51802662322E+01 -0.19791550660E+03  0.21906645474E+03  0.93116333033E+02 0.  0.
          6    2    1    2  501    0  0.10540527218E+03 -0.18552566313E+02 -0.19992350015E+02  0.19939194742E+03  0.16704186756E+03 0.  0.
         24    2    5    5    0    0  0.11842116890E+03 -0.61107275752E+02 -0.19517518651E+02  0.15464116723E+03  0.75995293778E+02 0.  0.
          5    1    5    5  501    0 -0.13015896719E+02  0.42554709439E+02 -0.47483136418E+00  0.44750780190E+02  0.47000000000E+01 0. -1.
        -11    1    6    6    0    0  0.10854075589E+03 -0.37169762039E+02 -0.40128056935E+02  0.12154401611E+03  0.00000000000E+00 0.  1.
         12    1    6    6    0    0  0.98804130062E+01 -0.23937513713E+02  0.20610538285E+02  0.33097151121E+02  0.00000000000E+00 0. -1.
         -5    1    3    3    0  503 -0.94356416928E+02  0.23732832546E+02 -0.88041555375E+02  0.13130036645E+03  0.47000000000E+01 0.  1.
         11    1    4    4    0    0 -0.52138216843E+02  0.16558947010E+01 -0.11488708554E+03  0.12617518800E+03  0.00000000000E+00 0. -1.
        -12    1    4    4    0    0  0.41089361592E+02 -0.68361609333E+01 -0.83028421059E+02  0.92891266736E+02  0.00000000000E+00 0.  1.
</event>
<event>
12    1  0.8526130E-002  0.1929267E+03  0.7818608E-02  0.1155896E+00
         21   -1    0    0  501  502  0.00000000000E+00  0.00000000000E+00  0.74075826686E+03  0.74075826686E+03  0.00000000000E+00 0. -1.
         21   -1    0    0  502  503 -0.00000000000E+00 -0.00000000000E+00 -0.52415410769E+02  0.52415410769E+02  0.00000000000E+00 0. -1.
         -6    2    1    2    0  503  0.49719447320E+02 -0.70825491498E+02  0.26263941412E+03  0.32588365325E+03  0.17243091347E+03 0.  0.
        -24    2    3    3    0    0 -0.51556483812E+01 -0.26891627200E+02  0.23881951230E+03  0.25151337503E+03  0.73989715774E+02 0.  0.
          6    2    1    2  501    0 -0.49719447320E+02  0.70825491498E+02  0.42570344197E+03  0.46729002437E+03  0.17218673785E+03 0.  0.
         24    2    5    5    0    0  0.36237754325E+02  0.48419823387E+02  0.18347997088E+03  0.20924941823E+03  0.80391325260E+02 0.  0.
          5    1    5    5  501    0 -0.85957201645E+02  0.22405668110E+02  0.24222347108E+03  0.25804060615E+03  0.47000000000E+01 0. -1.
        -11    1    6    6    0    0  0.15171593779E+00 -0.73655135872E+01 -0.53286596346E+01  0.90922176410E+01  0.00000000000E+00 0.  1.
         12    1    6    6    0    0  0.36086038387E+02  0.55785336974E+02  0.18880863052E+03  0.20015720058E+03  0.00000000000E+00 0. -1.
         -5    1    3    3    0  503  0.54875095702E+02 -0.43933864298E+02  0.23819901828E+02  0.74370278227E+02  0.47000000000E+01 0.  1.
         11    1    4    4    0    0  0.19065638332E+02 -0.44793587500E+02  0.14155662076E+03  0.14969382395E+03  0.00000000000E+00 0. -1.
        -12    1    4    4    0    0 -0.24221286714E+02  0.17901960300E+02  0.97262891532E+02  0.10181955108E+03  0.00000000000E+00 0.  1.
</event>
<event>
12    1  0.8526130E-002  0.2515496E+03  0.7818608E-02  0.1112520E+00
         21   -1    0    0  501  502  0.00000000000E+00  0.00000000000E+00  0.73949970572E+02  0.73949970572E+02  0.00000000000E+00 0.  1.
         21   -1    0    0  502  503 -0.00000000000E+00 -0.00000000000E+00 -0.99085334593E+03  0.99085334593E+03  0.00000000000E+00 0. -1.
         -6    2    1    2    0  503  0.20667158144E+02  0.18070672142E+03 -0.65902826420E+03  0.70540445360E+03  0.17376748702E+03 0.  0.
        -24    2    3    3    0    0 -0.47288073425E+02  0.61601001835E+02 -0.27012924152E+03  0.29301067845E+03  0.82792543430E+02 0.  0.
          6    2    1    2  501    0 -0.20667158144E+02 -0.18070672142E+03 -0.25787511116E+03  0.35939886290E+03  0.17200557872E+03 0.  0.
         24    2    5    5    0    0 -0.73369679793E+02 -0.12912247655E+03 -0.11665842597E+03  0.20001651670E+03  0.65891537686E+02 0.  0.
          5    1    5    5  501    0  0.52702521649E+02 -0.51584244866E+02 -0.14121668518E+03  0.15938234620E+03  0.47000000000E+01 0. -1.
        -11    1    6    6    0    0 -0.18796567019E+00 -0.64017585904E+02 -0.53889737671E+02  0.83680287179E+02  0.00000000000E+00 0.  1.
         12    1    6    6    0    0 -0.73181714123E+02 -0.65104890650E+02 -0.62768688302E+02  0.11633622952E+03  0.00000000000E+00 0. -1.
         -5    1    3    3    0  503  0.67955231569E+02  0.11910571959E+03 -0.38889902268E+03  0.41239377514E+03  0.47000000000E+01 0.  1.
         13    1    4    4    0    0 -0.30263547376E+02  0.80572884351E+02 -0.22879594784E+03  0.24444929482E+03  0.00000000000E+00 0. -1.
        -14    1    4    4    0    0 -0.17024526049E+02 -0.18971882516E+02 -0.41333293681E+02  0.48561383628E+02  0.00000000000E+00 0.  1.
</event>
<event>
12    1  0.8526130E-002  0.1734777E+03  0.7818608E-02  0.1174363E+00
         21   -1    0    0  501  502  0.00000000000E+00  0.00000000000E+00  0.11265433349E+04  0.11265433349E+04  0.00000000000E+00 0. -1.
         21   -1    0    0  502  503 -0.00000000000E+00 -0.00000000000E+00 -0.27928589946E+02  0.27928589946E+02  0.00000000000E+00 0. -1.
         -6    2    1    2    0  503  0.18632434071E+01 -0.22991540923E+02  0.42671225477E+03  0.46062768220E+03  0.17193728684E+03 0.  0.
        -24    2    3    3    0    0  0.56186931186E+02 -0.44213039123E+02  0.35272222851E+03  0.36629831760E+03  0.68188876863E+02 0.  0.
          6    2    1    2  501    0 -0.18632434071E+01  0.22991540923E+02  0.67190249017E+03  0.69384424264E+03  0.17156571368E+03 0.  0.
         24    2    5    5    0    0  0.59691866549E+02  0.31655368903E+01  0.48750782733E+03  0.49838175600E+03  0.84542021796E+02 0.  0.
          5    1    5    5  501    0 -0.61555109956E+02  0.19826004033E+02  0.18439466284E+03  0.19546248664E+03  0.47000000000E+01 0. -1.
        -13    1    6    6    0    0  0.23300665898E+02  0.42468323284E+02  0.18916120784E+03  0.19526505592E+03  0.00000000000E+00 0.  1.
         14    1    6    6    0    0  0.36391200651E+02 -0.39302786394E+02  0.29834661950E+03  0.30311670008E+03  0.00000000000E+00 0. -1.
         -5    1    3    3    0  503 -0.54323687779E+02  0.21221498199E+02  0.73990026268E+02  0.94329364606E+02  0.47000000000E+01 0.  1.
         13    1    4    4    0    0  0.54554167305E+02 -0.28442492297E+02  0.13922016765E+03  0.15220836908E+03  0.00000000000E+00 0. -1.
        -14    1    4    4    0    0  0.16327638803E+01 -0.15770546826E+02  0.21350206086E+03  0.21408994851E+03  0.00000000000E+00 0.  1.
</event>
<event>
12    1  0.8526130E-002  0.1844133E+03  0.7818608E-02  0.1166027E+00
         21   -1    0    0  503  502  0.00000000000E+00  0.00000000000E+00  0.10744396377E+03  0.10744396377E+03  0.00000000000E+00 0. -1.
         21   -1    0    0  501  503 -0.00000000000E+00 -0.00000000000E+00 -0.35343126478E+03  0.35343126478E+03  0.00000000000E+00 0. -1.
          6    2    1    2  501    0  0.27070112878E+02 -0.20806451154E+01 -0.21589755853E+03  0.28393665781E+03  0.18240380964E+03 0.  0.
         24    2    3    3    0    0 -0.19252443704E+02 -0.53503498088E+02 -0.65776828598E+02  0.11856310305E+03  0.80606062606E+02 0.  0.
         -6    2    1    2    0  502 -0.27070112878E+02  0.20806451154E+01 -0.30089742481E+02  0.17693857075E+03  0.17223456424E+03 0.  0.
        -24    2    5    5    0    0  0.12946226043E+02 -0.51346251794E+02 -0.49095657821E+02  0.10737525058E+03  0.79467090540E+02 0.  0.
          5    1    3    3  501    0  0.46322556582E+02  0.51422852973E+02 -0.15012072994E+03  0.16537355476E+03  0.47000000000E+01 0. -1.
        -13    1    4    4    0    0 -0.50936882684E+02 -0.31178052976E+02 -0.36540101819E+02  0.70012970554E+02  0.00000000000E+00 0.  1.
         14    1    4    4    0    0  0.31684438979E+02 -0.22325445112E+02 -0.29236726779E+02  0.48550132498E+02  0.00000000000E+00 0. -1.
         -5    1    5    5    0  502 -0.40016338920E+02  0.53426896910E+02  0.19005915339E+02  0.69563320162E+02  0.47000000000E+01 0.  1.
         11    1    6    6    0    0 -0.21288254104E+02  0.11109745719E+02 -0.90184758919E+01  0.25650518906E+02  0.00000000000E+00 0. -1.
        -12    1    6    6    0    0  0.34234480147E+02 -0.62455997513E+02 -0.40077181929E+02  0.81724731677E+02  0.00000000000E+00 0.  1.
</event>
<event>
12    1  0.8526130E-002  0.2438614E+03  0.7818608E-02  0.1119139E+00
         21   -1    0    0  503  502  0.00000000000E+00  0.00000000000E+00  0.84748309725E+03  0.84748309725E+03  0.00000000000E+00 0.  1.
         21   -1    0    0  501  503 -0.00000000000E+00 -0.00000000000E+00 -0.77053002634E+02  0.77053002634E+02  0.00000000000E+00 0. -1.
          6    2    1    2  501    0  0.13758223731E+03  0.77167329584E+02  0.22584790425E+03  0.33237880816E+03  0.18596969507E+03 0.  0.
         24    2    3    3    0    0  0.29677034281E+02  0.36347365176E+02  0.19606381163E+03  0.21313542467E+03  0.69165263667E+02 0.  0.
         -6    2    1    2    0  502 -0.13758223731E+03 -0.77167329584E+02  0.54458219037E+03  0.59215729172E+03  0.17087079123E+03 0.  0.
        -24    2    5    5    0    0 -0.16822947763E+03 -0.56453850880E+02  0.41047217630E+03  0.45295999501E+03  0.72091297239E+02 0.  0.
          5    1    3    3  501    0  0.10790520303E+03  0.40819964408E+02  0.29784092616E+02  0.11924338349E+03  0.47000000000E+01 0. -1.
        -11    1    4    4    0    0  0.48298388582E+02  0.10839694852E+02  0.14368304696E+03  0.15197056067E+03  0.00000000000E+00 0.  1.
         12    1    4    4    0    0 -0.18621354301E+02  0.25507670324E+02  0.52380764668E+02  0.61164864004E+02  0.00000000000E+00 0. -1.
         -5    1    5    5    0  502  0.30647240322E+02 -0.20713478703E+02  0.13411001407E+03  0.13919729672E+03  0.47000000000E+01 0.  1.
         11    1    6    6    0    0 -0.43531296212E+02 -0.50045443679E+02  0.15551894624E+03  0.16907295119E+03  0.00000000000E+00 0. -1.
        -12    1    6    6    0    0 -0.12469818142E+03 -0.64084072008E+01  0.25495323006E+03  0.28388704382E+03  0.00000000000E+00 0.  1.
</event>
<event>
12    1  0.8526130E-002  0.3008584E+03  0.7818608E-02  0.1084819E+00
         21   -1    0    0  501  502  0.00000000000E+00  0.00000000000E+00  0.75563312550E+03  0.75563312550E+03  0.00000000000E+00 0. -1.
         21   -1    0    0  502  503 -0.00000000000E+00 -0.00000000000E+00 -0.14411006598E+03  0.14411006598E+03  0.00000000000E+00 0. -1.
         -6    2    1    2    0  503  0.22081450808E+03 -0.11050427273E+03  0.49068315359E+03  0.57557425128E+03  0.17188810388E+03 0.  0.
        -24    2    3    3    0    0  0.13034257500E+03  0.26072468816E+01  0.20553014418E+03  0.25570909952E+03  0.78412491430E+02 0.  0.
          6    2    1    2  501    0 -0.22081450808E+03  0.11050427273E+03  0.12083990594E+03  0.32416894020E+03  0.17179341564E+03 0.  0.
         24    2    5    5    0    0 -0.21833668460E+03  0.10154861698E+03  0.55509258839E+02  0.25801361669E+03  0.74207271393E+02 0.  0.
          5    1    5    5  501    0 -0.24778234811E+01  0.89556557496E+01  0.65330647098E+02  0.66155323515E+02  0.47000000000E+01 0. -1.
        -11    1    6    6    0    0 -0.38036938784E+02  0.39237511918E+02  0.37763824208E+02  0.66426632252E+02  0.00000000000E+00 0.  1.
         12    1    6    6    0    0 -0.18029974581E+03  0.62311105062E+02  0.17745434630E+02  0.19158698444E+03  0.00000000000E+00 0. -1.
         -5    1    3    3    0  503  0.90471933075E+02 -0.11311151961E+03  0.28515300940E+03  0.31986515177E+03  0.47000000000E+01 0.  1.
         11    1    4    4    0    0  0.79871886781E+02  0.83076533425E+01  0.18358462057E+03  0.20037926118E+03  0.00000000000E+00 0. -1.
        -12    1    4    4    0    0  0.50470688223E+02 -0.57004064609E+01  0.21945523616E+02  0.55329838336E+02  0.00000000000E+00 0.  1.
</event>
<event>
12    1  0.8526130E-002  0.2300751E+03  0.7818608E-02  0.1126745E+00
         21   -1    0    0  503  502  0.00000000000E+00  0.00000000000E+00  0.66891909978E+03  0.66891909978E+03  0.00000000000E+00 0. -1.
         21   -1    0    0  501  503 -0.00000000000E+00 -0.00000000000E+00 -0.10673838287E+03  0.10673838287E+03  0.00000000000E+00 0.  1.
          6    2    1    2  501    0 -0.15137833183E+03 -0.36499080954E+01  0.47900918993E+03  0.53101072734E+03  0.17202868172E+03 0.  0.
         24    2    3    3    0    0 -0.17240085475E+03 -0.29615079714E+02  0.37770508325E+03  0.42423643906E+03  0.81953149084E+02 0.  0.
         -6    2    1    2    0  502  0.15137833183E+03  0.36499080954E+01  0.83171526979E+02  0.24464675530E+03  0.17322185429E+03 0.  0.
        -24    2    5    5    0    0  0.62949450944E+01  0.38021502909E+02  0.29934004452E+02  0.86258247383E+02  0.71127910147E+02 0.  0.
          5    1    3    3  501    0  0.21022522925E+02  0.25965171619E+02  0.10130410668E+03  0.10677428828E+03  0.47000000000E+01 0. -1.
        -13    1    4    4    0    0 -0.80749024934E+02 -0.43957207416E+02  0.12596803410E+03  0.15595059066E+03  0.00000000000E+00 0.  1.
         14    1    4    4    0    0 -0.91651829820E+02  0.14342127702E+02  0.25173704915E+03  0.26828584840E+03  0.00000000000E+00 0. -1.
         -5    1    5    5    0  502  0.14508338673E+03 -0.34371594813E+02  0.53237522527E+02  0.15838850792E+03  0.47000000000E+01 0.  1.
         11    1    6    6    0    0 -0.11070158517E+02  0.16019750539E+02  0.48752785394E+02  0.52497760910E+02  0.00000000000E+00 0. -1.
        -12    1    6    6    0    0  0.17365103612E+02  0.22001752370E+02 -0.18818780941E+02  0.33760486473E+02  0.00000000000E+00 0.  1.
</event>
<event>
12    1  0.8526130E-002  0.2084386E+03  0.7818608E-02  0.1142850E+00
         21   -1    0    0  503  502  0.00000000000E+00  0.00000000000E+00  0.58271783319E+02  0.58271783319E+02  0.00000000000E+00 0.  1.
         21   -1    0    0  501  503 -0.00000000000E+00 -0.00000000000E+00 -0.77427139356E+03  0.77427139356E+03  0.00000000000E+00 0.  1.
          6    2    1    2  501    0  0.52173303055E+01  0.11706828763E+03 -0.27701556054E+03  0.34667600251E+03  0.17237872672E+03 0.  0.
         24    2    3    3    0    0  0.58770565944E+01  0.21304798580E+02 -0.44601009477E+02  0.95260619881E+02  0.81221311348E+02 0.  0.
         -6    2    1    2    0  502 -0.52173303055E+01 -0.11706828763E+03 -0.43898404970E+03  0.48586717438E+03  0.17212701920E+03 0.  0.
        -24    2    5    5    0    0  0.20004238819E+01  0.10098739795E+02 -0.17030153832E+03  0.18848538145E+03  0.80113287445E+02 0.  0.
          5    1    3    3  501    0 -0.65972628886E+00  0.95763489052E+02 -0.23241455106E+03  0.25141538263E+03  0.47000000000E+01 0. -1.
        -11    1    4    4    0    0 -0.22294749592E+02  0.36794882897E+02 -0.36207647693E+01  0.43174404504E+02  0.00000000000E+00 0.  1.
         12    1    4    4    0    0  0.28171806186E+02 -0.15490084318E+02 -0.40980244708E+02  0.52086215377E+02  0.00000000000E+00 0. -1.
         -5    1    5    5    0  502 -0.72177541874E+01 -0.12716702743E+03 -0.26868251139E+03  0.29738179293E+03  0.47000000000E+01 0.  1.
         11    1    6    6    0    0  0.37347309168E+02  0.24429368892E+01 -0.12519677513E+03  0.13067142742E+03  0.00000000000E+00 0. -1.
        -12    1    6    6    0    0 -0.35346885286E+02  0.76558029053E+01 -0.45104763193E+02  0.57813954027E+02  0.00000000000E+00 0.  1.
</event>
<event>
12    1  0.8526130E-002  0.1969816E+03  0.7818608E-02  0.1153618E+00
         21   -1    0    0  501  502  0.00000000000E+00  0.00000000000E+00  0.16396830937E+03  0.16396830937E+03  0.00000000000E+00 0.  1.
         21   -1    0    0  502  503 -0.00000000000E+00 -0.00000000000E+00 -0.25914038840E+03  0.25914038840E+03  0.00000000000E+00 0.  1.
         -6    2    1    2    0  503 -0.83802701029E+02  0.16207143749E+02 -0.11845816907E+03  0.22475552963E+03  0.17087172402E+03 0.  0.
        -24    2    3    3    0    0 -0.12066879013E+02 -0.36084071132E+02 -0.10344854734E+03  0.13460133916E+03  0.77254441933E+02 0.  0.
          6    2    1    2  501    0  0.83802701029E+02 -0.16207143749E+02  0.23286090046E+02  0.19835316814E+03  0.17752795023E+03 0.  0.
         24    2    5    5    0    0  0.54115114691E+02 -0.69303242778E+02 -0.24220314401E+02  0.12102596091E+03  0.79556737532E+02 0.  0.
          5    1    5    5  501    0  0.29687586338E+02  0.53096099029E+02  0.47506404446E+02  0.77327207231E+02  0.47000000000E+01 0. -1.
        -11    1    6    6    0    0  0.15521881186E+02 -0.77444455890E+02 -0.19016203752E+02  0.81241544475E+02  0.00000000000E+00 0.  1.
         12    1    6    6    0    0  0.38593233506E+02  0.81412131116E+01 -0.52041106490E+01  0.39784416434E+02  0.00000000000E+00 0. -1.
         -5    1    3    3    0  503 -0.71735822017E+02  0.52291214881E+02 -0.15009621730E+02  0.90154190466E+02  0.47000000000E+01 0.  1.
         11    1    4    4    0    0  0.24273623248E+02 -0.25957329073E+02 -0.15248060873E+02  0.38671631445E+02  0.00000000000E+00 0. -1.
        -12    1    4    4    0    0 -0.36340502261E+02 -0.10126742059E+02 -0.88200486471E+02  0.95929707719E+02  0.00000000000E+00 0.  1.
</event>
<event>
12    1  0.8526130E-002  0.2325215E+03  0.7818608E-02  0.1124878E+00
         21   -1    0    0  503  502  0.00000000000E+00  0.00000000000E+00  0.18074554521E+03  0.18074554521E+03  0.00000000000E+00 0. -1.
         21   -1    0    0  501  503 -0.00000000000E+00 -0.00000000000E+00 -0.30010467865E+03  0.30010467865E+03  0.00000000000E+00 0.  1.
          6    2    1    2  501    0  0.12417394747E+03 -0.96753661220E+02 -0.45941904406E+02  0.23701350723E+03  0.17112657257E+03 0.  0.
         24    2    3    3    0    0  0.92847251675E+02 -0.41998605620E+02 -0.92485643316E+02  0.15847760707E+03  0.78594291805E+02 0.  0.
         -6    2    1    2    0  502 -0.12417394747E+03  0.96753661220E+02 -0.73417229026E+02  0.24383671663E+03  0.17113098687E+03 0.  0.
        -24    2    5    5    0    0 -0.97460297405E+02 -0.15351846329E+02 -0.18383414813E+02  0.11603971107E+03  0.58250114583E+02 0.  0.
          5    1    3    3  501    0  0.31326695792E+02 -0.54755055601E+02  0.46543738911E+02  0.78535900166E+02  0.47000000000E+01 0. -1.
        -13    1    4    4    0    0  0.65602528960E+01  0.13174671137E+02 -0.41575719483E+02  0.44103847091E+02  0.00000000000E+00 0.  1.
         14    1    4    4    0    0  0.86286998779E+02 -0.55173276757E+02 -0.50909923833E+02  0.11437375998E+03  0.00000000000E+00 0. -1.
         -5    1    5    5    0  502 -0.26713650061E+02  0.11210550755E+03 -0.55033814213E+02  0.12779700556E+03  0.47000000000E+01 0.  1.
         11    1    6    6    0    0 -0.10819786689E+01 -0.89012236387E+01  0.11817742847E+02  0.14834470200E+02  0.00000000000E+00 0. -1.
        -12    1    6    6    0    0 -0.96378318736E+02 -0.64506226906E+01 -0.30201157660E+02  0.10120524087E+03  0.00000000000E+00 0.  1.
</event>
<event>
12    1  0.8526130E-002  0.2959141E+03  0.7818608E-02  0.1087387E+00
         21   -1    0    0  501  502  0.00000000000E+00  0.00000000000E+00  0.55250304443E+03  0.55250304443E+03  0.00000000000E+00 0. -1.
         21   -1    0    0  502  503 -0.00000000000E+00 -0.00000000000E+00 -0.22987568606E+03  0.22987568606E+03  0.00000000000E+00 0.  1.
         -6    2    1    2    0  503  0.11930191297E+03 -0.20912845529E+03 -0.57106632582E+02  0.30137406035E+03  0.17203923830E+03 0.  0.
        -24    2    3    3    0    0 -0.11116700534E+02 -0.10665178704E+03 -0.20169444550E+02  0.13138309546E+03  0.73188295298E+02 0.  0.
          6    2    1    2  501    0 -0.11930191297E+03  0.20912845529E+03  0.37973399096E+03  0.48100467014E+03  0.17087987463E+03 0.  0.
         24    2    5    5    0    0 -0.80882418461E+01  0.40892587746E+02  0.15619557242E+03  0.17990119567E+03  0.78928828518E+02 0.  0.
          5    1    5    5  501    0 -0.11121367113E+03  0.16823586755E+03  0.22353841854E+03  0.30110347447E+03  0.47000000000E+01 0. -1.
        -11    1    6    6    0    0  0.68636511106E+01  0.28919988736E+02  0.84249121827E+01  0.30894248661E+02  0.00000000000E+00 0.  1.
         12    1    6    6    0    0 -0.14951892957E+02  0.11972599010E+02  0.14777066024E+03  0.14900694701E+03  0.00000000000E+00 0. -1.
         -5    1    3    3    0  503  0.13041861351E+03 -0.10247666825E+03 -0.36937188032E+02  0.16999096489E+03  0.47000000000E+01 0.  1.
         13    1    4    4    0    0 -0.14564278241E+02 -0.29741336004E+02  0.25564874199E+02  0.41835727086E+02  0.00000000000E+00 0. -1.
        -14    1    4    4    0    0  0.34475777070E+01 -0.76910451037E+02 -0.45734318749E+02  0.89547368371E+02  0.00000000000E+00 0.  1.
</event>
<event>
12    1  0.8526130E-002  0.1754140E+03  0.7818608E-02  0.1173112E+00
         21   -1    0    0  501  502  0.00000000000E+00  0.00000000000E+00  0.23079251648E+03  0.23079251648E+03  0.00000000000E+00 0.  1.
         21   -1    0    0  502  503 -0.00000000000E+00 -0.00000000000E+00 -0.13973237196E+03  0.13973237196E+03  0.00000000000E+00 0.  1.
         -6    2    1    2    0  503  0.21958485525E+02 -0.25493063401E+02 -0.54689978464E+00  0.17541482972E+03  0.17215688199E+03 0.  0.
        -24    2    3    3    0    0  0.32441302802E+02  0.15446016540E+02 -0.57033516629E+02  0.10471316349E+03  0.80131186406E+02 0.  0.
          6    2    1    2  501    0 -0.21958485525E+02  0.25493063401E+02  0.91607044307E+02  0.19511005872E+03  0.16894973537E+03 0.  0.
         24    2    5    5    0    0  0.36947324735E+02 -0.21402695570E+02  0.25165386705E+02  0.94582994922E+02  0.80557222256E+02 0.  0.
          5    1    5    5  501    0 -0.58905810260E+02  0.46895758971E+02  0.66441657601E+02  0.10052706380E+03  0.47000000000E+01 0. -1.
        -13    1    6    6    0    0 -0.10201694412E+02  0.23614958611E+02  0.39327358187E+01  0.26023205992E+02  0.00000000000E+00 0.  1.
         14    1    6    6    0    0  0.47149019146E+02 -0.45017654181E+02  0.21232650887E+02  0.68559788930E+02  0.00000000000E+00 0. -1.
         -5    1    3    3    0  503 -0.10482817277E+02 -0.40939079941E+02  0.56486616844E+02  0.70701666225E+02  0.47000000000E+01 0.  1.
         13    1    4    4    0    0  0.47968315845E+01  0.27901477755E+02  0.10887047746E+02  0.30331994046E+02  0.00000000000E+00 0. -1.
        -14    1    4    4    0    0  0.27644471218E+02 -0.12455461215E+02 -0.67920564375E+02  0.74381169445E+02  0.00000000000E+00 0.  1.
</event>
<event>
12    1  0.8526130E-002  0.1754117E+03  0.7818608E-02  0.1172765E+00
         21   -1    0    0  503  502  0.00000000000E+00  0.00000000000E+00  0.87938972195E+02  0.87938972195E+02  0.00000000000E+00 0. -1.
         21   -1    0    0  501  503 -0.00000000000E+00 -0.00000000000E+00 -0.11511662794E+04  0.11511662794E+04  0.00000000000E+00 0. -1.
          6    2    1    2  501    0  0.15744383826E+02 -0.22493851418E+02 -0.10488272252E+04  0.10631034502E+04  0.17145418756E+03 0.  0.
         24    2    3    3    0    0  0.18464662122E+02  0.45726578945E+02 -0.78705070770E+03  0.79252913107E+03  0.78878028216E+02 0.  0.
         -6    2    1    2    0  502 -0.15744383826E+02  0.22493851418E+02 -0.14400081944E+02  0.17600180138E+03  0.17324956784E+03 0.  0.
        -24    2    5    5    0    0 -0.32110606907E+02  0.78334099216E+02 -0.74913534307E+00  0.11604827876E+03  0.79368253242E+02 0.  0.
          5    1    3    3  501    0 -0.27202782961E+01 -0.68220430362E+02 -0.26177651753E+03  0.27057431911E+03  0.47000000000E+01 0. -1.
        -11    1    4    4    0    0  0.11581893585E+02  0.50960449519E+02 -0.24976211130E+03  0.25517096213E+03  0.00000000000E+00 0.  1.
         12    1    4    4    0    0  0.68827685377E+01 -0.52338705744E+01 -0.53728859640E+03  0.53735816894E+03  0.00000000000E+00 0. -1.
         -5    1    5    5    0  502  0.16366223081E+02 -0.55840247798E+02 -0.13650946601E+02  0.59953522625E+02  0.47000000000E+01 0.  1.
         11    1    6    6    0    0  0.13691538621E+02  0.34071843231E+02  0.27989089939E+02  0.46170747087E+02  0.00000000000E+00 0. -1.
        -12    1    6    6    0    0 -0.45802145528E+02  0.44262255985E+02 -0.28738225282E+02  0.69877531670E+02  0.00000000000E+00 0.  1.
</event>
<event>
12    1  0.8526130E-002  0.1804890E+03  0.7818608E-02  0.1167613E+00
         21   -1    0    0  503  502  0.00000000000E+00  0.00000000000E+00  0.11442300591E+04  0.11442300591E+04  0.00000000000E+00 0.  1.
         21   -1    0    0  501  503 -0.00000000000E+00 -0.00000000000E+00 -0.28942056384E+02  0.28942056384E+02  0.00000000000E+00 0.  1.
          6    2    1    2  501    0 -0.18089730587E+01 -0.50383616989E+02  0.64418874285E+03  0.66868148798E+03  0.17208722993E+03 0.  0.
         24    2    3    3    0    0 -0.37569122208E+02 -0.10484198073E+02  0.56857332382E+03  0.57588852762E+03  0.82768438021E+02 0.  0.
         -6    2    1    2    0  502  0.18089730587E+01  0.50383616989E+02  0.47109925991E+03  0.50449062755E+03  0.17330464320E+03 0.  0.
        -24    2    5    5    0    0 -0.32979087200E+02 -0.30426572030E+02  0.24800379097E+03  0.26462780416E+03  0.80675881887E+02 0.  0.
          5    1    3    3  501    0  0.35760149149E+02 -0.39899418915E+02  0.75615419038E+02  0.92792960365E+02  0.47000000000E+01 0. -1.
        -13    1    4    4    0    0  0.19505045837E+01  0.18457417482E+02  0.39769761705E+03  0.39813047527E+03  0.00000000000E+00 0.  1.
         14    1    4    4    0    0 -0.39519626791E+02 -0.28941615555E+02  0.17087570676E+03  0.17775805235E+03  0.00000000000E+00 0. -1.
         -5    1    5    5    0  502  0.34788060258E+02  0.80810189019E+02  0.22309546893E+03  0.23986282339E+03  0.47000000000E+01 0.  1.
         13    1    6    6    0    0  0.10989056669E+02  0.21210686309E+02  0.78688691737E+02  0.82234802775E+02  0.00000000000E+00 0. -1.
        -14    1    6    6    0    0 -0.43968143868E+02 -0.51637258339E+02  0.16931509924E+03  0.18239300138E+03  0.00000000000E+00 0.  1.
</event>
<event>
12    1  0.8526130E-002  0.1892891E+03  0.7818608E-02  0.1159732E+00
         21   -1    0    0  503  502  0.00000000000E+00  0.00000000000E+00  0.20430287288E+03  0.20430287288E+03  0.00000000000E+00 0.  1.
         21   -1    0    0  501  503 -0.00000000000E+00 -0.00000000000E+00 -0.19048805713E+03  0.19048805713E+03  0.00000000000E+00 0. -1.
          6    2    1    2  501    0  0.66083576446E+02  0.42073840121E+02 -0.53130088357E+02  0.19660406823E+03  0.17231687746E+03 0.  0.
         24    2    3    3    0    0  0.63351203512E+02  0.76517600275E+02  0.73500302958E+01  0.12679165367E+03  0.78446047423E+02 0.  0.
         -6    2    1    2    0  502 -0.66083576446E+02 -0.42073840121E+02  0.66944904102E+02  0.19818686178E+03  0.16929017957E+03 0.  0.
        -24    2    5    5    0    0 -0.87146098722E+01  0.23297863050E+02 -0.73069713509E+01  0.83731241955E+02  0.79616544770E+02 0.  0.
          5    1    3    3  501    0  0.27323729341E+01 -0.34443760153E+02 -0.60480118653E+02  0.69812414566E+02  0.47000000000E+01 0. -1.
        -13    1    4    4    0    0  0.38393054505E+02  0.87224476866E+02  0.19109389123E+02  0.97197246625E+02  0.00000000000E+00 0.  1.
         14    1    4    4    0    0  0.24958149007E+02 -0.10706876592E+02 -0.11759358827E+02  0.29594407043E+02  0.00000000000E+00 0. -1.
         -5    1    5    5    0  502 -0.57368966574E+02 -0.65371703171E+02  0.74251875453E+02  0.11445561983E+03  0.47000000000E+01 0.  1.
         13    1    6    6    0    0 -0.43400834985E+02  0.21448964708E+02 -0.75379181228E+01  0.48995007645E+02  0.00000000000E+00 0. -1.
        -14    1    6    6    0    0  0.34686225113E+02  0.18488983416E+01  0.23094677192E+00  0.34736234311E+02  0.00000000000E+00 0.  1.
</event>
<event>
12    1  0.8526130E-002  0.1834930E+03  0.7818608E-02  0.1164722E+00
         21   -1    0    0  503  502  0.00000000000E+00  0.00000000000E+00  0.15775375575E+03  0.15775375575E+03  0.00000000000E+00 0.  1.
         21   -1    0    0  501  503 -0.00000000000E+00 -0.00000000000E+00 -0.21995240949E+03  0.21995240949E+03  0.00000000000E+00 0.  1.
          6    2    1    2  501    0 -0.62205999314E+01 -0.60563237755E+02 -0.66712744785E+02  0.19524415131E+03  0.17309848836E+03 0.  0.
         24    2    3    3    0    0 -0.65887685075E+02 -0.81209721020E+02 -0.52279795617E+02  0.13030696364E+03  0.57537135059E+02 0.  0.
         -6    2    1    2    0  502  0.62205999314E+01  0.60563237755E+02  0.45140910481E+01  0.18246201393E+03  0.17194594464E+03 0.  0.
        -24    2    5    5    0    0 -0.12356210939E+02  0.28332116339E+02 -0.63524961748E+02  0.10477452591E+03  0.77375033110E+02 0.  0.
          5    1    3    3  501    0  0.59667085144E+02  0.20646483265E+02 -0.14432949168E+02  0.64937187670E+02  0.47000000000E+01 0. -1.
        -13    1    4    4    0    0 -0.57268609570E+02 -0.34516803231E+02 -0.48640071794E+02  0.82685911324E+02  0.00000000000E+00 0.  1.
         14    1    4    4    0    0 -0.86190755053E+01 -0.46692917790E+02 -0.36397238229E+01  0.47621052317E+02  0.00000000000E+00 0. -1.
         -5    1    5    5    0  502  0.18576810870E+02  0.32231121416E+02  0.68039052796E+02  0.77687488022E+02  0.47000000000E+01 0.  1.
         13    1    6    6    0    0 -0.26242255728E+02 -0.13166377641E+02 -0.22067800861E+01  0.29442815154E+02  0.00000000000E+00 0. -1.
        -14    1    6    6    0    0  0.13886044789E+02  0.41498493980E+02 -0.61318181662E+02  0.75331710752E+02  0.00000000000E+00 0.  1.
</event>
<event>
12    1  0.8526130E-002  0.2330761E+03  0.7818608E-02  0.1125455E+00
         21   -1    0    0  501  502  0.00000000000E+00  0.00000000000E+00  0.13740978984E+03  0.13740978984E+03  0.00000000000E+00 0.  1.
         21   -1    0    0  502  503 -0.00000000000E+00 -0.00000000000E+00 -0.46026633817E+03  0.46026633817E+03  0.00000000000E+00 0.  1.
         -6    2    1    2    0  503  0.46608153223E+02 -0.14495982539E+03 -0.27977567284E+03  0.36065200018E+03  0.16914422010E+03 0.  0.
        -24    2    3    3    0    0  0.48753704755E+02 -0.81379969904E+02 -0.70013942950E+02  0.14140539304E+03  0.78063498155E+02 0.  0.
          6    2    1    2  501    0 -0.46608153223E+02  0.14495982539E+03 -0.43080875491E+02  0.23702412784E+03  0.17646190643E+03 0.  0.
         24    2    5    5    0    0 -0.39860171113E+02  0.17456722056E+03 -0.55929913032E+02  0.20371765885E+03  0.79436651602E+02 0.  0.
          5    1    5    5  501    0 -0.67479821106E+01 -0.29607395168E+02  0.12849037541E+02  0.33306468996E+02  0.47000000000E+01 0. -1.
        -11    1    6    6    0    0  0.67744658712E+01  0.10088541277E+03 -0.18894101574E+01  0.10113026139E+03  0.00000000000E+00 0.  1.
         12    1    6    6    0    0 -0.46634636984E+02  0.73681807791E+02 -0.54040502875E+02  0.10258739746E+03  0.00000000000E+00 0. -1.
         -5    1    3    3    0  503 -0.21455515321E+01 -0.63579855490E+02 -0.20976172989E+03  0.21924660714E+03  0.47000000000E+01 0.  1.
         11    1    4    4    0    0  0.45455939077E+01  0.10263262450E+02 -0.30070160051E+02  0.32096908038E+02  0.00000000000E+00 0. -1.
        -12    1    4    4    0    0  0.44208110847E+02 -0.91643232354E+02 -0.39943782899E+02  0.10930848500E+03  0.00000000000E+00 0.  1.
</event>
<event>
12    1  0.8526130E-002  0.2252180E+03  0.7818608E-02  0.1130192E+00
         21   -1    0    0  503  502  0.00000000000E+00  0.00000000000E+00  0.13204552822E+03  0.13204552822E+03  0.00000000000E+00 0. -1.
         21   -1    0    0  501  503 -0.00000000000E+00 -0.00000000000E+00 -0.42327171878E+03  0.42327171878E+03  0.00000000000E+00 0. -1.
          6    2    1    2  501    0 -0.77712307602E+02 -0.12138823192E+03 -0.23122724316E+03  0.32224420898E+03  0.17204937269E+03 0.  0.
         24    2    3    3    0    0 -0.81128331724E+02 -0.41296611534E+02 -0.68979470348E+02  0.14121170732E+03  0.83038320201E+02 0.  0.
         -6    2    1    2    0  502  0.77712307602E+02  0.12138823192E+03 -0.59998947393E+02  0.23307303802E+03  0.17305739441E+03 0.  0.
        -24    2    5    5    0    0  0.66838504110E+02  0.71882251000E+02  0.28911790198E+02  0.13062162998E+03  0.81189130841E+02 0.  0.
          5    1    3    3  501    0  0.34160241217E+01 -0.80091620384E+02 -0.16224777281E+03  0.18103250166E+03  0.47000000000E+01 0. -1.
        -11    1    4    4    0    0  0.25905041995E+01  0.18067680829E+02 -0.13498833381E+01  0.18302294598E+02  0.00000000000E+00 0.  1.
         12    1    4    4    0    0 -0.83718835923E+02 -0.59364292363E+02 -0.67629587010E+02  0.12290941272E+03  0.00000000000E+00 0. -1.
         -5    1    5    5    0  502  0.10873803492E+02  0.49505980918E+02 -0.88910737591E+02  0.10245140803E+03  0.47000000000E+01 0.  1.
         11    1    6    6    0    0  0.33191938264E+02  0.20333805097E+02 -0.27072176632E+02  0.47413828606E+02  0.00000000000E+00 0. -1.
        -12    1    6    6    0    0  0.33646565846E+02  0.51548445903E+02  0.55983966830E+02  0.83207801379E+02  0.00000000000E+00 0.  1.
</event>
<event>
12    1  0.8526130E-002  0.1950083E+03  0.7818608E-02  0.1154075E+00
         21   -1    0    0  501  502  0.00000000000E+00  0.00000000000E+00  0.77863708969E+02  0.77863708969E+02  0.00000000000E+00 0.  1.
         21   -1    0    0  502  503 -0.00000000000E+00 -0.00000000000E+00 -0.51304581815E+03  0.51304581815E+03  0.00000000000E+00 0. -1.
         -6    2    1    2    0  503 -0.72270001587E+02 -0.57914298184E+02 -0.15187733579E+03  0.24697665002E+03  0.17132927790E+03 0.  0.
        -24    2    3    3    0    0 -0.18399466645E+02 -0.86285012565E+02 -0.14207044753E+03  0.18512847279E+03  0.79403372791E+02 0.  0.
          6    2    1    2  501    0  0.72270001587E+02  0.57914298184E+02 -0.28330477338E+03  0.34393287709E+03  0.17161354917E+03 0.  0.
         24    2    5    5    0    0  0.79104014434E+02 -0.21716716571E+02 -0.18303658381E+03  0.21562230822E+03  0.79129816846E+02 0.  0.
          5    1    5    5  501    0 -0.68340128473E+01  0.79631014754E+02 -0.10026818958E+03  0.12831056887E+03  0.47000000000E+01 0. -1.
        -13    1    6    6    0    0 -0.25879537357E+01 -0.13022223767E+01  0.71034065195E+01  0.76714843308E+01  0.00000000000E+00 0.  1.
         14    1    6    6    0    0  0.81691968170E+02 -0.20414494194E+02 -0.19013999032E+03  0.20795082389E+03  0.00000000000E+00 0. -1.
         -5    1    3    3    0  503 -0.53870534942E+02  0.28370714381E+02 -0.98068882649E+01  0.61848177231E+02  0.47000000000E+01 0.  1.
         11    1    4    4    0    0  0.16758012863E+02 -0.11664963935E+02 -0.78149728611E+02  0.80773030528E+02  0.00000000000E+00 0. -1.
        -12    1    4    4    0    0 -0.35157479508E+02 -0.74620048630E+02 -0.63920718919E+02  0.10435544226E+03  0.00000000000E+00 0.  1.
</event>
<event>
12    1  0.8526130E-002  0.2675556E+03  0.7818608E-02  0.1102886E+00
         21   -1    0    0  501  502  0.00000000000E+00  0.00000000000E+00  0.27300647115E+03  0.27300647115E+03  0.00000000000E+00 0. -1.
         21   -1    0    0  502  503 -0.00000000000E+00 -0.00000000000E+00 -0.28145855641E+03  0.28145855641E+03  0.00000000000E+00 0.  1.
         -6    2    1    2    0  503  0.38994851297E+02  0.19980902315E+03  0.70743211851E+02  0.27675009943E+03  0.17361385703E+03 0.  0.
        -24    2    3    3    0    0 -0.28815714968E+02  0.47897194553E+02  0.41494670830E+02  0.10777364037E+03  0.82273101170E+02 0.  0.
          6    2    1    2  501    0 -0.38994851297E+02 -0.19980902315E+03 -0.79195297111E+02  0.27771492812E+03  0.17149181338E+03 0.  0.
         24    2    5    5    0    0 -0.13661284089E+02 -0.16888397473E+03 -0.11832157875E+03  0.22158023152E+03  0.79933568660E+02 0.  0.
          5    1    5    5  501    0 -0.25333567208E+02 -0.30925048418E+02  0.39126281642E+02  0.56134696599E+02  0.47000000000E+01 0. -1.
        -13    1    6    6    0    0 -0.36029293794E+02 -0.70625203935E+02 -0.83036031909E+02  0.11480858869E+03  0.00000000000E+00 0.  1.
         14    1    6    6    0    0  0.22368009705E+02 -0.98258770800E+02 -0.35285546844E+02  0.10677164283E+03  0.00000000000E+00 0. -1.
         -5    1    3    3    0  503  0.67810566266E+02  0.15191182860E+03  0.29248541021E+02  0.16897645906E+03  0.47000000000E+01 0.  1.
         11    1    4    4    0    0  0.18293215572E+02  0.46828477398E+02  0.10461734159E+02  0.51351688512E+02  0.00000000000E+00 0. -1.
        -12    1    4    4    0    0 -0.47108930541E+02  0.10687171544E+01  0.31032936671E+02  0.56421951858E+02  0.00000000000E+00 0.  1.
</event>
<event>
12    1  0.8526130E-002  0.1735293E+03  0.7818608E-02  0.1174401E+00
         21   -1    0    0  501  502  0.00000000000E+00  0.00000000000E+00  0.28590505589E+03  0.28590505589E+03  0.00000000000E+00 0. -1.
         21   -1    0    0  502  503 -0.00000000000E+00 -0.00000000000E+00 -0.12239161062E+03  0.12239161062E+03  0.00000000000E+00 0. -1.
         -6    2    1    2    0  503  0.20875852943E+02 -0.42279337949E+01  0.43947452587E+01  0.17285840592E+03  0.17148480414E+03 0.  0.
        -24    2    3    3    0    0  0.58478301644E+02  0.25224887065E+02 -0.37873745518E+02  0.10890429645E+03  0.79810516193E+02 0.  0.
          6    2    1    2  501    0 -0.20875852943E+02  0.42279337949E+01  0.15911870001E+03  0.23543826059E+03  0.17221712225E+03 0.  0.
         24    2    5    5    0    0 -0.23610043013E+02  0.65532128520E+02  0.13052237240E+03  0.16757427869E+03  0.78696602101E+02 0.  0.
          5    1    5    5  501    0  0.27341900696E+01 -0.61304194725E+02  0.28596327611E+02  0.67863981898E+02  0.47000000000E+01 0. -1.
        -13    1    6    6    0    0  0.99963505836E+01 -0.98613014656E+01  0.11200185308E+01  0.14086402418E+02  0.00000000000E+00 0.  1.
         14    1    6    6    0    0 -0.33606393596E+02  0.75393429986E+02  0.12940235387E+03  0.15348787627E+03  0.00000000000E+00 0. -1.
         -5    1    3    3    0  503 -0.37602448701E+02 -0.29452820860E+02  0.42268490777E+02  0.63954109466E+02  0.47000000000E+01 0.  1.
         11    1    4    4    0    0  0.22168105214E+00 -0.73109802862E+01 -0.41442001057E+02  0.42082526384E+02  0.00000000000E+00 0. -1.
        -12    1    4    4    0    0  0.58256620592E+02  0.32535867352E+02  0.35682555386E+01  0.66821770066E+02  0.00000000000E+00 0.  1.
</event>
<event>
12    1  0.8526130E-002  0.2497225E+03  0.7818608E-02  0.1114017E+00
         21   -1    0    0  501  502  0.00000000000E+00  0.00000000000E+00  0.80421164493E+02  0.80421164493E+02  0.00000000000E+00 0.  1.
         21   -1    0    0  502  503 -0.00000000000E+00 -0.00000000000E+00 -0.10910245779E+04  0.10910245779E+04  0.00000000000E+00 0. -1.
         -6    2    1    2    0  503 -0.40158704693E+02  0.17191161908E+03 -0.82787839633E+03  0.86472191295E+03  0.17662112355E+03 0.  0.
        -24    2    3    3    0    0 -0.73327359932E+01  0.26226088874E+02 -0.46263888388E+03  0.47010335105E+03  0.78872346507E+02 0.  0.
          6    2    1    2  501    0  0.40158704693E+02 -0.17191161908E+03 -0.18272501713E+03  0.30672382949E+03  0.17182767343E+03 0.  0.
         24    2    5    5    0    0  0.51058468278E+02 -0.19226707462E+03 -0.18436595794E+03  0.28310324307E+03  0.81135963811E+02 0.  0.
          5    1    5    5  501    0 -0.10899763585E+02  0.20355455534E+02  0.16409408174E+01  0.23620586423E+02  0.47000000000E+01 0. -1.
        -13    1    6    6    0    0  0.11623805739E+02 -0.14174053769E+03 -0.16116102449E+03  0.21493805782E+03  0.00000000000E+00 0.  1.
         14    1    6    6    0    0  0.39434662539E+02 -0.50526536929E+02 -0.23204933449E+02  0.68165185249E+02  0.00000000000E+00 0. -1.
         -5    1    3    3    0  503 -0.32825968700E+02  0.14568553021E+03 -0.36523951245E+03  0.39461856189E+03  0.47000000000E+01 0.  1.
         13    1    4    4    0    0  0.18332174364E+02  0.45149143022E+02 -0.21702956863E+03  0.22243279298E+03  0.00000000000E+00 0. -1.
        -14    1    4    4    0    0 -0.25664910357E+02 -0.18923054147E+02 -0.24560931525E+03  0.24767055808E+03  0.00000000000E+00 0.  1.
</event>
<event>
12    1  0.8526130E-002  0.2236515E+03  0.7818608E-02  0.1131256E+00
         21   -1    0    0  501  502  0.00000000000E+00  0.00000000000E+00  0.54279154426E+03  0.54279154426E+03  0.00000000000E+00 0.  1.
         21   -1    0    0  502  503 -0.00000000000E+00 -0.00000000000E+00 -0.92602158333E+02  0.92602158333E+02  0.00000000000E+00 0.  1.
         -6    2    1    2    0  503 -0.13413924960E+03  0.46842333552E+02  0.19971894646E+03  0.29984603691E+03  0.17272071612E+03 0.  0.
        -24    2    3    3    0    0  0.45486485183E+01  0.12509145967E+02  0.80271130665E+02  0.11355870091E+03  0.79214614799E+02 0.  0.
          6    2    1    2  501    0  0.13413924960E+03 -0.46842333552E+02  0.25047043947E+03  0.33554766569E+03  0.17224764848E+03 0.  0.
         24    2    5    5    0    0  0.10190541255E+03 -0.89855703526E+02  0.22746996334E+03  0.27689374723E+03  0.80428865922E+02 0.  0.
          5    1    5    5  501    0  0.32233837057E+02  0.43013369974E+02  0.23000476129E+02  0.58653918455E+02  0.47000000000E+01 0. -1.
        -13    1    6    6    0    0 -0.37954007127E+01 -0.36618528493E+02  0.77920053828E+02  0.86179211438E+02  0.00000000000E+00 0.  1.
         14    1    6    6    0    0  0.10570081326E+03 -0.53237175033E+02  0.14954990951E+03  0.19071453579E+03  0.00000000000E+00 0. -1.
         -5    1    3    3    0  503 -0.13868789812E+03  0.34333187585E+02  0.11944781580E+03  0.18628733600E+03  0.47000000000E+01 0.  1.
         11    1    4    4    0    0 -0.21834608452E+02 -0.24120015481E+02  0.19763434191E+02  0.38067290475E+02  0.00000000000E+00 0. -1.
        -12    1    4    4    0    0  0.26383256971E+02  0.36629161448E+02  0.60507696474E+02  0.75491410434E+02  0.00000000000E+00 0.  1.
</event>
<event>
12    1  0.8526130E-002  0.3153894E+03  0.7818608E-02  0.1077800E+00
         21   -1    0    0  503  502  0.00000000000E+00  0.00000000000E+00  0.90924506352E+02  0.90924506352E+02  0.00000000000E+00 0.  1.
         21   -1    0    0  501  503 -0.00000000000E+00 -0.00000000000E+00 -0.11395285083E+04  0.11395285083E+04  0.00000000000E+00 0. -1.
          6    2    1    2  501    0 -0.10411227261E+03  0.24289189541E+03 -0.64757669399E+03  0.72026343566E+03  0.17201163911E+03 0.  0.
         24    2    3    3    0    0 -0.24813320736E+02  0.89282985855E+02 -0.15087814715E+03  0.19432089384E+03  0.80057741956E+02 0.  0.
         -6    2    1    2    0  502  0.10411227261E+03 -0.24289189541E+03 -0.40102730795E+03  0.51018957898E+03  0.17214722366E+03 0.  0.
        -24    2    5    5    0    0  0.14951276123E+02 -0.15298917739E+03 -0.14910290252E+03  0.22819635556E+03  0.78820505555E+02 0.  0.
          5    1    3    3  501    0 -0.79298951879E+02  0.15360890956E+03 -0.49669854684E+03  0.52594254182E+03  0.47000000000E+01 0. -1.
        -13    1    4    4    0    0  0.13943815036E+02  0.66319010172E+02 -0.12546499491E+03  0.14259770698E+03  0.00000000000E+00 0.  1.
         14    1    4    4    0    0 -0.38757135772E+02  0.22963975683E+02 -0.25413152239E+02  0.51723186862E+02  0.00000000000E+00 0. -1.
         -5    1    5    5    0  502  0.89160996492E+02 -0.89902718025E+02 -0.25192440543E+03  0.28199322342E+03  0.47000000000E+01 0.  1.
         13    1    6    6    0    0 -0.20544430155E+02 -0.18936099557E+02 -0.53290474945E+01  0.28443773028E+02  0.00000000000E+00 0. -1.
        -14    1    6    6    0    0  0.35495706278E+02 -0.13405307783E+03 -0.14377385502E+03  0.19975258253E+03  0.00000000000E+00 0.  1.
</event>
<event>
12    1  0.8526130E-002  0.1820218E+03  0.7818608E-02  0.1166099E+00
         21   -1    0    0  503  502  0.00000000000E+00  0.00000000000E+00  0.13265300307E+03  0.13265300307E+03  0.00000000000E+00 0.  1.
         21   -1    0    0  501  503 -0.00000000000E+00 -0.00000000000E+00 -0.25161467117E+03  0.25161467117E+03  0.00000000000E+00 0.  1.
          6    2    1    2  501    0 -0.51100684529E+02 -0.23176137427E+02 -0.81356683730E+02  0.19937609755E+03  0.17315745719E+03 0.  0.
         24    2    3    3    0    0  0.34080921105E+02 -0.26359431083E+02 -0.17643187182E+02  0.92851269740E+02  0.80335219226E+02 0.  0.
         -6    2    1    2    0  502  0.51100684529E+02  0.23176137427E+02 -0.37604984370E+02  0.18489157670E+03  0.17211143768E+03 0.  0.
        -24    2    5    5    0    0 -0.37108471263E+02  0.22431224295E+02 -0.65021664630E+01  0.91238571716E+02  0.80012501131E+02 0.  0.
          5    1    3    3  501    0 -0.85181605634E+02  0.31832936561E+01 -0.63713496548E+02  0.10652482781E+03  0.47000000000E+01 0. -1.
        -11    1    4    4    0    0  0.34665733404E+02  0.17308258876E+02 -0.28199644447E+02  0.47921903600E+02  0.00000000000E+00 0.  1.
         12    1    4    4    0    0 -0.58481229851E+00 -0.43667689958E+02  0.10556457265E+02  0.44929366140E+02  0.00000000000E+00 0. -1.
         -5    1    5    5    0  502  0.88209155792E+02  0.74491313239E+00 -0.31102817907E+02  0.93653004986E+02  0.47000000000E+01 0.  1.
         13    1    6    6    0    0  0.20909006143E+02  0.49157828276E+01  0.15796826953E+02  0.26662543023E+02  0.00000000000E+00 0. -1.
        -14    1    6    6    0    0 -0.58017477406E+02  0.17515441467E+02 -0.22298993416E+02  0.64576028693E+02  0.00000000000E+00 0.  1.
</event>
<event>
12    1  0.8526130E-002  0.3356046E+03  0.7818608E-02  0.1068749E+00
         21   -1    0    0  501  502  0.00000000000E+00  0.00000000000E+00  0.11737898053E+04  0.11737898053E+04  0.00000000000E+00 0.  1.
         21   -1    0    0  502  503 -0.00000000000E+00 -0.00000000000E+00 -0.12763926474E+03  0.12763926474E+03  0.00000000000E+00 0. -1.
         -6    2    1    2    0  503 -0.25544435933E+03 -0.13391298030E+03  0.19763558136E+03  0.38895544957E+03  0.17041716970E+03 0.  0.
        -24    2    3    3    0    0 -0.19866041513E+03 -0.16342509876E+03  0.17342642134E+03  0.32037298182E+03  0.79927469727E+02 0.  0.
          6    2    1    2  501    0  0.25544435933E+03  0.13391298030E+03  0.84851495925E+03  0.91247362051E+03  0.17159826645E+03 0.  0.
         24    2    5    5    0    0  0.12967135911E+03  0.88430128573E+02  0.65535902943E+03  0.67748672596E+03  0.69701200740E+02 0.  0.
          5    1    5    5  501    0  0.12577300022E+03  0.45482851732E+02  0.19315592982E+03  0.23498689455E+03  0.47000000000E+01 0. -1.
        -13    1    6    6    0    0  0.10516087039E+03  0.73402369817E+02  0.38931592846E+03  0.40989463123E+03  0.00000000000E+00 0.  1.
         14    1    6    6    0    0  0.24510488722E+02  0.15027758755E+02  0.26604310096E+03  0.26759209473E+03  0.00000000000E+00 0. -1.
         -5    1    3    3    0  503 -0.56783944196E+02  0.29512118457E+02  0.24209160013E+02  0.68582467751E+02  0.47000000000E+01 0.  1.
         13    1    4    4    0    0 -0.10678112269E+03 -0.77146133392E+02  0.13496003007E+03  0.18859465469E+03  0.00000000000E+00 0. -1.
        -14    1    4    4    0    0 -0.91879292447E+02 -0.86278965369E+02  0.38466391272E+02  0.13177832714E+03  0.00000000000E+00 0.  1.
</event>
<event>
12    1  0.8526130E-002  0.1762633E+03  0.7818608E-02  0.1171767E+00
         21   -1    0    0  501  502  0.00000000000E+00  0.00000000000E+00  0.85499832945E+02  0.85499832945E+02  0.00000000000E+00 0. -1.
         21   -1    0    0  502  503 -0.00000000000E+00 -0.00000000000E+00 -0.37707312322E+03  0.37707312322E+03  0.00000000000E+00 0. -1.
         -6    2    1    2    0  503  0.27691409528E+02  0.18120865116E+02 -0.19317619543E+03  0.26070480870E+03  0.17191502227E+03 0.  0.
        -24    2    3    3    0    0 -0.25281006796E+02  0.46590371294E+02 -0.17348507654E+03  0.19725073210E+03  0.77466041154E+02 0.  0.
          6    2    1    2  501    0 -0.27691409528E+02 -0.18120865116E+02 -0.98397094846E+02  0.20186814747E+03  0.17312879822E+03 0.  0.
         24    2    5    5    0    0 -0.52591316049E+02  0.46138350209E+02 -0.48747880471E+02  0.11680119391E+03  0.79822109504E+02 0.  0.
          5    1    5    5  501    0  0.24899906521E+02 -0.64259215325E+02 -0.49649214374E+02  0.85066953554E+02  0.47000000000E+01 0. -1.
        -13    1    6    6    0    0 -0.58478938238E+01  0.26156997225E+02  0.18451539967E+02  0.32539909237E+02  0.00000000000E+00 0.  1.
         14    1    6    6    0    0 -0.46743422226E+02  0.19981352983E+02 -0.67199420438E+02  0.84261284678E+02  0.00000000000E+00 0. -1.
         -5    1    3    3    0  503  0.52972416324E+02 -0.28469506178E+02 -0.19691118895E+02  0.63454076596E+02  0.47000000000E+01 0.  1.
         11    1    4    4    0    0  0.11032599017E+01  0.61064236691E+02 -0.92388634134E+02  0.11075070159E+03  0.00000000000E+00 0. -1.
        -12    1    4    4    0    0 -0.26384266698E+02 -0.14473865397E+02 -0.81096442402E+02  0.86500030514E+02  0.00000000000E+00 0.  1.
</event>
<event>
12    1  0.8526130E-002  0.1780971E+03  0.7818608E-02  0.1169697E+00
         21   -1    0    0  501  502  0.00000000000E+00  0.00000000000E+00  0.91503609085E+03  0.91503609085E+03  0.00000000000E+00 0. -1.
         21   -1    0    0  502  503 -0.00000000000E+00 -0.00000000000E+00 -0.53161404611E+02  0.53161404611E+02  0.00000000000E+00 0. -1.
         -6    2    1    2    0  503 -0.40716439911E+02  0.24604265814E+02  0.14526596228E+03  0.22982769468E+03  0.17162567136E+03 0.  0.
        -24    2    3    3    0    0  0.18664975433E+02  0.67552593608E+02  0.96626601905E+02  0.14174484319E+03  0.76440605474E+02 0.  0.
          6    2    1    2  501    0  0.40716439911E+02 -0.24604265814E+02  0.71660872396E+03  0.73836980078E+03  0.17146049421E+03 0.  0.
         24    2    5    5    0    0  0.67434875670E+02 -0.59310856186E+02  0.36769707788E+03  0.38668834123E+03  0.79129590174E+02 0.  0.
          5    1    5    5  501    0 -0.26718435759E+02  0.34706590372E+02  0.34891164608E+03  0.35168145955E+03  0.47000000000E+01 0. -1.
        -11    1    6    6    0    0 -0.10489186287E+02 -0.97525547742E+01  0.10532939170E+02  0.17778587153E+02  0.00000000000E+00 0.  1.
         12    1    6    6    0    0  0.77924061957E+02 -0.49558301412E+02  0.35716413871E+03  0.36890975408E+03  0.00000000000E+00 0. -1.
         -5    1    3    3    0  503 -0.59381415345E+02 -0.42948327793E+02  0.48639360377E+02  0.88082851489E+02  0.47000000000E+01 0.  1.
         13    1    4    4    0    0  0.13939312854E+02  0.24010963915E+02 -0.75196172812E+01  0.28764135222E+02  0.00000000000E+00 0. -1.
        -14    1    4    4    0    0  0.47256625792E+01  0.43541629692E+02  0.10414621919E+03  0.11298070797E+03  0.00000000000E+00 0.  1.
</event>
<event>
12    1  0.8526130E-002  0.1962800E+03  0.7818608E-02  0.1153906E+00
         21   -1    0    0  501  502  0.00000000000E+00  0.00000000000E+00  0.53797678833E+03  0.53797678833E+03  0.00000000000E+00 0.  1.
         21   -1    0    0  502  503 -0.00000000000E+00 -0.00000000000E+00 -0.77020811668E+02  0.77020811668E+02  0.00000000000E+00 0.  1.
         -6    2    1    2    0  503  0.87877675437E+02  0.40559352373E+02  0.32105704731E+03  0.37396327336E+03  0.16553958830E+03 0.  0.
        -24    2    3    3    0    0 -0.91291111977E+00 -0.11440593111E+02  0.19159049646E+03  0.20852010977E+03  0.81498449480E+02 0.  0.
          6    2    1    2  501    0 -0.87877675437E+02 -0.40559352373E+02  0.13989892936E+03  0.24103432664E+03  0.17075798452E+03 0.  0.
         24    2    5    5    0    0 -0.35437311668E+02 -0.82288321359E+02  0.12272815970E+03  0.17169296859E+03  0.79931867175E+02 0.  0.
          5    1    5    5  501    0 -0.52440363770E+02  0.41728968986E+02  0.17170769659E+02  0.69341358046E+02  0.47000000000E+01 0. -1.
        -11    1    6    6    0    0  0.19254446556E+01 -0.66610624073E+01 -0.11342213979E+02  0.13293716841E+02  0.00000000000E+00 0.  1.
         12    1    6    6    0    0 -0.37362756323E+02 -0.75627258951E+02  0.13407037368E+03  0.15839925175E+03  0.00000000000E+00 0. -1.
         -5    1    3    3    0  503  0.88790586557E+02  0.51999945484E+02  0.12946655085E+03  0.16544316359E+03  0.47000000000E+01 0.  1.
         11    1    4    4    0    0  0.38281491016E+02  0.67893958897E+01  0.97949337160E+02  0.10538330561E+03  0.00000000000E+00 0. -1.
        -12    1    4    4    0    0 -0.39194402136E+02 -0.18229989000E+02  0.93641159302E+02  0.10313680416E+03  0.00000000000E+00 0.  1.
</event>
<event>
12    1  0.8526130E-002  0.1966860E+03  0.7818608E-02  0.1153387E+00
         21   -1    0    0  503  502  0.00000000000E+00  0.00000000000E+00  0.13092956592E+03  0.13092956592E+03  0.00000000000E+00 0.  1.
         21   -1    0    0  501  503 -0.00000000000E+00 -0.00000000000E+00 -0.52405824566E+03  0.52405824566E+03  0.00000000000E+00 0.  1.
          6    2    1    2  501    0  0.68049753132E+02 -0.52625025943E+02 -0.41445140386E+03  0.45714943400E+03  0.17267158594E+03 0.  0.
         24    2    3    3    0    0  0.59879122296E+02 -0.10209031528E+03 -0.30488025096E+03  0.33656128531E+03  0.79458099549E+02 0.  0.
         -6    2    1    2    0  502 -0.68049753132E+02  0.52625025943E+02  0.21322724117E+02  0.19783837758E+03  0.17687623589E+03 0.  0.
        -24    2    5    5    0    0 -0.59317077191E+02 -0.25291800029E+01 -0.51349342626E+02  0.10606929047E+03  0.71337416518E+02 0.  0.
          5    1    3    3  501    0  0.81706308365E+01  0.49465289336E+02 -0.10957115289E+03  0.12058814869E+03  0.47000000000E+01 0. -1.
        -11    1    4    4    0    0  0.28246042475E+02  0.59808668307E+01 -0.46876208885E+02  0.55054415291E+02  0.00000000000E+00 0.  1.
         12    1    4    4    0    0  0.31633079821E+02 -0.10807118211E+03 -0.25800404208E+03  0.28150687002E+03  0.00000000000E+00 0. -1.
         -5    1    5    5    0  502 -0.87326759412E+01  0.55154205946E+02  0.72672066744E+02  0.91769087101E+02  0.47000000000E+01 0.  1.
         11    1    6    6    0    0 -0.18329856935E+02  0.28909219984E+02 -0.40957904853E+02  0.53378615805E+02  0.00000000000E+00 0. -1.
        -12    1    6    6    0    0 -0.40987220256E+02 -0.31438399987E+02 -0.10391437773E+02  0.52690674669E+02  0.00000000000E+00 0.  1.
</event>
<event>
12    1  0.8526130E-002  0.1933683E+03  0.7818608E-02  0.1157260E+00
         21   -1    0    0  503  502  0.00000000000E+00  0.00000000000E+00  0.47996221936E+03  0.47996221936E+03  0.00000000000E+00 0. -1.
         21   -1    0    0  501  503 -0.00000000000E+00 -0.00000000000E+00 -0.75872067094E+02  0.75872067094E+02  0.00000000000E+00 0. -1.
          6    2    1    2  501    0  0.80452446509E+02 -0.32330525742E+02  0.23213208018E+03  0.29706625787E+03  0.16384504835E+03 0.  0.
         24    2    3    3    0    0  0.37784440932E+02 -0.15920076078E+01  0.22730199925E+03  0.24404895052E+03  0.80395851374E+02 0.  0.
         -6    2    1    2    0  502 -0.80452446509E+02  0.32330525742E+02  0.17195807209E+03  0.25876802859E+03  0.17283939082E+03 0.  0.
        -24    2    5    5    0    0 -0.12085608789E+03  0.33825816900E+02  0.15550118568E+03  0.21486348164E+03  0.78964024237E+02 0.  0.
          5    1    3    3  501    0  0.42668005577E+02 -0.30738518134E+02  0.48300809296E+01  0.53017307352E+02  0.47000000000E+01 0. -1.
        -13    1    4    4    0    0 -0.17698637993E+02  0.21528635529E+02  0.88680558356E+02  0.92956793000E+02  0.00000000000E+00 0.  1.
         14    1    4    4    0    0  0.55483078925E+02 -0.23120643137E+02  0.13862144090E+03  0.15109215752E+03  0.00000000000E+00 0. -1.
         -5    1    5    5    0  502  0.40403641386E+02 -0.14952911574E+01  0.16456886407E+02  0.43904546952E+02  0.47000000000E+01 0.  1.
         13    1    6    6    0    0 -0.46655371660E+02 -0.24993105874E+02  0.46223239804E+02  0.70270669159E+02  0.00000000000E+00 0. -1.
        -14    1    6    6    0    0 -0.74200716235E+02  0.58818922774E+02  0.10927794588E+03  0.14459281248E+03  0.00000000000E+00 0.  1.
</event>
<event>
12    1  0.8526130E-002  0.2722338E+03  0.7818608E-02  0.1100025E+00
         21   -1    0    0  501  502  0.00000000000E+00  0.00000000000E+00  0.12509814375E+04  0.12509814375E+04  0.00000000000E+00 0.  1.
         21   -1    0    0  502  503 -0.00000000000E+00 -0.00000000000E+00 -0.61116438023E+02  0.61116438023E+02  0.00000000000E+00 0. -1.
         -6    2    1    2    0  503  0.97735627211E+02  0.18605519656E+03  0.47936887921E+03  0.55127648433E+03  0.17303887087E+03 0.  0.
        -24    2    3    3    0    0  0.20670475190E+02  0.13816513396E+03  0.19220750920E+03  0.25008511962E+03  0.77986971204E+02 0.  0.
          6    2    1    2  501    0 -0.97735627211E+02 -0.18605519656E+03  0.71049612029E+03  0.76082139121E+03  0.17284577917E+03 0.  0.
         24    2    5    5    0    0 -0.57005750012E+02 -0.15727059905E+03  0.67342997410E+03  0.69850393664E+03  0.80100703028E+02 0.  0.
          5    1    5    5  501    0 -0.40729877199E+02 -0.28784597511E+02  0.37066146193E+02  0.62317454570E+02  0.47000000000E+01 0. -1.
        -13    1    6    6    0    0 -0.85796450877E+01 -0.44062426153E+02  0.34213221004E+03  0.34506456911E+03  0.00000000000E+00 0.  1.
         14    1    6    6    0    0 -0.48426104924E+02 -0.11320817290E+03  0.33129776406E+03  0.35343936753E+03  0.00000000000E+00 0. -1.
         -5    1    3    3    0  503  0.77065152020E+02  0.47890062605E+02  0.28716137001E+03  0.30119136471E+03  0.47000000000E+01 0.  1.
         11    1    4    4    0    0  0.68401643174E+01  0.35553906252E+02  0.55427959585E+01  0.36627731089E+02  0.00000000000E+00 0. -1.
        -12    1    4    4    0    0  0.13830310873E+02  0.10261122771E+03  0.18666471324E+03  0.21345738854E+03  0.00000000000E+00 0.  1.
</event>
<event>
12    1  0.8526130E-002  0.2104763E+03  0.7818608E-02  0.1141383E+00
         21   -1    0    0  503  502  0.00000000000E+00  0.00000000000E+00  0.11801515827E+03  0.11801515827E+03  0.00000000000E+00 0.  1.
         21   -1    0    0  501  503 -0.00000000000E+00 -0.00000000000E+00 -0.46584294237E+03  0.46584294237E+03  0.00000000000E+00 0. -1.
          6    2    1    2  501    0 -0.10569566935E+03 -0.57182346748E+02 -0.30346683801E+03  0.36875769891E+03  0.17160630361E+03 0.  0.
         24    2    3    3    0    0  0.13045174074E+02 -0.28857901607E+02 -0.10448794770E+03  0.13527033121E+03  0.79858476310E+02 0.  0.
         -6    2    1    2    0  502  0.10569566935E+03  0.57182346748E+02 -0.44360946087E+02  0.21510040173E+03  0.17279726267E+03 0.  0.
        -24    2    5    5    0    0 -0.12371296202E+02  0.15247225068E+02 -0.14321345974E+01  0.82573666161E+02  0.80192471541E+02 0.  0.
          5    1    3    3  501    0 -0.11874084342E+03 -0.28324445141E+02 -0.19897889030E+03  0.23348736770E+03  0.47000000000E+01 0. -1.
        -13    1    4    4    0    0 -0.12655608680E+02 -0.23724092091E+01  0.91459217117E+01  0.15793689894E+02  0.00000000000E+00 0.  1.
         14    1    4    4    0    0  0.25700782755E+02 -0.26485492398E+02 -0.11363386941E+03  0.11947664132E+03  0.00000000000E+00 0. -1.
         -5    1    5    5    0  502  0.11806696555E+03  0.41935121680E+02 -0.42928811490E+02  0.13252673557E+03  0.47000000000E+01 0.  1.
         13    1    6    6    0    0 -0.39443972579E+02 -0.14756717752E+02  0.46768703331E+00  0.42116581328E+02  0.00000000000E+00 0. -1.
        -14    1    6    6    0    0  0.27072676377E+02  0.30003942821E+02 -0.18998216307E+01  0.40457084834E+02  0.00000000000E+00 0.  1.
</event>
<event>
12    1  0.8526130E-002  0.1947160E+03  0.7818608E-02  0.1154628E+00
         21   -1    0    0  501  502  0.00000000000E+00  0.00000000000E+00  0.26239053154E+02  0.26239053154E+02  0.00000000000E+00 0.  1.
         21   -1    0    0  502  503 -0.00000000000E+00 -0.00000000000E+00 -0.19720692876E+04  0.19720692876E+04  0.00000000000E+00 0.  1.
         -6    2    1    2    0  503 -0.15024122062E+02  0.87434883316E+02 -0.14923437075E+04  0.15047859499E+04  0.17152384903E+03 0.  0.
        -24    2    3    3    0    0 -0.24766785202E+01  0.81528374054E+02 -0.14831496200E+04  0.14874958824E+04  0.79108755138E+02 0.  0.
          6    2    1    2  501    0  0.15024122062E+02 -0.87434883316E+02 -0.45348652700E+03  0.49352239085E+03  0.17333129274E+03 0.  0.
         24    2    5    5    0    0  0.59586326127E+02 -0.97473528370E+02 -0.39546016041E+03  0.41952432571E+03  0.80995693703E+02 0.  0.
          5    1    5    5  501    0 -0.44562204065E+02  0.10038645054E+02 -0.58026366582E+02  0.73998065139E+02  0.47000000000E+01 0. -1.
        -13    1    6    6    0    0  0.53117600695E+02 -0.10477587361E+03 -0.27987726334E+03  0.30353046919E+03  0.00000000000E+00 0.  1.
         14    1    6    6    0    0  0.64687254326E+01  0.73023452413E+01 -0.11558289707E+03  0.11599385652E+03  0.00000000000E+00 0. -1.
         -5    1    3    3    0  503 -0.12547443542E+02  0.59065092619E+01 -0.91940875126E+01  0.17290067562E+02  0.47000000000E+01 0.  1.
         13    1    4    4    0    0  0.37344088584E+02  0.27473970195E+02 -0.57151265346E+03  0.57339001828E+03  0.00000000000E+00 0. -1.
        -14    1    4    4    0    0 -0.39820767105E+02  0.54054403859E+02 -0.91163696651E+03  0.91410586410E+03  0.00000000000E+00 0.  1.
</event>
<event>
12    1  0.8526130E-002  0.3079201E+03  0.7818608E-02  0.1081400E+00
         21   -1    0    0  501  502  0.00000000000E+00  0.00000000000E+00  0.10693035658E+04  0.10693035658E+04  0.00000000000E+00 0.  1.
         21   -1    0    0  502  503 -0.00000000000E+00 -0.00000000000E+00 -0.90116194745E+02  0.90116194745E+02  0.00000000000E+00 0. -1.
         -6    2    1    2    0  503 -0.21103249070E+03 -0.14222650746E+03  0.56648898532E+03  0.64476703465E+03  0.17335416617E+03 0.  0.
        -24    2    3    3    0    0 -0.36522891898E+02 -0.35356174150E+02  0.25878708906E+03  0.27520321719E+03  0.78626157250E+02 0.  0.
          6    2    1    2  501    0  0.21103249070E+03  0.14222650746E+03  0.41269838569E+03  0.51465272585E+03  0.17258151440E+03 0.  0.
         24    2    5    5    0    0  0.21703453661E+03  0.75805876799E+02  0.32724982802E+03  0.40615723866E+03  0.70857120573E+02 0.  0.
          5    1    5    5  501    0 -0.60020459045E+01  0.66420630666E+02  0.85448557673E+02  0.10849548719E+03  0.47000000000E+01 0. -1.
        -11    1    6    6    0    0  0.11133143930E+00  0.64103718995E+01  0.35306681500E+02  0.35884077543E+02  0.00000000000E+00 0.  1.
         12    1    6    6    0    0  0.21692320517E+03  0.69395504899E+02  0.29194314652E+03  0.37027316111E+03  0.00000000000E+00 0. -1.
         -5    1    3    3    0  503 -0.17450959880E+03 -0.10687033331E+03  0.30770189626E+03  0.36956381746E+03  0.47000000000E+01 0.  1.
         11    1    4    4    0    0 -0.39536962156E+02 -0.24421568224E+02  0.59044217722E+02  0.75138565447E+02  0.00000000000E+00 0. -1.
        -12    1    4    4    0    0  0.30140702578E+01 -0.10934605926E+02  0.19974287134E+03  0.20006465174E+03  0.00000000000E+00 0.  1.
</event>
<event>
12    1  0.8526130E-002  0.1830153E+03  0.7818608E-02  0.1166479E+00
         21   -1    0    0  503  502  0.00000000000E+00  0.00000000000E+00  0.73823614827E+03  0.73823614827E+03  0.00000000000E+00 0.  1.
         21   -1    0    0  501  503 -0.00000000000E+00 -0.00000000000E+00 -0.67672370696E+02  0.67672370696E+02  0.00000000000E+00 0.  1.
          6    2    1    2  501    0 -0.63859445545E+02 -0.35332577074E+01  0.91969348555E+02  0.19905918970E+03  0.16454691499E+03 0.  0.
         24    2    3    3    0    0 -0.10068907952E-01 -0.13411666313E+02 -0.93803523945E+01  0.78775451244E+02  0.77056523494E+02 0.  0.
         -6    2    1    2    0  502  0.63859445545E+02  0.35332577074E+01  0.57859442902E+03  0.60684932927E+03  0.17147618624E+03 0.  0.
        -24    2    5    5    0    0  0.32344300361E+02 -0.26686140133E+02  0.18015286651E+03  0.20599501020E+03  0.90667442196E+02 0.  0.
          5    1    3    3  501    0 -0.63849376638E+02  0.98784086058E+01  0.10134970095E+03  0.12028373845E+03  0.47000000000E+01 0. -1.
        -11    1    4    4    0    0 -0.30604604088E+02  0.14294396575E+02 -0.15292752689E+02  0.37078832905E+02  0.00000000000E+00 0.  1.
         12    1    4    4    0    0  0.30594535180E+02 -0.27706062888E+02  0.59124002945E+01  0.41696618339E+02  0.00000000000E+00 0. -1.
         -5    1    5    5    0  502  0.31515145184E+02  0.30219397840E+02  0.39844156251E+03  0.40085431908E+03  0.47000000000E+01 0.  1.
         11    1    6    6    0    0 -0.16224902767E+02  0.15994281660E+02  0.11809582322E+02  0.25661853991E+02  0.00000000000E+00 0. -1.
        -12    1    6    6    0    0  0.48569203128E+02 -0.42680421793E+02  0.16834328419E+03  0.18033315621E+03  0.00000000000E+00 0.  1.
</event>
<event>
12    1  0.8526130E-002  0.1960541E+03  0.7818608E-02  0.1153583E+00
         21   -1    0    0  503  502  0.00000000000E+00  0.00000000000E+00  0.22243174777E+02  0.22243174777E+02  0.00000000000E+00 0.  1.
         21   -1    0    0  501  503 -0.00000000000E+00 -0.00000000000E+00 -0.17185288599E+04  0.17185288599E+04  0.00000000000E+00 0.  1.
          6    2    1    2  501    0  0.70451227794E+02  0.64049050828E+02 -0.78800551640E+03  0.81202827263E+03  0.17138134457E+03 0.  0.
         24    2    3    3    0    0  0.22814650834E+02  0.74534281507E+02 -0.71808280256E+03  0.72664408535E+03  0.79327473346E+02 0.  0.
         -6    2    1    2    0  502 -0.70451227794E+02 -0.64049050828E+02 -0.90828016871E+03  0.92874376203E+03  0.16889776267E+03 0.  0.
        -24    2    5    5    0    0 -0.23329565906E+02  0.47077871644E+01 -0.22443284347E+03  0.23981908688E+03  0.81096617075E+02 0.  0.
          5    1    3    3  501    0  0.47636576960E+02 -0.10485230679E+02 -0.69922713834E+02  0.85384187276E+02  0.47000000000E+01 0. -1.
        -11    1    4    4    0    0 -0.17469881233E+02  0.67975522708E+02 -0.43188255996E+03  0.43754818482E+03  0.00000000000E+00 0.  1.
         12    1    4    4    0    0  0.40284532067E+02  0.65587587996E+01 -0.28620024260E+03  0.28909590053E+03  0.00000000000E+00 0. -1.
         -5    1    5    5    0  502 -0.47121661888E+02 -0.68756837992E+02 -0.68384732524E+03  0.68892467515E+03  0.47000000000E+01 0.  1.
         11    1    6    6    0    0 -0.51303016998E+02 -0.25767036330E+01 -0.10437642880E+03  0.11633175768E+03  0.00000000000E+00 0. -1.
        -12    1    6    6    0    0  0.27973451092E+02  0.72844907974E+01 -0.12005641466E+03  0.12348732920E+03  0.00000000000E+00 0.  1.
</event>
<event>
12    1  0.8526130E-002  0.2091639E+03  0.7818608E-02  0.1142255E+00
         21   -1    0    0  503  502  0.00000000000E+00  0.00000000000E+00  0.90411481789E+03  0.90411481789E+03  0.00000000000E+00 0.  1.
         21   -1    0    0  501  503 -0.00000000000E+00 -0.00000000000E+00 -0.27672735747E+03  0.27672735747E+03  0.00000000000E+00 0.  1.
          6    2    1    2  501    0 -0.37061249991E+02  0.11230370806E+03 -0.22264517731E+03  0.30548390462E+03  0.17252212004E+03 0.  0.
         24    2    3    3    0    0 -0.59688972930E+02  0.68664712745E+01 -0.10189334241E+03  0.14352057426E+03  0.81277180633E+02 0.  0.
         -6    2    1    2    0  502  0.37061249991E+02 -0.11230370806E+03  0.85003263773E+03  0.87535827075E+03  0.17236866846E+03 0.  0.
        -24    2    5    5    0    0  0.80540125628E+02 -0.38671609397E+02  0.56438130437E+03  0.57714547285E+03  0.81169174558E+02 0.  0.
          5    1    3    3  501    0  0.22627722940E+02  0.10543723679E+03 -0.12075183490E+03  0.16196333035E+03  0.47000000000E+01 0. -1.
        -11    1    4    4    0    0 -0.50689245701E+02  0.30135064325E+02 -0.10284706328E+03  0.11855395462E+03  0.00000000000E+00 0.  1.
         12    1    4    4    0    0 -0.89997272291E+01 -0.23268593051E+02  0.95372086732E+00  0.24966619640E+02  0.00000000000E+00 0. -1.
         -5    1    5    5    0  502 -0.43478875637E+02 -0.73632098668E+02  0.28565133336E+03  0.29821279790E+03  0.47000000000E+01 0.  1.
         13    1    6    6    0    0  0.30825350856E+02 -0.16227269739E+02  0.56728572139E+02  0.66570695021E+02  0.00000000000E+00 0. -1.
        -14    1    6    6    0    0  0.49714774772E+02 -0.22444339658E+02  0.50765273223E+03  0.51057477783E+03  0.00000000000E+00 0.  1.
</event>
<event>
12    1  0.8526130E-002  0.2289403E+03  0.7818608E-02  0.1127803E+00
         21   -1    0    0  503  502  0.00000000000E+00  0.00000000000E+00  0.26359211088E+03  0.26359211088E+03  0.00000000000E+00 0.  1.
         21   -1    0    0  501  503 -0.00000000000E+00 -0.00000000000E+00 -0.21757845982E+03  0.21757845982E+03  0.00000000000E+00 0.  1.
          6    2    1    2  501    0 -0.12347410523E+03  0.81670070935E+02  0.97420621788E+02  0.24880600808E+03  0.17463618456E+03 0.  0.
         24    2    3    3    0    0 -0.12551232649E+03  0.27524891773E+02  0.20050403777E+02  0.15423278032E+03  0.82914221135E+02 0.  0.
         -6    2    1    2    0  502  0.12347410523E+03 -0.81670070935E+02 -0.51406970724E+02  0.23236456262E+03  0.17156560896E+03 0.  0.
        -24    2    5    5    0    0  0.70848967839E+02 -0.88407164662E+02 -0.90609546354E+02  0.16623041522E+03  0.81160692738E+02 0.  0.
          5    1    3    3  501    0  0.20382212649E+01  0.54145179162E+02  0.77370218011E+02  0.94573227752E+02  0.47000000000E+01 0. -1.
        -11    1    4    4    0    0 -0.40763135559E+02  0.50049234599E+02  0.13146619991E+01  0.64562275678E+02  0.00000000000E+00 0.  1.
         12    1    4    4    0    0 -0.84749190933E+02 -0.22524342826E+02  0.18735741778E+02  0.89670504647E+02  0.00000000000E+00 0. -1.
         -5    1    5    5    0  502  0.52625137388E+02  0.67370937273E+01  0.39202575630E+02  0.66134147406E+02  0.47000000000E+01 0.  1.
         13    1    6    6    0    0 -0.81245107643E+01 -0.26622897287E+02  0.43003716496E+01  0.28165218469E+02  0.00000000000E+00 0. -1.
        -14    1    6    6    0    0  0.78973478603E+02 -0.61784267375E+02 -0.94909918004E+02  0.13806519675E+03  0.00000000000E+00 0.  1.
</event>
<event>
12    1  0.8526130E-002  0.2118715E+03  0.7818608E-02  0.1140183E+00
         21   -1    0    0  501  502  0.00000000000E+00  0.00000000000E+00  0.64092519903E+02  0.64092519903E+02  0.00000000000E+00 0.  1.
         21   -1    0    0  502  503 -0.00000000000E+00 -0.00000000000E+00 -0.10189596648E+04  0.10189596648E+04  0.00000000000E+00 0. -1.
         -6    2    1    2    0  503  0.56763216524E+01 -0.12365645330E+03 -0.78059500828E+03  0.80871605715E+03  0.17137664682E+03 0.  0.
        -24    2    3    3    0    0  0.54497724459E+02 -0.36400732507E+02 -0.51409679773E+03  0.52403996682E+03  0.77636036011E+02 0.  0.
          6    2    1    2  501    0 -0.56763216524E+01  0.12365645330E+03 -0.17427213661E+03  0.27433612754E+03  0.17194881275E+03 0.  0.
         24    2    5    5    0    0  0.28477968809E+01  0.11011340650E+03 -0.20076699184E+03  0.24302890686E+03  0.81379311375E+02 0.  0.
          5    1    5    5  501    0 -0.85241185333E+01  0.13543046794E+02  0.26494855229E+02  0.31307220682E+02  0.47000000000E+01 0. -1.
        -11    1    6    6    0    0  0.31208598560E+02  0.38284788439E+02 -0.36184174299E+02  0.61229046372E+02  0.00000000000E+00 0.  1.
         12    1    6    6    0    0 -0.28360801679E+02  0.71828618063E+02 -0.16458281754E+03  0.18179986049E+03  0.00000000000E+00 0. -1.
         -5    1    3    3    0  503 -0.48821402806E+02 -0.87255720789E+02 -0.26649821055E+03  0.28467609034E+03  0.47000000000E+01 0.  1.
         13    1    4    4    0    0  0.34813886310E+01 -0.28331368683E+00 -0.32221082134E+03  0.32222975301E+03  0.00000000000E+00 0. -1.
        -14    1    4    4    0    0  0.51016335828E+02 -0.36117418821E+02 -0.19188597638E+03  0.20181021381E+03  0.00000000000E+00 0.  1.
</event>
<event>
12    1  0.8526130E-002  0.3159982E+03  0.7818608E-02  0.1077529E+00
         21   -1    0    0  503  502  0.00000000000E+00  0.00000000000E+00  0.55246301988E+02  0.55246301988E+02  0.00000000000E+00 0.  1.
         21   -1    0    0  501  503 -0.00000000000E+00 -0.00000000000E+00 -0.18155463689E+04  0.18155463689E+04  0.00000000000E+00 0. -1.
          6    2    1    2  501    0 -0.11893726603E+03  0.23670691501E+03 -0.94706198575E+03  0.99838932787E+03  0.17227480455E+03 0.  0.
         24    2    3    3    0    0 -0.73238629510E+02  0.15119152989E+03 -0.38082785063E+03  0.42389439121E+03  0.80211143358E+02 0.  0.
         -6    2    1    2    0  502  0.11893726603E+03 -0.23670691501E+03 -0.81323808115E+03  0.87240334301E+03  0.17191619878E+03 0.  0.
        -24    2    5    5    0    0 -0.62006364582E+01 -0.63463285968E+02 -0.27360041785E+03  0.29196924056E+03  0.79516112986E+02 0.  0.
          5    1    3    3  501    0 -0.45698636517E+02  0.85515385115E+02 -0.56623413512E+03  0.57449493666E+03  0.47000000000E+01 0. -1.
        -13    1    4    4    0    0 -0.67649695241E+02  0.60742223094E+02 -0.14376960855E+03  0.17010525940E+03  0.00000000000E+00 0.  1.
         14    1    4    4    0    0 -0.55889342699E+01  0.90449306796E+02 -0.23705824208E+03  0.25378913181E+03  0.00000000000E+00 0. -1.
         -5    1    5    5    0  502  0.12513790249E+03 -0.17324362904E+03 -0.53963766329E+03  0.58043410245E+03  0.47000000000E+01 0.  1.
         11    1    6    6    0    0 -0.18410266822E+02  0.13526047469E+01 -0.11617174338E+02  0.21811148610E+02  0.00000000000E+00 0. -1.
        -12    1    6    6    0    0  0.12209630364E+02 -0.64815890714E+02 -0.26198324351E+03  0.27015809195E+03  0.00000000000E+00 0.  1.
</event>
<event>
12    1  0.8526130E-002  0.1792024E+03  0.7818608E-02  0.1170361E+00
         21   -1    0    0  503  502  0.00000000000E+00  0.00000000000E+00  0.24523384073E+03  0.24523384073E+03  0.00000000000E+00 0.  1.
         21   -1    0    0  501  503 -0.00000000000E+00 -0.00000000000E+00 -0.13381109790E+03  0.13381109790E+03  0.00000000000E+00 0.  1.
          6    2    1    2  501    0  0.30337402011E+02 -0.33146802765E+02  0.10111188161E+03  0.19954617791E+03  0.16606021806E+03 0.  0.
         24    2    3    3    0    0  0.23285476922E+01 -0.52833255002E+02  0.54883550262E+01  0.97870216351E+02  0.82168620770E+02 0.  0.
         -6    2    1    2    0  502 -0.30337402011E+02  0.33146802765E+02  0.10310861218E+02  0.17949876073E+03  0.17347744162E+03 0.  0.
        -24    2    5    5    0    0  0.85320850862E+01  0.63338186128E+02  0.51968135910E+02  0.11484757983E+03  0.80029726639E+02 0.  0.
          5    1    3    3  501    0  0.28008854319E+02  0.19686452237E+02  0.95623526586E+02  0.10167596156E+03  0.47000000000E+01 0. -1.
        -11    1    4    4    0    0 -0.26067962332E+02 -0.69471984206E+01  0.28466937037E+02  0.39219494264E+02  0.00000000000E+00 0.  1.
         12    1    4    4    0    0  0.28396510024E+02 -0.45886056581E+02 -0.22978582011E+02  0.58650722087E+02  0.00000000000E+00 0. -1.
         -5    1    5    5    0  502 -0.38869487097E+02 -0.30191383363E+02 -0.41657274691E+02  0.64651180896E+02  0.47000000000E+01 0.  1.
         11    1    6    6    0    0 -0.31810492615E+02  0.25846684395E+02  0.29068699579E+01  0.41090247354E+02  0.00000000000E+00 0. -1.
        -12    1    6    6    0    0  0.40342577701E+02  0.37491501733E+02  0.49061265952E+02  0.73757332480E+02  0.00000000000E+00 0.  1.
</event>
<event>
12    1  0.8526130E-002  0.2029575E+03  0.7818608E-02  0.1147584E+00
         21   -1    0    0  503  502  0.00000000000E+00  0.00000000000E+00  0.18078926848E+03  0.18078926848E+03  0.00000000000E+00 0. -1.
         21   -1    0    0  501  503 -0.00000000000E+00 -0.00000000000E+00 -0.24529985139E+03  0.24529985139E+03  0.00000000000E+00 0.  1.
          6    2    1    2  501    0 -0.81109552285E+02 -0.71541305406E+02 -0.91916745896E+02  0.22280129044E+03  0.17174052811E+03 0.  0.
         24    2    3    3    0    0  0.98726233790E+01  0.92490188934E+01 -0.45813358165E+02  0.92599734581E+02  0.79327385027E+02 0.  0.
         -6    2    1    2    0  502  0.81109552285E+02  0.71541305406E+02  0.27406162982E+02  0.20328782943E+03  0.16993506399E+03 0.  0.
        -24    2    5    5    0    0  0.11879599889E+03  0.76292564132E+02  0.29333275316E+02  0.16496490575E+03  0.80124493108E+02 0.  0.
          5    1    3    3  501    0 -0.90982175664E+02 -0.80790324299E+02 -0.46103387731E+02  0.13020155586E+03  0.47000000000E+01 0. -1.
        -13    1    4    4    0    0 -0.23294541770E+02 -0.41669487712E+00 -0.52476676827E+02  0.57416120748E+02  0.00000000000E+00 0.  1.
         14    1    4    4    0    0  0.33167165149E+02  0.96657137705E+01  0.66633186624E+01  0.35183613833E+02  0.00000000000E+00 0. -1.
         -5    1    5    5    0  502 -0.37686446605E+02 -0.47512587265E+01 -0.19271123340E+01  0.38322923677E+02  0.47000000000E+01 0.  1.
         11    1    6    6    0    0  0.26363898188E+02  0.37809912108E+01  0.38846660115E+02  0.47100042721E+02  0.00000000000E+00 0. -1.
        -12    1    6    6    0    0  0.92432100702E+02  0.72511572921E+02 -0.95133847988E+01  0.11786486303E+03  0.00000000000E+00 0.  1.
</event>
<event>
12    1  0.8526130E-002  0.2323971E+03  0.7818608E-02  0.1125055E+00
         21   -1    0    0  501  502  0.00000000000E+00  0.00000000000E+00  0.79432740190E+03  0.79432740190E+03  0.00000000000E+00 0. -1.
         21   -1    0    0  502  503 -0.00000000000E+00 -0.00000000000E+00 -0.56238154686E+03  0.56238154686E+03  0.00000000000E+00 0. -1.
         -6    2    1    2    0  503 -0.12447528547E+03  0.92977598648E+02 -0.52013697756E+03  0.56969369340E+03  0.17282794430E+03 0.  0.
        -24    2    3    3    0    0 -0.27757728118E+02 -0.16985138214E+02 -0.16757750099E+03  0.18790007910E+03  0.78519007244E+02 0.  0.
          6    2    1    2  501    0  0.12447528547E+03 -0.92977598648E+02  0.75208283260E+03  0.78701525536E+03  0.17212058139E+03 0.  0.
         24    2    5    5    0    0  0.15939952008E+02 -0.31034788128E+02  0.48508573005E+03  0.49218246690E+03  0.75618615937E+02 0.  0.
          5    1    5    5  501    0  0.10853533346E+03 -0.61942810520E+02  0.26699710254E+03  0.29483278846E+03  0.47000000000E+01 0. -1.
        -11    1    6    6    0    0  0.14270851538E+02  0.21862761866E+02  0.94974407180E+02  0.98497591743E+02  0.00000000000E+00 0.  1.
         12    1    6    6    0    0  0.16691004698E+01 -0.52897549993E+02  0.39011132287E+03  0.39368487516E+03  0.00000000000E+00 0. -1.
         -5    1    3    3    0  503 -0.96717557350E+02  0.10996273686E+03 -0.35255947657E+03  0.38179361430E+03  0.47000000000E+01 0.  1.
         13    1    4    4    0    0 -0.55027147350E+02 -0.83488665049E+01 -0.12190819782E+03  0.13401230993E+03  0.00000000000E+00 0. -1.
        -14    1    4    4    0    0  0.27269419233E+02 -0.86362717095E+01 -0.45669303174E+02  0.53887769176E+02  0.00000000000E+00 0.  1.
</event>
<event>
12    1  0.8526130E-002  0.1795912E+03  0.7818608E-02  0.1169141E+00
         21   -1    0    0  503  502  0.00000000000E+00  0.00000000000E+00  0.19255372035E+03  0.19255372035E+03  0.00000000000E+00 0.  1.
         21   -1    0    0  501  503 -0.00000000000E+00 -0.00000000000E+00 -0.12102597835E+04  0.12102597835E+04  0.00000000000E+00 0.  1.
          6    2    1    2  501    0 -0.81981995559E+01  0.34226222518E+02 -0.11602759650E+04  0.11735119728E+04  0.17219579137E+03 0.  0.
         24    2    3    3    0    0  0.55141796309E+02  0.30956253115E+02 -0.49883958814E+03  0.50902508925E+03  0.79162487860E+02 0.  0.
         -6    2    1    2    0  502  0.81981995559E+01 -0.34226222518E+02  0.14256990184E+03  0.22930153106E+03  0.17610897323E+03 0.  0.
        -24    2    5    5    0    0  0.23063576420E+01  0.40375599854E+02  0.30758579035E+02  0.94676096579E+02  0.79887200039E+02 0.  0.
          5    1    3    3  501    0 -0.63339995865E+02  0.32699694026E+01 -0.66143637687E+03  0.66448688356E+03  0.47000000000E+01 0. -1.
        -13    1    4    4    0    0  0.62222392243E+02  0.39836091292E+02 -0.48717269535E+03  0.49274311295E+03  0.00000000000E+00 0.  1.
         14    1    4    4    0    0 -0.70805959337E+01 -0.88798381769E+01 -0.11666892785E+02  0.16281976295E+02  0.00000000000E+00 0. -1.
         -5    1    5    5    0  502  0.58918419140E+01 -0.74601822371E+02  0.11181132280E+03  0.13462543448E+03  0.47000000000E+01 0.  1.
         13    1    6    6    0    0  0.36163795470E+02  0.22054383230E+02  0.36297714799E+02  0.55782972510E+02  0.00000000000E+00 0. -1.
        -14    1    6    6    0    0 -0.33857437828E+02  0.18321216624E+02 -0.55391357642E+01  0.38893124069E+02  0.00000000000E+00 0.  1.
</event>
<event>
12    1  0.8526130E-002  0.1965918E+03  0.7818608E-02  0.1153183E+00
         21   -1    0    0  503  502  0.00000000000E+00  0.00000000000E+00  0.14060042064E+04  0.14060042064E+04  0.00000000000E+00 0.  1.
         21   -1    0    0  501  503 -0.00000000000E+00 -0.00000000000E+00 -0.48603963908E+02  0.48603963908E+02  0.00000000000E+00 0. -1.
          6    2    1    2  501    0 -0.81963839067E+02  0.42847110042E+02  0.19303529668E+03  0.27376352402E+03  0.17067482405E+03 0.  0.
         24    2    3    3    0    0 -0.64175601431E+02 -0.30721211605E+02  0.53063659315E+02  0.11456908751E+03  0.72443241311E+02 0.  0.
         -6    2    1    2    0  502  0.81963839067E+02 -0.42847110042E+02  0.11643649458E+04  0.11808446463E+04  0.17347739301E+03 0.  0.
        -24    2    5    5    0    0 -0.72305149499E+00 -0.82053693088E+01  0.25854823878E+03  0.27059019351E+03  0.79397796933E+02 0.  0.
          5    1    3    3  501    0 -0.17788237636E+02  0.73568321647E+02  0.13997163737E+03  0.15919443651E+03  0.47000000000E+01 0. -1.
        -13    1    4    4    0    0 -0.13654444441E+02 -0.30092661027E+01 -0.18182838850E+02  0.22937200442E+02  0.00000000000E+00 0.  1.
         14    1    4    4    0    0 -0.50521156991E+02 -0.27711945502E+02  0.71246498164E+02  0.91631887069E+02  0.00000000000E+00 0. -1.
         -5    1    5    5    0  502  0.82686890562E+02 -0.34641740733E+02  0.90581670703E+03  0.91025445278E+03  0.47000000000E+01 0.  1.
         13    1    6    6    0    0 -0.39991381835E+02 -0.64674666856E+01  0.12953834806E+03  0.13572517219E+03  0.00000000000E+00 0. -1.
        -14    1    6    6    0    0  0.39268330340E+02 -0.17379026233E+01  0.12900989072E+03  0.13486502132E+03  0.00000000000E+00 0.  1.
</event>
<event>
12    1  0.8526130E-002  0.2232845E+03  0.7818608E-02  0.1131793E+00
         21   -1    0    0  503  502  0.00000000000E+00  0.00000000000E+00  0.17957802296E+03  0.17957802296E+03  0.00000000000E+00 0. -1.
         21   -1    0    0  501  503 -0.00000000000E+00 -0.00000000000E+00 -0.27612123236E+03  0.27612123236E+03  0.00000000000E+00 0.  1.
          6    2    1    2  501    0 -0.13563023524E+03 -0.52836287710E+02 -0.59988116302E+02  0.22944218441E+03  0.16690688385E+03 0.  0.
         24    2    3    3    0    0 -0.14158337696E+03 -0.80840021555E+02 -0.75751166547E+02  0.19642381439E+03  0.79139837694E+02 0.  0.
         -6    2    1    2    0  502  0.13563023524E+03  0.52836287710E+02 -0.36555093097E+02  0.22625707091E+03  0.16931849661E+03 0.  0.
        -24    2    5    5    0    0  0.15182468544E+03  0.16942290849E+02 -0.52376611493E+00  0.17267549057E+03  0.80490834158E+02 0.  0.
          5    1    3    3  501    0  0.59531417133E+01  0.28003733846E+02  0.15763050245E+02  0.33018370017E+02  0.47000000000E+01 0. -1.
        -11    1    4    4    0    0 -0.14852903288E+01 -0.45362694507E+01 -0.30120601007E+02  0.30496465909E+02  0.00000000000E+00 0.  1.
         12    1    4    4    0    0 -0.14009808663E+03 -0.76303752105E+02 -0.45630565540E+02  0.16592734848E+03  0.00000000000E+00 0. -1.
         -5    1    5    5    0  502 -0.16194450196E+02  0.35893996861E+02 -0.36031326982E+02  0.53581580341E+02  0.47000000000E+01 0.  1.
         11    1    6    6    0    0  0.61900678832E+02  0.21083250610E+02  0.37015960798E+02  0.75142390499E+02  0.00000000000E+00 0. -1.
        -12    1    6    6    0    0  0.89924006607E+02 -0.41409597611E+01 -0.37539726913E+02  0.97533100067E+02  0.00000000000E+00 0.  1.
</event>
<event>
12    1  0.8526130E-002  0.1878065E+03  0.7818608E-02  0.1160544E+00
         21   -1    0    0  503  502  0.00000000000E+00  0.00000000000E+00  0.20975013073E+03  0.20975013073E+03  0.00000000000E+00 0.  1.
         21   -1    0    0  501  503 -0.00000000000E+00 -0.00000000000E+00 -0.17519570888E+03  0.17519570888E+03  0.00000000000E+00 0.  1.
          6    2    1    2  501    0  0.74917612251E+02  0.55547761411E+01  0.56779517567E+02  0.19582881955E+03  0.17170180194E+03 0.  0.
         24    2    3    3    0    0  0.10156837069E+03  0.35033142204E+02  0.73088752532E+02  0.15261634292E+03  0.80039536494E+02 0.  0.
         -6    2    1    2    0  502 -0.74917612251E+02 -0.55547761411E+01 -0.22225095720E+02  0.18911702006E+03  0.17212724431E+03 0.  0.
        -24    2    5    5    0    0 -0.14989822143E+02  0.42178272705E+02  0.30550862055E+02  0.95965660980E+02  0.79198178380E+02 0.  0.
          5    1    3    3  501    0 -0.26650758442E+02 -0.29478366063E+02 -0.16309234965E+02  0.43212476629E+02  0.47000000000E+01 0. -1.
        -11    1    4    4    0    0  0.67834396184E+02  0.61217690760E+01  0.12164614390E+01  0.68120930269E+02  0.00000000000E+00 0.  1.
         12    1    4    4    0    0  0.33733974509E+02  0.28911373128E+02  0.71872291093E+02  0.84495412653E+02  0.00000000000E+00 0. -1.
         -5    1    5    5    0  502 -0.59927790107E+02 -0.47733048846E+02 -0.52775957775E+02  0.93151359079E+02  0.47000000000E+01 0.  1.
         11    1    6    6    0    0  0.46224933092E+01  0.14058821558E+02  0.52972757537E+02  0.55001190433E+02  0.00000000000E+00 0. -1.
        -12    1    6    6    0    0 -0.19612315453E+02  0.28119451147E+02 -0.22421895482E+02  0.40964470547E+02  0.00000000000E+00 0.  1.
</event>
<event>
12    1  0.8526130E-002  0.2269462E+03  0.7818608E-02  0.1128882E+00
         21   -1    0    0  501  502  0.00000000000E+00  0.00000000000E+00  0.88654098105E+02  0.88654098105E+02  0.00000000000E+00 0. -1.
         21   -1    0    0  502  503 -0.00000000000E+00 -0.00000000000E+00 -0.73917818063E+03  0.73917818063E+03  0.00000000000E+00 0.  1.
         -6    2    1    2    0  503 -0.56653362876E+02  0.13664144433E+03 -0.51716630550E+03  0.56460450985E+03  0.17157149285E+03 0.  0.
        -24    2    3    3    0    0 -0.70200260039E+01  0.14899498926E+03 -0.34306725185E+03  0.38308688348E+03  0.82532620284E+02 0.  0.
          6    2    1    2  501    0  0.56653362876E+02 -0.13664144433E+03 -0.13335777702E+03  0.26322776888E+03  0.17211645414E+03 0.  0.
         24    2    5    5    0    0 -0.17318404430E+02 -0.86837011960E+02 -0.13080354292E+03  0.17389178535E+03  0.72719958701E+02 0.  0.
          5    1    5    5  501    0  0.73971767306E+02 -0.49804432374E+02 -0.25542341027E+01  0.89335983536E+02  0.47000000000E+01 0. -1.
        -13    1    6    6    0    0 -0.27757101981E+02 -0.44217475422E+01 -0.16511695961E+02  0.32598231014E+02  0.00000000000E+00 0.  1.
         14    1    6    6    0    0  0.10438697551E+02 -0.82415264418E+02 -0.11429184696E+03  0.14129355433E+03  0.00000000000E+00 0. -1.
         -5    1    3    3    0  503 -0.49633336872E+02 -0.12353544923E+02 -0.17409905365E+03  0.18151762637E+03  0.47000000000E+01 0.  1.
         11    1    4    4    0    0  0.15543095552E+02  0.90882973857E+01 -0.88428497543E+01  0.20059435697E+02  0.00000000000E+00 0. -1.
        -12    1    4    4    0    0 -0.22563121556E+02  0.13990669187E+03 -0.33422440210E+03  0.36302744778E+03  0.00000000000E+00 0.  1.
</event>
<event>
12    1  0.8526130E-002  0.2050268E+03  0.7818608E-02  0.1148762E+00
         21   -1    0    0  501  502  0.00000000000E+00  0.00000000000E+00  0.35396105283E+02  0.35396105283E+02  0.00000000000E+00 0.  1.
         21   -1    0    0  502  503 -0.00000000000E+00 -0.00000000000E+00 -0.12092084056E+04  0.12092084056E+04  0.00000000000E+00 0.  1.
         -6    2    1    2    0  503  0.17091245877E+02 -0.77305119349E+02 -0.79230829726E+03  0.81840603240E+03  0.18912377906E+03 0.  0.
        -24    2    3    3    0    0 -0.26227165139E+02 -0.98679248209E+02 -0.34306880280E+03  0.36655256999E+03  0.78988131328E+02 0.  0.
          6    2    1    2  501    0 -0.17091245877E+02  0.77305119349E+02 -0.38150400309E+03  0.42619847851E+03  0.17271840246E+03 0.  0.
         24    2    5    5    0    0 -0.38689214993E+02 -0.19550086066E+02 -0.19573442797E+03  0.21553327463E+03  0.79142687327E+02 0.  0.
          5    1    5    5  501    0  0.21597969115E+02  0.96855205415E+02 -0.18576957512E+03  0.21066520388E+03  0.47000000000E+01 0. -1.
        -11    1    6    6    0    0 -0.14227790115E+02  0.23083392279E+02 -0.13351759737E+03  0.13624324503E+03  0.00000000000E+00 0.  1.
         12    1    6    6    0    0 -0.24461424878E+02 -0.42633478345E+02 -0.62216830602E+02  0.79290029594E+02  0.00000000000E+00 0. -1.
         -5    1    3    3    0  503  0.43318411016E+02  0.21374128860E+02 -0.44923949445E+03  0.45185346241E+03  0.47000000000E+01 0.  1.
         11    1    4    4    0    0 -0.37155935930E+02 -0.12540251005E+02 -0.72965696505E+02  0.82836069056E+02  0.00000000000E+00 0. -1.
        -12    1    4    4    0    0  0.10928770791E+02 -0.86138997204E+02 -0.27010310630E+03  0.28371650093E+03  0.00000000000E+00 0.  1.
</event>
<event>
12    1  0.8526130E-002  0.1815556E+03  0.7818608E-02  0.1166463E+00
         21   -1    0    0  503  502  0.00000000000E+00  0.00000000000E+00  0.56448938768E+02  0.56448938768E+02  0.00000000000E+00 0. -1.
         21   -1    0    0  501  503 -0.00000000000E+00 -0.00000000000E+00 -0.58378623099E+03  0.58378623099E+03  0.00000000000E+00 0. -1.
          6    2    1    2  501    0  0.64819403440E+01  0.56396570075E+02 -0.24466615677E+03  0.30428070109E+03  0.17176329096E+03 0.  0.
         24    2    3    3    0    0 -0.59702711191E+02  0.45149749882E+02 -0.17962802022E+03  0.21069144814E+03  0.80757334222E+02 0.  0.
         -6    2    1    2    0  502 -0.64819403440E+01 -0.56396570075E+02 -0.28267113545E+03  0.33595446867E+03  0.17245244426E+03 0.  0.
        -24    2    5    5    0    0 -0.14177346460E+02 -0.92702194215E+02 -0.13309094502E+03  0.18176743617E+03  0.80817740882E+02 0.  0.
          5    1    3    3  501    0  0.66184651536E+02  0.11246820193E+02 -0.65038136550E+02  0.93589252958E+02  0.47000000000E+01 0. -1.
        -11    1    4    4    0    0 -0.15957656627E+02  0.60793543590E+02 -0.90548146643E+02  0.11022462795E+03  0.00000000000E+00 0.  1.
         12    1    4    4    0    0 -0.43745054564E+02 -0.15643793708E+02 -0.89079873579E+02  0.10046682018E+03  0.00000000000E+00 0. -1.
         -5    1    5    5    0  502  0.76954061161E+01  0.36305624140E+02 -0.14958019043E+03  0.15418703250E+03  0.47000000000E+01 0.  1.
         13    1    6    6    0    0 -0.46281918676E+01 -0.53380173021E+02 -0.13067185459E+03  0.14123029638E+03  0.00000000000E+00 0. -1.
        -14    1    6    6    0    0 -0.95491545925E+01 -0.39322021193E+02 -0.24190904244E+01  0.40537139794E+02  0.00000000000E+00 0.  1.
</event>
<event>
12    1  0.8526130E-002  0.3748439E+03  0.7818608E-02  0.1053042E+00
         21   -1    0    0  503  502  0.00000000000E+00  0.00000000000E+00  0.98986422837E+03  0.98986422837E+03  0.00000000000E+00 0. -1.
         21   -1    0    0  501  503 -0.00000000000E+00 -0.00000000000E+00 -0.23859702048E+03  0.23859702048E+03  0.00000000000E+00 0.  1.
          6    2    1    2  501    0 -0.25786856740E+03 -0.20798724322E+03 -0.16218020712E+02  0.37519458504E+03  0.17536550701E+03 0.  0.
         24    2    3    3    0    0 -0.20192549015E+03 -0.97582632518E+02  0.34201045847E+02  0.24146733191E+03  0.82707237298E+02 0.  0.
         -6    2    1    2    0  502  0.25786856740E+03  0.20798724322E+03  0.76748522860E+03  0.85326666381E+03  0.17110094114E+03 0.  0.
        -24    2    5    5    0    0  0.25605280085E+03  0.13661450098E+03  0.60699393397E+03  0.67754839216E+03  0.80022678872E+02 0.  0.
          5    1    3    3  501    0 -0.55943077259E+02 -0.11040461070E+03 -0.50419066559E+02  0.13372725313E+03  0.47000000000E+01 0. -1.
        -13    1    4    4    0    0 -0.67030922122E+02 -0.51008258198E+02 -0.23634384773E+02  0.87484690481E+02  0.00000000000E+00 0.  1.
         14    1    4    4    0    0 -0.13489456802E+03 -0.46574374320E+02  0.57835430620E+02  0.15398264143E+03  0.00000000000E+00 0. -1.
         -5    1    5    5    0  502  0.18157665575E+01  0.71372742239E+02  0.16049129463E+03  0.17571827166E+03  0.47000000000E+01 0.  1.
         13    1    6    6    0    0  0.14559360195E+03  0.91711900870E+02  0.43918728408E+03  0.47169273917E+03  0.00000000000E+00 0. -1.
        -14    1    6    6    0    0  0.11045919889E+03  0.44902600108E+02  0.16780664990E+03  0.20585565298E+03  0.00000000000E+00 0.  1.
</event>
<event>
12    1  0.8526130E-002  0.2642797E+03  0.7818608E-02  0.1104731E+00
         21   -1    0    0  503  502  0.00000000000E+00  0.00000000000E+00  0.12083013817E+04  0.12083013817E+04  0.00000000000E+00 0. -1.
         21   -1    0    0  501  503 -0.00000000000E+00 -0.00000000000E+00 -0.80969202363E+02  0.80969202363E+02  0.00000000000E+00 0.  1.
          6    2    1    2  501    0  0.13644615359E+03  0.14768819337E+03  0.90924770548E+03  0.94662704390E+03  0.17012352876E+03 0.  0.
         24    2    3    3    0    0  0.12408192920E+03  0.17321553001E+03  0.86001242786E+03  0.88961194482E+03  0.79925536005E+02 0.  0.
         -6    2    1    2    0  502 -0.13644615359E+03 -0.14768819337E+03  0.21808447383E+03  0.34264354013E+03  0.17150627563E+03 0.  0.
        -24    2    5    5    0    0 -0.32648539957E-02 -0.55890630272E+02  0.59966365887E+02  0.11446185696E+03  0.79886100778E+02 0.  0.
          5    1    3    3  501    0  0.12364224392E+02 -0.25527336642E+02  0.49235277618E+02  0.57015099079E+02  0.47000000000E+01 0. -1.
        -13    1    4    4    0    0  0.25998481192E+02  0.72659604661E+02  0.19079174022E+03  0.20580774356E+03  0.00000000000E+00 0.  1.
         14    1    4    4    0    0  0.98083448007E+02  0.10055592535E+03  0.66922068764E+03  0.68380420126E+03  0.00000000000E+00 0. -1.
         -5    1    5    5    0  502 -0.13644288874E+03 -0.91797563094E+02  0.15811810794E+03  0.22818168317E+03  0.47000000000E+01 0.  1.
         13    1    6    6    0    0  0.33895910768E+02 -0.41274787803E+02  0.55915369839E+02  0.77324442832E+02  0.00000000000E+00 0. -1.
        -14    1    6    6    0    0 -0.33899175622E+02 -0.14615842469E+02  0.40509960474E+01  0.37137414125E+02  0.00000000000E+00 0.  1.
</event>
<event>
12    1  0.8526130E-002  0.2135394E+03  0.7818608E-02  0.1140548E+00
         21   -1    0    0  501  502  0.00000000000E+00  0.00000000000E+00  0.71419402588E+02  0.71419402588E+02  0.00000000000E+00 0. -1.
         21   -1    0    0  502  503 -0.00000000000E+00 -0.00000000000E+00 -0.62272144790E+03  0.62272144790E+03  0.00000000000E+00 0. -1.
         -6    2    1    2    0  503 -0.10680417487E+03  0.28083845024E+02 -0.31485565030E+03  0.37554082654E+03  0.17233977415E+03 0.  0.
        -24    2    3    3    0    0 -0.77118620675E+02  0.37546237594E+02 -0.32506277443E+03  0.34241916619E+03  0.65023660669E+02 0.  0.
          6    2    1    2  501    0  0.10680417487E+03 -0.28083845024E+02 -0.23644639501E+03  0.31860002394E+03  0.18276554221E+03 0.  0.
         24    2    5    5    0    0 -0.18909185796E+02  0.67786260455E+00 -0.11948249492E+03  0.14443421558E+03  0.78912351593E+02 0.  0.
          5    1    5    5  501    0  0.12571336067E+03 -0.28761707628E+02 -0.11696390010E+03  0.17416580836E+03  0.47000000000E+01 0. -1.
        -13    1    6    6    0    0 -0.21423750396E+02 -0.96893050006E+01 -0.12839693508E+03  0.13053211349E+03  0.00000000000E+00 0.  1.
         14    1    6    6    0    0  0.25145646001E+01  0.10367167605E+02  0.89144401640E+01  0.13902102097E+02  0.00000000000E+00 0. -1.
         -5    1    3    3    0  503 -0.29685554200E+02 -0.94623925702E+01  0.10207124129E+02  0.33121660349E+02  0.47000000000E+01 0.  1.
         11    1    4    4    0    0 -0.74497460585E+02  0.80286762244E+01 -0.26581480154E+03  0.27617356860E+03  0.00000000000E+00 0. -1.
        -12    1    4    4    0    0 -0.26211600897E+01  0.29517561369E+02 -0.59247972889E+02  0.66245597596E+02  0.00000000000E+00 0.  1.
</event>
<event>
12    1  0.8526130E-002  0.2248133E+03  0.7818608E-02  0.1130386E+00
         21   -1    0    0  503  502  0.00000000000E+00  0.00000000000E+00  0.19302675696E+03  0.19302675696E+03  0.00000000000E+00 0. -1.
         21   -1    0    0  501  503 -0.00000000000E+00 -0.00000000000E+00 -0.87544707394E+03  0.87544707394E+03  0.00000000000E+00 0. -1.
          6    2    1    2  501    0  0.14463429237E+03  0.11411357478E+01 -0.78852141712E+03  0.81988087972E+03  0.17180876276E+03 0.  0.
         24    2    3    3    0    0  0.42359350669E+02 -0.29072736171E+02 -0.56955611871E+03  0.57628093378E+03  0.71175864602E+02 0.  0.
         -6    2    1    2    0  502 -0.14463429237E+03 -0.11411357478E+01  0.10610110014E+03  0.24859295118E+03  0.17210645312E+03 0.  0.
        -24    2    5    5    0    0 -0.16080407095E+03  0.36949632780E+02  0.82420384147E+02  0.20068434344E+03  0.79106645612E+02 0.  0.
          5    1    3    3  501    0  0.10227494170E+03  0.30213871918E+02 -0.21896529841E+03  0.24359994594E+03  0.47000000000E+01 0. -1.
        -11    1    4    4    0    0 -0.11616903143E+02 -0.29198266396E+02 -0.27800961660E+03  0.27977998163E+03  0.00000000000E+00 0.  1.
         12    1    4    4    0    0  0.53976253812E+02  0.12553022536E+00 -0.29154650211E+03  0.29650095215E+03  0.00000000000E+00 0. -1.
         -5    1    5    5    0  502  0.16169778581E+02 -0.38090768528E+02  0.23680715992E+02  0.47908607747E+02  0.47000000000E+01 0.  1.
         13    1    6    6    0    0 -0.32747870048E+02 -0.23766034849E+02  0.26284864617E+02  0.48250818781E+02  0.00000000000E+00 0. -1.
        -14    1    6    6    0    0 -0.12805620090E+03  0.60715667629E+02  0.56135519531E+02  0.15243352466E+03  0.00000000000E+00 0.  1.
</event>
<event>
12    1  0.8526130E-002  0.3707546E+03  0.7818608E-02  0.1054496E+00
         21   -1    0    0  503  502  0.00000000000E+00  0.00000000000E+00  0.99422317908E+03  0.99422317908E+03  0.00000000000E+00 0.  1.
         21   -1    0    0  501  503 -0.00000000000E+00 -0.00000000000E+00 -0.24167282300E+03  0.24167282300E+03  0.00000000000E+00 0. -1.
          6    2    1    2  501    0 -0.26501625408E+03 -0.19336084363E+03 -0.28372034522E+02  0.37183858587E+03  0.17273369915E+03 0.  0.
         24    2    3    3    0    0 -0.12275170544E+03 -0.38360041100E+02  0.24423326208E+02  0.15487340272E+03  0.82763506839E+02 0.  0.
         -6    2    1    2    0  502  0.26501625408E+03  0.19336084363E+03  0.78092239060E+03  0.86405741621E+03  0.17068511240E+03 0.  0.
        -24    2    5    5    0    0  0.20319977271E+03  0.12809169599E+03  0.40570258664E+03  0.47819043099E+03  0.79836515912E+02 0.  0.
          5    1    3    3  501    0 -0.14226454864E+03 -0.15500080253E+03 -0.52795360730E+02  0.21696518315E+03  0.47000000000E+01 0. -1.
        -11    1    4    4    0    0 -0.48212492072E+02  0.11004323594E+02  0.40642899020E+02  0.64010817604E+02  0.00000000000E+00 0.  1.
         12    1    4    4    0    0 -0.74539213368E+02 -0.49364364694E+02 -0.16219572812E+02  0.90862585113E+02  0.00000000000E+00 0. -1.
         -5    1    5    5    0  502  0.61816481376E+02  0.65269147637E+02  0.37521980396E+03  0.38586698522E+03  0.47000000000E+01 0.  1.
         11    1    6    6    0    0  0.36636720286E+01  0.26855746523E+02  0.66795233539E+02  0.72085066675E+02  0.00000000000E+00 0. -1.
        -12    1    6    6    0    0  0.19953610068E+03  0.10123594947E+03  0.33890735310E+03  0.40610536432E+03  0.00000000000E+00 0.  1.
</event>
<event>
12    1  0.8526130E-002  0.1732938E+03  0.7818608E-02  0.1174549E+00
         21   -1    0    0  501  502  0.00000000000E+00  0.00000000000E+00  0.55264856182E+02  0.55264856182E+02  0.00000000000E+00 0. -1.
         21   -1    0    0  502  503 -0.00000000000E+00 -0.00000000000E+00 -0.88396211641E+03  0.88396211641E+03  0.00000000000E+00 0. -1.
         -6    2    1    2    0  503  0.75950191293E+00  0.15199321527E+02 -0.70659650421E+03  0.72753650503E+03  0.17262430352E+03 0.  0.
        -24    2    3    3    0    0 -0.11432623575E+02 -0.19967954327E+02 -0.66775348197E+03  0.67353413849E+03  0.84994699505E+02 0.  0.
          6    2    1    2  501    0 -0.75950191293E+00 -0.15199321527E+02 -0.12210075602E+03  0.21169046757E+03  0.17225754910E+03 0.  0.
         24    2    5    5    0    0 -0.46559571537E+02  0.30437998616E+02 -0.45334839220E+02  0.11121406562E+03  0.84965023875E+02 0.  0.
          5    1    5    5  501    0  0.45800069624E+02 -0.45637320143E+02 -0.76765916798E+02  0.10047640195E+03  0.47000000000E+01 0. -1.
        -11    1    6    6    0    0 -0.28594978163E+02  0.39739956737E+02 -0.66078313870E+02  0.82239166469E+02  0.00000000000E+00 0.  1.
         12    1    6    6    0    0 -0.17964593373E+02 -0.93019581216E+01  0.20743474650E+02  0.28974899146E+02  0.00000000000E+00 0. -1.
         -5    1    3    3    0  503  0.12192125488E+02  0.35167275855E+02 -0.38843022240E+02  0.54002366538E+02  0.47000000000E+01 0.  1.
         11    1    4    4    0    0 -0.87755557507E+01  0.11104957469E+02 -0.58386129342E+03  0.58403282477E+03  0.00000000000E+00 0. -1.
        -12    1    4    4    0    0 -0.26570678246E+01 -0.31072911796E+02 -0.83892188555E+02  0.89501313720E+02  0.00000000000E+00 0.  1.
</event>
<event>
12    1  0.8526130E-002  0.2024029E+03  0.7818608E-02  0.1147801E+00
         21   -1    0    0  501  502  0.00000000000E+00  0.00000000000E+00  0.58027015998E+03  0.58027015998E+03  0.00000000000E+00 0.  1.
         21   -1    0    0  502  503 -0.00000000000E+00 -0.00000000000E+00 -0.71938110273E+02  0.71938110273E+02  0.00000000000E+00 0. -1.
         -6    2    1    2    0  503 -0.81087398709E+02  0.68335406743E+02  0.30043087852E+03  0.36205343108E+03  0.17198569749E+03 0.  0.
        -24    2    3    3    0    0 -0.21154156446E+02  0.35481690890E+01  0.43267545156E+02  0.90126143518E+02  0.76095686099E+02 0.  0.
          6    2    1    2  501    0  0.81087398709E+02 -0.68335406743E+02  0.20790117119E+03  0.29015483918E+03  0.17240081112E+03 0.  0.
         24    2    5    5    0    0  0.69366545638E+01 -0.38582486732E+02  0.18766654535E+03  0.20760122515E+03  0.79641766564E+02 0.  0.
          5    1    5    5  501    0  0.74150744145E+02 -0.29752920010E+02  0.20234625839E+02  0.82553614029E+02  0.47000000000E+01 0. -1.
        -13    1    6    6    0    0 -0.54963818862E+01  0.11446866215E+02 -0.29200094434E+00  0.12701426083E+02  0.00000000000E+00 0.  1.
         14    1    6    6    0    0  0.12433036450E+02 -0.50029352947E+02  0.18795854629E+03  0.19489979907E+03  0.00000000000E+00 0. -1.
         -5    1    3    3    0  503 -0.59933242263E+02  0.64787237654E+02  0.25716333337E+03  0.27192728756E+03  0.47000000000E+01 0.  1.
         13    1    4    4    0    0 -0.14718666210E+02  0.14531927843E+02 -0.18079906867E+02  0.27471787240E+02  0.00000000000E+00 0. -1.
        -14    1    4    4    0    0 -0.64354902361E+01 -0.10983758754E+02  0.61347452023E+02  0.62654356278E+02  0.00000000000E+00 0.  1.
</event>
<event>
12    1  0.8526130E-002  0.1873293E+03  0.7818608E-02  0.1161066E+00
         21   -1    0    0  501  502  0.00000000000E+00  0.00000000000E+00  0.27902318710E+03  0.27902318710E+03  0.00000000000E+00 0.  1.
         21   -1    0    0  502  503 -0.00000000000E+00 -0.00000000000E+00 -0.20164063093E+03  0.20164063093E+03  0.00000000000E+00 0.  1.
         -6    2    1    2    0  503  0.68065237401E+01  0.72172184732E+02 -0.10927048998E+03  0.21621793249E+03  0.17191568089E+03 0.  0.
        -24    2    3    3    0    0  0.82281723505E+01  0.27092062111E+02  0.11431422481E+02  0.87278876300E+02  0.81763330281E+02 0.  0.
          6    2    1    2  501    0 -0.68065237401E+01 -0.72172184732E+02  0.18665304615E+03  0.26444588554E+03  0.17273422859E+03 0.  0.
         24    2    5    5    0    0 -0.13432939902E+02  0.21745224731E+02  0.47715611951E+02  0.96546839045E+02  0.79945067595E+02 0.  0.
          5    1    5    5  501    0  0.66264161616E+01 -0.93917409463E+02  0.13893743420E+03  0.16789904649E+03  0.47000000000E+01 0. -1.
        -13    1    6    6    0    0 -0.44181987568E+02  0.17232390655E+01  0.38706280856E+02  0.58763881390E+02  0.00000000000E+00 0.  1.
         14    1    6    6    0    0  0.30749047666E+02  0.20021985665E+02  0.90093310948E+01  0.37782957655E+02  0.00000000000E+00 0. -1.
         -5    1    3    3    0  503 -0.14216486104E+01  0.45080122621E+02 -0.12070191246E+03  0.12893905619E+03  0.47000000000E+01 0.  1.
         13    1    4    4    0    0  0.23386873729E+02  0.50828093425E+02  0.17192279398E+02  0.58532174186E+02  0.00000000000E+00 0. -1.
        -14    1    4    4    0    0 -0.15158701379E+02 -0.23736031314E+02 -0.57608569164E+01  0.28746702114E+02  0.00000000000E+00 0.  1.
</event>
<event>
12    1  0.8526130E-002  0.1798186E+03  0.7818608E-02  0.1168000E+00
         21   -1    0    0  503  502  0.00000000000E+00  0.00000000000E+00  0.22660276725E+03  0.22660276725E+03  0.00000000000E+00 0. -1.
         21   -1    0    0  501  503 -0.00000000000E+00 -0.00000000000E+00 -0.14336849811E+03  0.14336849811E+03  0.00000000000E+00 0. -1.
          6    2    1    2  501    0  0.38654839697E+02  0.38468424234E+02  0.28268078767E+02  0.18193929926E+03  0.17125655621E+03 0.  0.
         24    2    3    3    0    0  0.78135127441E+01 -0.37884493246E+02  0.43341219731E+02  0.98092742780E+02  0.79040742965E+02 0.  0.
         -6    2    1    2    0  502 -0.38654839697E+02 -0.38468424234E+02  0.54966190373E+02  0.18803196609E+03  0.17134970643E+03 0.  0.
        -24    2    5    5    0    0  0.24632752634E+02 -0.62176437331E+02  0.17297093113E+02  0.11051783760E+03  0.86268888573E+02 0.  0.
          5    1    3    3  501    0  0.30841326953E+02  0.76352917479E+02 -0.15073140964E+02  0.83846556485E+02  0.47000000000E+01 0. -1.
        -11    1    4    4    0    0 -0.26789361824E+02 -0.37972074517E+02  0.54669498255E+01  0.46791408297E+02  0.00000000000E+00 0.  1.
         12    1    4    4    0    0  0.34602874568E+02  0.87581270762E-01  0.37874269905E+02  0.51301334483E+02  0.00000000000E+00 0. -1.
         -5    1    5    5    0  502 -0.63287592332E+02  0.23708013098E+02  0.37669097259E+02  0.77514128496E+02  0.47000000000E+01 0.  1.
         13    1    6    6    0    0  0.85597178290E+01 -0.49138488139E+02  0.50764551083E+02  0.71168106850E+02  0.00000000000E+00 0. -1.
        -14    1    6    6    0    0  0.16073034805E+02 -0.13037949193E+02 -0.33467457970E+02  0.39349730748E+02  0.00000000000E+00 0.  1.
</event>
<event>
12    1  0.8526130E-002  0.2065147E+03  0.7818608E-02  0.1145606E+00
         21   -1    0    0  501  502  0.00000000000E+00  0.00000000000E+00  0.81782421423E+02  0.81782421423E+02  0.00000000000E+00 0. -1.
         21   -1    0    0  502  503 -0.00000000000E+00 -0.00000000000E+00 -0.52452977440E+03  0.52452977440E+03  0.00000000000E+00 0. -1.
         -6    2    1    2    0  503  0.11155299644E+03 -0.20239028072E+02 -0.27477493491E+03  0.34011105445E+03  0.16528936819E+03 0.  0.
        -24    2    3    3    0    0  0.84435575095E+02  0.10786296163E+02 -0.80690843082E+02  0.14164531438E+03  0.79414560385E+02 0.  0.
          6    2    1    2  501    0 -0.11155299644E+03  0.20239028072E+02 -0.16797241807E+03  0.26620114137E+03  0.17261119651E+03 0.  0.
         24    2    5    5    0    0 -0.75910577546E+02 -0.21256056111E+02 -0.30289088706E+02  0.11797491825E+03  0.82379710709E+02 0.  0.
          5    1    5    5  501    0 -0.35642418894E+02  0.41495084183E+02 -0.13768332936E+03  0.14822622312E+03  0.47000000000E+01 0. -1.
        -13    1    6    6    0    0 -0.36291891519E+02  0.30611760908E+02 -0.41217972061E+01  0.47656799181E+02  0.00000000000E+00 0.  1.
         14    1    6    6    0    0 -0.39618686027E+02 -0.51867817020E+02 -0.26167291499E+02  0.70318119068E+02  0.00000000000E+00 0. -1.
         -5    1    3    3    0  503  0.27117421346E+02 -0.31025324235E+02 -0.19408409183E+03  0.19846574008E+03  0.47000000000E+01 0.  1.
         13    1    4    4    0    0  0.64080347182E+02 -0.15307641632E+02 -0.85781016190E+02  0.10816190423E+03  0.00000000000E+00 0. -1.
        -14    1    4    4    0    0  0.20355227913E+02  0.26093937795E+02  0.50901731081E+01  0.33483410150E+02  0.00000000000E+00 0.  1.
</event>
<event>
12    1  0.8526130E-002  0.2337327E+03  0.7818608E-02  0.1124137E+00
         21   -1    0    0  503  502  0.00000000000E+00  0.00000000000E+00  0.20988632067E+02  0.20988632067E+02  0.00000000000E+00 0.  1.
         21   -1    0    0  501  503 -0.00000000000E+00 -0.00000000000E+00 -0.30698696084E+04  0.30698696084E+04  0.00000000000E+00 0. -1.
          6    2    1    2  501    0 -0.94962606894E+02  0.12546303963E+03 -0.91607949977E+03  0.94528766410E+03  0.17207047095E+03 0.  0.
         24    2    3    3    0    0 -0.39692698348E+02  0.14447509822E+03 -0.58709714488E+03  0.61112048888E+03  0.79602952828E+02 0.  0.
         -6    2    1    2    0  502  0.94962606894E+02 -0.12546303963E+03 -0.21328014765E+04  0.21455705763E+04  0.17283543831E+03 0.  0.
        -24    2    5    5    0    0  0.94807224787E+02 -0.11188675492E+03 -0.21193833378E+04  0.21259115810E+04  0.78786178856E+02 0.  0.
          5    1    3    3  501    0 -0.55269908546E+02 -0.19012058583E+02 -0.32898235490E+03  0.33416717522E+03  0.47000000000E+01 0. -1.
        -13    1    4    4    0    0 -0.27891281471E+02  0.20223416156E+02 -0.57640025675E+02  0.67151192863E+02  0.00000000000E+00 0.  1.
         14    1    4    4    0    0 -0.11801416877E+02  0.12425168206E+03 -0.52945711920E+03  0.54396929602E+03  0.00000000000E+00 0. -1.
         -5    1    5    5    0  502  0.15538210689E+00 -0.13576284711E+02 -0.13418138756E+02  0.19658995341E+02  0.47000000000E+01 0.  1.
         13    1    6    6    0    0  0.80235804912E+02 -0.73415376338E+02 -0.10246119814E+04  0.10303675627E+04  0.00000000000E+00 0. -1.
        -14    1    6    6    0    0  0.14571419875E+02 -0.38471378583E+02 -0.10947713564E+04  0.10955440183E+04  0.00000000000E+00 0.  1.
</event>
<event>
12    1  0.8526130E-002  0.1943506E+03  0.7818608E-02  0.1155855E+00
         21   -1    0    0  501  502  0.00000000000E+00  0.00000000000E+00  0.13588691437E+04  0.13588691437E+04  0.00000000000E+00 0. -1.
         21   -1    0    0  502  503 -0.00000000000E+00 -0.00000000000E+00 -0.47881816987E+02  0.47881816987E+02  0.00000000000E+00 0.  1.
         -6    2    1    2    0  503 -0.17256679184E+02 -0.86827322759E+02  0.18547271712E+03  0.26457965548E+03  0.16662979429E+03 0.  0.
        -24    2    3    3    0    0  0.42169953336E+01 -0.88127521875E+02  0.20284523981E+03  0.23653141561E+03  0.83765602095E+02 0.  0.
          6    2    1    2  501    0  0.17256679184E+02  0.86827322759E+02  0.11255146096E+04  0.11421713052E+04  0.17301842987E+03 0.  0.
         24    2    5    5    0    0 -0.35221442664E+02  0.18944698523E+02  0.32921652421E+03  0.34125012636E+03  0.80428087754E+02 0.  0.
          5    1    5    5  501    0  0.52478121848E+02  0.67882624236E+02  0.79629808538E+03  0.80092117885E+03  0.47000000000E+01 0. -1.
        -13    1    6    6    0    0  0.18865006789E+02  0.15907706763E+02  0.39964908637E+02  0.46969538405E+02  0.00000000000E+00 0.  1.
         14    1    6    6    0    0 -0.54086449453E+02  0.30369917606E+01  0.28925161558E+03  0.29428058796E+03  0.00000000000E+00 0. -1.
         -5    1    3    3    0  503 -0.21473674518E+02  0.13001991156E+01 -0.17372522694E+02  0.28048239870E+02  0.47000000000E+01 0.  1.
         13    1    4    4    0    0 -0.23000871795E+02  0.65854671927E+00  0.75458543775E+02  0.78888944826E+02  0.00000000000E+00 0. -1.
        -14    1    4    4    0    0  0.27217867129E+02 -0.88786068594E+02  0.12738669603E+03  0.15764247078E+03  0.00000000000E+00 0.  1.
</event>
<event>
12    1  0.8526130E-002  0.2026927E+03  0.7818608E-02  0.1150441E+00
         21   -1    0    0  503  502  0.00000000000E+00  0.00000000000E+00  0.80450298334E+02  0.80450298334E+02  0.00000000000E+00 0. -1.
         21   -1    0    0  501  503 -0.00000000000E+00 -0.00000000000E+00 -0.11014190682E+04  0.11014190682E+04  0.00000000000E+00 0. -1.
          6    2    1    2  501    0  0.69567754168E+02 -0.44642552113E+02 -0.96316028638E+03  0.98425710833E+03  0.18507211611E+03 0.  0.
         24    2    3    3    0    0  0.60794272174E+02  0.46589405790E+02 -0.48550541207E+03  0.49786579151E+03  0.79298959280E+02 0.  0.
         -6    2    1    2    0  502 -0.69567754168E+02  0.44642552113E+02 -0.57808483523E+02  0.19761225824E+03  0.16992985012E+03 0.  0.
        -24    2    5    5    0    0 -0.64733411419E+02 -0.35298013390E+02 -0.30620257379E+02  0.11290597439E+03  0.79836048174E+02 0.  0.
          5    1    3    3  501    0  0.87734819935E+01 -0.91231957903E+02 -0.47765487431E+03  0.48639131682E+03  0.47000000000E+01 0. -1.
        -11    1    4    4    0    0  0.58106452299E+02  0.17324585927E+02 -0.16111440222E+03  0.17214630893E+03  0.00000000000E+00 0.  1.
         12    1    4    4    0    0  0.26878198754E+01  0.29264819863E+02 -0.32439100985E+03  0.32571948258E+03  0.00000000000E+00 0. -1.
         -5    1    5    5    0  502 -0.48343427491E+01  0.79940565503E+02 -0.27188226144E+02  0.84706283849E+02  0.47000000000E+01 0.  1.
         11    1    6    6    0    0  0.10581517783E+02  0.14533143619E+02 -0.15921947400E+01  0.18047600011E+02  0.00000000000E+00 0. -1.
        -12    1    6    6    0    0 -0.75314929201E+02 -0.49831157009E+02 -0.29028062639E+02  0.94858374380E+02  0.00000000000E+00 0.  1.
</event>
<event>
12    1  0.8526130E-002  0.2124736E+03  0.7818608E-02  0.1139699E+00
         21   -1    0    0  501  502  0.00000000000E+00  0.00000000000E+00  0.20223831690E+03  0.20223831690E+03  0.00000000000E+00 0.  1.
         21   -1    0    0  502  503 -0.00000000000E+00 -0.00000000000E+00 -0.35240819793E+03  0.35240819793E+03  0.00000000000E+00 0.  1.
         -6    2    1    2    0  503  0.12144657308E+03  0.25007618873E+02 -0.24330467455E+03  0.32302040594E+03  0.17254091365E+03 0.  0.
        -24    2    3    3    0    0 -0.65398472595E+01  0.22514912144E+02 -0.97749642055E+02  0.12912586021E+03  0.81048160886E+02 0.  0.
          6    2    1    2  501    0 -0.12144657308E+03 -0.25007618873E+02  0.93134793517E+02  0.23162610889E+03  0.17205206608E+03 0.  0.
         24    2    5    5    0    0 -0.32005789797E+02 -0.22138107263E+02  0.10949349226E+03  0.14053502900E+03  0.79036720299E+02 0.  0.
          5    1    5    5  501    0 -0.89440783285E+02 -0.28695116107E+01 -0.16358698741E+02  0.91091079892E+02  0.47000000000E+01 0. -1.
        -13    1    6    6    0    0 -0.51660342559E+02  0.25000473693E+01  0.89011770923E+02  0.10294725151E+03  0.00000000000E+00 0.  1.
         14    1    6    6    0    0  0.19654552763E+02 -0.24638154632E+02  0.20481721335E+02  0.37587777492E+02  0.00000000000E+00 0. -1.
         -5    1    3    3    0  503  0.12798642034E+03  0.24927067297E+01 -0.14555503249E+03  0.19389454573E+03  0.47000000000E+01 0.  1.
         11    1    4    4    0    0 -0.29973450829E+02  0.43337318079E+02 -0.66712080065E+02  0.85011955156E+02  0.00000000000E+00 0. -1.
        -12    1    4    4    0    0  0.23433603569E+02 -0.20822405935E+02 -0.31037561990E+02  0.44113905058E+02  0.00000000000E+00 0.  1.
</event>
<event>
12    1  0.8526130E-002  0.3012376E+03  0.7818608E-02  0.1084733E+00
         21   -1    0    0  503  502  0.00000000000E+00  0.00000000000E+00  0.93361575690E+03  0.93361575690E+03  0.00000000000E+00 0. -1.
         21   -1    0    0  501  503 -0.00000000000E+00 -0.00000000000E+00 -0.13482572770E+03  0.13482572770E+03  0.00000000000E+00 0.  1.
          6    2    1    2  501    0 -0.24595367917E+03  0.10851238862E+02  0.11652612980E+03  0.32298980913E+03  0.17358892879E+03 0.  0.
         24    2    3    3    0    0 -0.17731697933E+03  0.41133201228E+02  0.19773279903E+02  0.20046961581E+03  0.81632302816E+02 0.  0.
         -6    2    1    2    0  502  0.24595367917E+03 -0.10851238862E+02  0.68226389941E+03  0.74545167546E+03  0.17205583494E+03 0.  0.
        -24    2    5    5    0    0  0.26112612044E+03 -0.27391728691E+02  0.59831491635E+03  0.65842689432E+03  0.81290088305E+02 0.  0.
          5    1    3    3  501    0 -0.68636699841E+02 -0.30281962365E+02  0.96752849895E+02  0.12252019333E+03  0.47000000000E+01 0. -1.
        -13    1    4    4    0    0 -0.51456299522E+02 -0.21670134637E+02 -0.99259852327E+01  0.56708647299E+02  0.00000000000E+00 0.  1.
         14    1    4    4    0    0 -0.12586067981E+03  0.62803335865E+02  0.29699265136E+02  0.14376096851E+03  0.00000000000E+00 0. -1.
         -5    1    5    5    0  502 -0.15172441267E+02  0.16540489829E+02  0.83948983056E+02  0.87024781149E+02  0.47000000000E+01 0.  1.
         11    1    6    6    0    0  0.11822191996E+03 -0.36329480791E+02  0.35716458617E+03  0.37797195022E+03  0.00000000000E+00 0. -1.
        -12    1    6    6    0    0  0.14290420047E+03  0.89377521003E+01  0.24115033018E+03  0.28045494410E+03  0.00000000000E+00 0.  1.
</event>
<event>
12    1  0.8526130E-002  0.1993879E+03  0.7818608E-02  0.1150272E+00
         21   -1    0    0  503  502  0.00000000000E+00  0.00000000000E+00  0.70049748003E+03  0.70049748003E+03  0.00000000000E+00 0.  1.
         21   -1    0    0  501  503 -0.00000000000E+00 -0.00000000000E+00 -0.56733775049E+02  0.56733775049E+02  0.00000000000E+00 0. -1.
          6    2    1    2  501    0  0.16623270907E+02 -0.98720537303E+02  0.32382456751E+03  0.38024771856E+03  0.17234819211E+03 0.  0.
         24    2    3    3    0    0  0.64779236635E+02 -0.10992119743E+03  0.24666302249E+03  0.28848473118E+03  0.78113854832E+02 0.  0.
         -6    2    1    2    0  502 -0.16623270907E+02  0.98720537303E+02  0.31993913747E+03  0.37698353652E+03  0.17243392213E+03 0.  0.
        -24    2    5    5    0    0  0.11496190887E+02  0.38599172252E+02  0.58411250109E+02  0.10712392759E+03  0.80259598920E+02 0.  0.
          5    1    3    3  501    0 -0.48155965728E+02  0.11200660125E+02  0.77161545021E+02  0.91762987377E+02  0.47000000000E+01 0. -1.
        -13    1    4    4    0    0  0.24217274166E+02 -0.58754482772E+02  0.19539121121E+03  0.20546603377E+03  0.00000000000E+00 0.  1.
         14    1    4    4    0    0  0.40561962469E+02 -0.51166714657E+02  0.51271811280E+02  0.83018697412E+02  0.00000000000E+00 0. -1.
         -5    1    5    5    0  502 -0.28119461795E+02  0.60121365051E+02  0.26152788736E+03  0.26985960893E+03  0.47000000000E+01 0.  1.
         13    1    6    6    0    0 -0.30276722309E+02  0.27252248736E+02  0.95372147814E+01  0.41836867004E+02  0.00000000000E+00 0. -1.
        -14    1    6    6    0    0  0.41772913197E+02  0.11346923516E+02  0.48874035328E+02  0.65287060582E+02  0.00000000000E+00 0.  1.
</event>
<event>
12    1  0.8526130E-002  0.1979312E+03  0.7818608E-02  0.1151859E+00
         21   -1    0    0  503  502  0.00000000000E+00  0.00000000000E+00  0.50051799786E+02  0.50051799786E+02  0.00000000000E+00 0. -1.
         21   -1    0    0  501  503 -0.00000000000E+00 -0.00000000000E+00 -0.10268327935E+04  0.10268327935E+04  0.00000000000E+00 0. -1.
          6    2    1    2  501    0 -0.57857357639E+01  0.94197686772E+02 -0.75605362678E+03  0.78153301163E+03  0.17398299561E+03 0.  0.
         24    2    3    3    0    0 -0.44350747501E+02  0.65008260110E+02 -0.69383472451E+03  0.70258641855E+03  0.77640117879E+02 0.  0.
         -6    2    1    2    0  502  0.57857357639E+01 -0.94197686772E+02 -0.22072736689E+03  0.29535158162E+03  0.17206192879E+03 0.  0.
        -24    2    5    5    0    0 -0.22666699637E+02 -0.59937233920E+02 -0.22841867258E+03  0.24991408726E+03  0.78585684127E+02 0.  0.
          5    1    3    3  501    0  0.38565011737E+02  0.29189426663E+02 -0.62218902274E+02  0.78946593083E+02  0.47000000000E+01 0. -1.
        -11    1    4    4    0    0  0.12407763334E+02 -0.10171622365E+02 -0.12078209759E+03  0.12184305311E+03  0.00000000000E+00 0.  1.
         12    1    4    4    0    0 -0.56758510835E+02  0.75179882475E+02 -0.57305262692E+03  0.58074336544E+03  0.00000000000E+00 0. -1.
         -5    1    5    5    0  502  0.28452435401E+02 -0.34260452852E+02  0.76913056857E+01  0.45437494352E+02  0.47000000000E+01 0.  1.
         11    1    6    6    0    0 -0.33316428044E+02 -0.44059172573E+02 -0.64654361872E+02  0.85037530388E+02  0.00000000000E+00 0. -1.
        -12    1    6    6    0    0  0.10649728407E+02 -0.15878061347E+02 -0.16376431070E+03  0.16487655688E+03  0.00000000000E+00 0.  1.
</event>
<event>
12    1  0.8526130E-002  0.2119759E+03  0.7818608E-02  0.1140096E+00
         21   -1    0    0  503  502  0.00000000000E+00  0.00000000000E+00  0.34163822209E+03  0.34163822209E+03  0.00000000000E+00 0.  1.
         21   -1    0    0  501  503 -0.00000000000E+00 -0.00000000000E+00 -0.13131038501E+03  0.13131038501E+03  0.00000000000E+00 0.  1.
          6    2    1    2  501    0  0.97876244391E+02  0.74007989330E+02  0.11015271671E+03  0.23888786347E+03  0.17284920773E+03 0.  0.
         24    2    3    3    0    0  0.46811372446E+02 -0.27941756464E+02  0.72238769363E+02  0.11863425971E+03  0.76704637625E+02 0.  0.
         -6    2    1    2    0  502 -0.97876244391E+02 -0.74007989330E+02  0.10017512037E+03  0.23406074362E+03  0.17231493048E+03 0.  0.
        -24    2    5    5    0    0 -0.10888125074E+03 -0.21292386990E+02  0.16864851699E+02  0.13474943631E+03  0.74595541795E+02 0.  0.
          5    1    3    3  501    0  0.51064871945E+02  0.10194974579E+03  0.37913947348E+02  0.12025360376E+03  0.47000000000E+01 0. -1.
        -11    1    4    4    0    0  0.51551022720E+02 -0.13042846080E+02  0.83759587344E+02  0.99213367292E+02  0.00000000000E+00 0.  1.
         12    1    4    4    0    0 -0.47396502736E+01 -0.14898910384E+02 -0.11520817981E+02  0.19420892418E+02  0.00000000000E+00 0. -1.
         -5    1    5    5    0  502  0.11005006353E+02 -0.52715602340E+02  0.83310268668E+02  0.99311307314E+02  0.47000000000E+01 0.  1.
         11    1    6    6    0    0 -0.10559453548E+02  0.16977810230E+02 -0.14477850588E+02  0.24685142436E+02  0.00000000000E+00 0. -1.
        -12    1    6    6    0    0 -0.98321797197E+02 -0.38270197220E+02  0.31342702288E+02  0.11006429387E+03  0.00000000000E+00 0.  1.
</event>
<event>
12    1  0.8526130E-002  0.2334829E+03  0.7818608E-02  0.1124584E+00
         21   -1    0    0  503  502  0.00000000000E+00  0.00000000000E+00  0.78756312954E+02  0.78756312954E+02  0.00000000000E+00 0.  1.
         21   -1    0    0  501  503 -0.00000000000E+00 -0.00000000000E+00 -0.10281390489E+04  0.10281390489E+04  0.00000000000E+00 0. -1.
          6    2    1    2  501    0  0.71632565171E+02 -0.14029858032E+03 -0.79256646653E+03  0.82563818108E+03  0.16941631020E+03 0.  0.
         24    2    3    3    0    0  0.99492401965E+02 -0.71922200272E+02 -0.63355979474E+03  0.65026226618E+03  0.79821427979E+02 0.  0.
         -6    2    1    2    0  502 -0.71632565171E+02  0.14029858032E+03 -0.15681626944E+03  0.28125718080E+03  0.17233497427E+03 0.  0.
        -24    2    5    5    0    0 -0.11070302224E+03  0.13596040162E+03 -0.12216050516E+03  0.22864128578E+03  0.81321944152E+02 0.  0.
          5    1    3    3  501    0 -0.27859836794E+02 -0.68376380046E+02 -0.15900667178E+03  0.17537591490E+03  0.47000000000E+01 0. -1.
        -13    1    4    4    0    0  0.35682615012E+02  0.51360240755E+01 -0.80188065897E+02  0.87919017679E+02  0.00000000000E+00 0.  1.
         14    1    4    4    0    0  0.63809786954E+02 -0.77058224347E+02 -0.55337172885E+03  0.56234324850E+03  0.00000000000E+00 0. -1.
         -5    1    5    5    0  502  0.39070457072E+02  0.43381786935E+01 -0.34655764282E+02  0.52615895014E+02  0.47000000000E+01 0.  1.
         11    1    6    6    0    0 -0.59047761089E+01  0.40266520144E+02 -0.62750344378E+02  0.74792143604E+02  0.00000000000E+00 0. -1.
        -12    1    6    6    0    0 -0.10479824613E+03  0.95693881480E+02 -0.59410160784E+02  0.15384914218E+03  0.00000000000E+00 0.  1.
</event>
<event>
12    1  0.8526130E-002  0.1810865E+03  0.7818608E-02  0.1168955E+00
         21   -1    0    0  503  502  0.00000000000E+00  0.00000000000E+00  0.49279388001E+02  0.49279388001E+02  0.00000000000E+00 0.  1.
         21   -1    0    0  501  503 -0.00000000000E+00 -0.00000000000E+00 -0.65564040288E+03  0.65564040288E+03  0.00000000000E+00 0.  1.
          6    2    1    2  501    0 -0.14811814980E+02  0.30785247150E+02 -0.36115681947E+03  0.40009621664E+03  0.16874718668E+03 0.  0.
         24    2    3    3    0    0  0.31895634595E+02  0.52462506546E+02 -0.32715762529E+03  0.33821306364E+03  0.59885879200E+02 0.  0.
         -6    2    1    2    0  502  0.14811814980E+02 -0.30785247150E+02 -0.24520419541E+03  0.30482357424E+03  0.17783473413E+03 0.  0.
        -24    2    5    5    0    0 -0.52708823236E+02 -0.12377450996E+02 -0.80803678810E+02  0.12608492872E+03  0.80229379915E+02 0.  0.
          5    1    3    3  501    0 -0.46707449575E+02 -0.21677259396E+02 -0.33999194177E+02  0.61883153001E+02  0.47000000000E+01 0. -1.
        -11    1    4    4    0    0  0.46286785895E+02  0.51536230916E+02 -0.29408471043E+03  0.30213286242E+03  0.00000000000E+00 0.  1.
         12    1    4    4    0    0 -0.14391151300E+02  0.92627563072E+00 -0.33072914865E+02  0.36080201218E+02  0.00000000000E+00 0. -1.
         -5    1    5    5    0  502  0.67520638216E+02 -0.18407796154E+02 -0.16440051660E+03  0.17873864552E+03  0.47000000000E+01 0.  1.
         13    1    6    6    0    0 -0.21178344669E+02 -0.21198441172E+02 -0.87654446915E+02  0.92634757273E+02  0.00000000000E+00 0. -1.
        -14    1    6    6    0    0 -0.31530478567E+02  0.88209901764E+01  0.68507681053E+01  0.33450171449E+02  0.00000000000E+00 0.  1.
</event>
<event>
12    1  0.8526130E-002  0.1724682E+03  0.7818608E-02  0.1175945E+00
         21   -1    0    0  503  502  0.00000000000E+00  0.00000000000E+00  0.77996003873E+03  0.77996003873E+03  0.00000000000E+00 0.  1.
         21   -1    0    0  501  503 -0.00000000000E+00 -0.00000000000E+00 -0.10227284004E+03  0.10227284004E+03  0.00000000000E+00 0.  1.
          6    2    1    2  501    0 -0.48268276409E+01 -0.10340618649E+01 -0.12886107509E+02  0.17044866800E+03  0.16988916713E+03 0.  0.
         24    2    3    3    0    0 -0.94879688420E+01  0.15110704432E+02  0.54215633121E+02  0.10111531880E+03  0.83466267918E+02 0.  0.
         -6    2    1    2    0  502  0.48268276409E+01  0.10340618649E+01  0.69057330620E+03  0.71178421077E+03  0.17239751711E+03 0.  0.
        -24    2    5    5    0    0  0.43108138382E+02  0.16886431938E+02  0.21902020669E+03  0.23839095770E+03  0.81956906944E+02 0.  0.
          5    1    3    3  501    0  0.46611412011E+01 -0.16144766297E+02 -0.67101740630E+02  0.69333349202E+02  0.47000000000E+01 0. -1.
        -13    1    4    4    0    0 -0.41955062808E+02 -0.91027225111E+01  0.17205877854E+02  0.46250719833E+02  0.00000000000E+00 0.  1.
         14    1    4    4    0    0  0.32467093966E+02  0.24213426943E+02  0.37009755267E+02  0.54864598967E+02  0.00000000000E+00 0. -1.
         -5    1    5    5    0  502 -0.38281310741E+02 -0.15852370073E+02  0.47155309951E+03  0.47339325307E+03  0.47000000000E+01 0.  1.
         11    1    6    6    0    0  0.37353331131E+02  0.47485534442E+02  0.16897142573E+03  0.17944773624E+03  0.00000000000E+00 0. -1.
        -12    1    6    6    0    0  0.57548072508E+01 -0.30599102504E+02  0.50048780960E+02  0.58943221460E+02  0.00000000000E+00 0.  1.
</event>
<event>
12    1  0.8526130E-002  0.2013537E+03  0.7818608E-02  0.1148792E+00
         21   -1    0    0  503  502  0.00000000000E+00  0.00000000000E+00  0.52162108778E+03  0.52162108778E+03  0.00000000000E+00 0.  1.
         21   -1    0    0  501  503 -0.00000000000E+00 -0.00000000000E+00 -0.42830089892E+03  0.42830089892E+03  0.00000000000E+00 0. -1.
          6    2    1    2  501    0 -0.10288580421E+03 -0.13615771094E+02 -0.38324316830E+03  0.43291873216E+03  0.17254687677E+03 0.  0.
         24    2    3    3    0    0 -0.63324566023E+02 -0.15727839426E+02 -0.37864269462E+03  0.39275896675E+03  0.81436786409E+02 0.  0.
         -6    2    1    2    0  502  0.10288580421E+03  0.13615771094E+02  0.47656335716E+03  0.51700325454E+03  0.17149009851E+03 0.  0.
        -24    2    5    5    0    0  0.12675577958E+03 -0.71487734858E+01  0.28291847918E+03  0.32073463554E+03  0.81912807025E+02 0.  0.
          5    1    3    3  501    0 -0.39561238190E+02  0.21120683325E+01 -0.46004736752E+01  0.40159765410E+02  0.47000000000E+01 0. -1.
        -13    1    4    4    0    0 -0.55921109180E+02 -0.89214064725E+01 -0.10814308273E+03  0.12207247146E+03  0.00000000000E+00 0.  1.
         14    1    4    4    0    0 -0.74034568430E+01 -0.68064329536E+01 -0.27049961189E+03  0.27068649529E+03  0.00000000000E+00 0. -1.
         -5    1    5    5    0  502 -0.23869975370E+02  0.20764544579E+02  0.19364487798E+03  0.19626861900E+03  0.47000000000E+01 0.  1.
         11    1    6    6    0    0  0.10628835319E+03 -0.38982686131E+02  0.20917590348E+03  0.23784747725E+03  0.00000000000E+00 0. -1.
        -12    1    6    6    0    0  0.20467426396E+02  0.31833912645E+02  0.73742575707E+02  0.82887158290E+02  0.00000000000E+00 0.  1.
</event>
<event>
12    1  0.8526130E-002  0.1783851E+03  0.7818608E-02  0.1169464E+00
         21   -1    0    0  501  502  0.00000000000E+00  0.00000000000E+00  0.11548965654E+04  0.11548965654E+04  0.00000000000E+00 0.  1.
         21   -1    0    0  502  503 -0.00000000000E+00 -0.00000000000E+00 -0.28585656892E+02  0.28585656892E+02  0.00000000000E+00 0.  1.
         -6    2    1    2    0  503 -0.24408209166E+02  0.39847601556E+02  0.67805890401E+03  0.70103938690E+03  0.17178111846E+03 0.  0.
        -24    2    3    3    0    0 -0.40790564961E+02  0.86511768100E+02  0.54706593145E+03  0.56094236738E+03  0.78911659169E+02 0.  0.
          6    2    1    2  501    0  0.24408209166E+02 -0.39847601556E+02  0.44825200445E+03  0.48244283534E+03  0.17215585338E+03 0.  0.
         24    2    5    5    0    0 -0.89768598723E+01  0.37264574432E+02  0.17149968879E+03  0.19317689413E+03  0.80224289655E+02 0.  0.
          5    1    5    5  501    0  0.33385069039E+02 -0.77112175988E+02  0.27675231566E+03  0.28926594121E+03  0.47000000000E+01 0. -1.
        -13    1    6    6    0    0  0.82892836763E+01 -0.15961838226E+02  0.10379256931E+03  0.10533940358E+03  0.00000000000E+00 0.  1.
         14    1    6    6    0    0 -0.17266143549E+02  0.53226412658E+02  0.67707119477E+02  0.87837490545E+02  0.00000000000E+00 0. -1.
         -5    1    3    3    0  503  0.16382355795E+02 -0.46664166544E+02  0.13099297255E+03  0.14009701952E+03  0.47000000000E+01 0.  1.
         13    1    4    4    0    0 -0.23502552551E+02 -0.83646021323E+01  0.72361629131E+02  0.76541112585E+02  0.00000000000E+00 0. -1.
        -14    1    4    4    0    0 -0.17288012410E+02  0.94876370232E+02  0.47470430232E+03  0.48440125479E+03  0.00000000000E+00 0.  1.
</event>
<event>
12    1  0.8526130E-002  0.2221911E+03  0.7818608E-02  0.1132320E+00
         21   -1    0    0  503  502  0.00000000000E+00  0.00000000000E+00  0.19413098420E+03  0.19413098420E+03  0.00000000000E+00 0.  1.
         21   -1    0    0  501  503 -0.00000000000E+00 -0.00000000000E+00 -0.27358917343E+03  0.27358917343E+03  0.00000000000E+00 0. -1.
          6    2    1    2  501    0 -0.34020792096E+02 -0.13808898573E+03 -0.10238243873E+03  0.24434955217E+03  0.17028962860E+03 0.  0.
         24    2    3    3    0    0 -0.47795751926E+02 -0.18847729429E+02 -0.15242509303E+02  0.95945765076E+02  0.79583823353E+02 0.  0.
         -6    2    1    2    0  502  0.34020792096E+02  0.13808898573E+03  0.22924249499E+02  0.22337060546E+03  0.17071298690E+03 0.  0.
        -24    2    5    5    0    0 -0.36621402300E+02  0.37405023822E+02 -0.11772610446E+02  0.95489637743E+02  0.78989959148E+02 0.  0.
          5    1    3    3  501    0  0.13774959830E+02 -0.11924125630E+03 -0.87139929429E+02  0.14840378709E+03  0.47000000000E+01 0. -1.
        -13    1    4    4    0    0  0.20562024533E+02  0.64628577267E+01 -0.40357005520E+00  0.21557556719E+02  0.00000000000E+00 0.  1.
         14    1    4    4    0    0 -0.68357776459E+02 -0.25310587156E+02 -0.14838939247E+02  0.74388208358E+02  0.00000000000E+00 0. -1.
         -5    1    5    5    0  502  0.70642194396E+02  0.10068396191E+03  0.34696859945E+02  0.12788096772E+03  0.47000000000E+01 0.  1.
         11    1    6    6    0    0 -0.54455787158E+02  0.49187439735E+02 -0.87188295958E+01  0.73897597879E+02  0.00000000000E+00 0. -1.
        -12    1    6    6    0    0  0.17834384858E+02 -0.11782415913E+02 -0.30537808502E+01  0.21592039865E+02  0.00000000000E+00 0.  1.
</event>
<event>
12    1  0.8526130E-002  0.2056502E+03  0.7818608E-02  0.1146632E+00
         21   -1    0    0  501  502  0.00000000000E+00  0.00000000000E+00  0.51459411785E+03  0.51459411785E+03  0.00000000000E+00 0.  1.
         21   -1    0    0  502  503 -0.00000000000E+00 -0.00000000000E+00 -0.82173881475E+02  0.82173881475E+02  0.00000000000E+00 0.  1.
         -6    2    1    2    0  503 -0.27855079565E+01  0.11126660289E+03  0.27705403109E+03  0.34503759551E+03  0.17292770225E+03 0.  0.
        -24    2    3    3    0    0  0.59196492835E+02  0.63188398145E+02  0.11850801577E+03  0.16808502796E+03  0.81923308017E+02 0.  0.
          6    2    1    2  501    0  0.27855079565E+01 -0.11126660289E+03  0.15536620529E+03  0.25173040381E+03  0.16383382583E+03 0.  0.
         24    2    5    5    0    0 -0.18236389304E+02 -0.57914406689E+02  0.16518883174E+03  0.19336131101E+03  0.80091210922E+02 0.  0.
          5    1    5    5  501    0  0.21021897260E+02 -0.53352196198E+02 -0.98226264561E+01  0.58369092798E+02  0.47000000000E+01 0. -1.
        -11    1    6    6    0    0 -0.11962525780E+02 -0.19128235487E+02 -0.10079950808E+01  0.22583344968E+02  0.00000000000E+00 0.  1.
         12    1    6    6    0    0 -0.62738635239E+01 -0.38786171202E+02  0.16619682682E+03  0.17077796604E+03  0.00000000000E+00 0. -1.
         -5    1    3    3    0  503 -0.61982000791E+02  0.48078204742E+02  0.15854601532E+03  0.17695256756E+03  0.47000000000E+01 0.  1.
         13    1    4    4    0    0  0.34723331334E+02  0.71520502786E+01  0.96982873604E+02  0.10325957260E+03  0.00000000000E+00 0. -1.
        -14    1    4    4    0    0  0.24473161501E+02  0.56036347866E+02  0.21525142169E+02  0.64825455351E+02  0.00000000000E+00 0.  1.
</event>
<event>
12    1  0.8526130E-002  0.1811560E+03  0.7818608E-02  0.1167249E+00
         21   -1    0    0  503  502  0.00000000000E+00  0.00000000000E+00  0.32957279739E+03  0.32957279739E+03  0.00000000000E+00 0.  1.
         21   -1    0    0  501  503 -0.00000000000E+00 -0.00000000000E+00 -0.26240189741E+03  0.26240189741E+03  0.00000000000E+00 0.  1.
          6    2    1    2  501    0  0.34638043251E+02  0.36748641061E+02 -0.20039773798E+03  0.27014206452E+03  0.17397478259E+03 0.  0.
         24    2    3    3    0    0 -0.47626221749E+02 -0.40392486841E+00 -0.84148568702E+02  0.12288826386E+03  0.75842755930E+02 0.  0.
         -6    2    1    2    0  502 -0.34638043251E+02 -0.36748641061E+02  0.26756863796E+03  0.32183263028E+03  0.17156051187E+03 0.  0.
        -24    2    5    5    0    0 -0.50060491377E+02 -0.36942494336E+02  0.68529825380E+02  0.12214179825E+03  0.79696180761E+02 0.  0.
          5    1    3    3  501    0  0.82264265000E+02  0.37152565930E+02 -0.11624916928E+03  0.14725380066E+03  0.47000000000E+01 0. -1.
        -13    1    4    4    0    0 -0.37439626006E+02  0.31953175807E+02 -0.71244928160E+02  0.86594288657E+02  0.00000000000E+00 0.  1.
         14    1    4    4    0    0 -0.10186595743E+02 -0.32357100675E+02 -0.12903640542E+02  0.36293975205E+02  0.00000000000E+00 0. -1.
         -5    1    5    5    0  502  0.15422448126E+02  0.19385327450E+00  0.19903881258E+03  0.19969083203E+03  0.47000000000E+01 0.  1.
         13    1    6    6    0    0 -0.21774995328E+02  0.23462668549E+02  0.35199922342E+02  0.47578164844E+02  0.00000000000E+00 0. -1.
        -14    1    6    6    0    0 -0.28285496049E+02 -0.60405162885E+02  0.33329903038E+02  0.74563633404E+02  0.00000000000E+00 0.  1.
</event>
<event>
12    1  0.8526130E-002  0.3054855E+03  0.7818608E-02  0.1082935E+00
         21   -1    0    0  501  502  0.00000000000E+00  0.00000000000E+00  0.37564128217E+03  0.37564128217E+03  0.00000000000E+00 0.  1.
         21   -1    0    0  502  503 -0.00000000000E+00 -0.00000000000E+00 -0.24615149718E+03  0.24615149718E+03  0.00000000000E+00 0. -1.
         -6    2    1    2    0  503  0.91021300329E+02 -0.23061550796E+03  0.76825597711E+02  0.31180096380E+03  0.17276943868E+03 0.  0.
        -24    2    3    3    0    0  0.74648586199E+02 -0.20962020539E+03  0.11697302283E+03  0.26339875061E+03  0.78633147115E+02 0.  0.
          6    2    1    2  501    0 -0.91021300329E+02  0.23061550796E+03  0.52664187279E+02  0.30999181555E+03  0.17847414229E+03 0.  0.
         24    2    5    5    0    0 -0.40793756014E+02  0.21030839263E+02  0.32072188640E+01  0.88820792850E+02  0.75976445428E+02 0.  0.
          5    1    5    5  501    0 -0.50227544315E+02  0.20958466869E+03  0.49456968415E+02  0.22117102270E+03  0.47000000000E+01 0. -1.
        -13    1    6    6    0    0  0.82494798583E+00 -0.22377451045E+02  0.15767087552E+02  0.27386710359E+02  0.00000000000E+00 0.  1.
         14    1    6    6    0    0 -0.41618704000E+02  0.43408290307E+02 -0.12559868688E+02  0.61434082491E+02  0.00000000000E+00 0. -1.
         -5    1    3    3    0  503  0.16372714130E+02 -0.20995302566E+02 -0.40147425120E+02  0.48402213189E+02  0.47000000000E+01 0.  1.
         11    1    4    4    0    0 -0.16073328919E+02 -0.21527521146E+02  0.91815100650E+01  0.28391657160E+02  0.00000000000E+00 0. -1.
        -12    1    4    4    0    0  0.90721915119E+02 -0.18809268424E+03  0.10779151277E+03  0.23500709345E+03  0.00000000000E+00 0.  1.
</event>
<event>
12    1  0.8526130E-002  0.1903528E+03  0.7818608E-02  0.1158733E+00
         21   -1    0    0  503  502  0.00000000000E+00  0.00000000000E+00  0.43883416927E+03  0.43883416927E+03  0.00000000000E+00 0.  1.
         21   -1    0    0  501  503 -0.00000000000E+00 -0.00000000000E+00 -0.28006002167E+03  0.28006002167E+03  0.00000000000E+00 0.  1.
          6    2    1    2  501    0  0.11491008035E+02  0.79799224385E+02 -0.22347169298E+03  0.29187419899E+03  0.16956117184E+03 0.  0.
         24    2    3    3    0    0  0.13393506402E+02  0.95189341766E+02 -0.23711437535E+03  0.27069194238E+03  0.88377055129E+02 0.  0.
         -6    2    1    2    0  502 -0.11491008035E+02 -0.79799224385E+02  0.38224584058E+03  0.42701999195E+03  0.17243616617E+03 0.  0.
        -24    2    5    5    0    0 -0.51745938075E+01 -0.97538331796E+02  0.15417422157E+03  0.19812410640E+03  0.77090650212E+02 0.  0.
          5    1    3    3  501    0 -0.19024983666E+01 -0.15390117381E+02  0.13642682366E+02  0.21182256612E+02  0.47000000000E+01 0. -1.
        -13    1    4    4    0    0  0.10938066141E+02  0.45452562240E+02 -0.25409449920E+02  0.53209180132E+02  0.00000000000E+00 0.  1.
         14    1    4    4    0    0  0.24554402610E+01  0.49736779526E+02 -0.21170492543E+03  0.21748276225E+03  0.00000000000E+00 0. -1.
         -5    1    5    5    0  502 -0.63164142278E+01  0.17739107411E+02  0.22807161902E+03  0.22889588555E+03  0.47000000000E+01 0.  1.
         13    1    6    6    0    0 -0.17590011998E+02 -0.10329019950E+02 -0.18413826696E+00  0.20399291216E+02  0.00000000000E+00 0. -1.
        -14    1    6    6    0    0  0.12415418190E+02 -0.87209311845E+02  0.15435835983E+03  0.17772481518E+03  0.00000000000E+00 0.  1.
</event>
<event>
12    1  0.8526130E-002  0.2343857E+03  0.7818608E-02  0.1126252E+00
         21   -1    0    0  501  502  0.00000000000E+00  0.00000000000E+00  0.24714445769E+03  0.24714445769E+03  0.00000000000E+00 0.  1.
         21   -1    0    0  502  503 -0.00000000000E+00 -0.00000000000E+00 -0.32935345965E+03  0.32935345965E+03  0.00000000000E+00 0.  1.
         -6    2    1    2    0  503  0.15593390446E+03  0.34150885001E+02 -0.21492373897E+03  0.30714710779E+03  0.15055054547E+03 0.  0.
        -24    2    3    3    0    0  0.17524045798E+03  0.27759871583E+02 -0.17152993490E+03  0.25899422321E+03  0.78585370829E+02 0.  0.
          6    2    1    2  501    0 -0.15593390446E+03 -0.34150885001E+02  0.13271473701E+03  0.26935080954E+03  0.17162456605E+03 0.  0.
         24    2    5    5    0    0 -0.16081370565E+03 -0.42865479768E+02  0.15782302186E+03  0.24192322143E+03  0.76943105997E+02 0.  0.
          5    1    5    5  501    0  0.48798011862E+01  0.87145947675E+01 -0.25108284843E+02  0.27427588107E+02  0.47000000000E+01 0. -1.
        -13    1    6    6    0    0 -0.67425412360E+01 -0.10318585818E+01  0.47206074875E+02  0.47696332139E+02  0.00000000000E+00 0.  1.
         14    1    6    6    0    0 -0.15407116441E+03 -0.41833621187E+02  0.11061694698E+03  0.19422688929E+03  0.00000000000E+00 0. -1.
         -5    1    3    3    0  503 -0.19306553515E+02  0.63910134176E+01 -0.43393804076E+02  0.48152884579E+02  0.47000000000E+01 0.  1.
         13    1    4    4    0    0  0.11862824961E+03 -0.17738243476E+02 -0.91070402705E+02  0.15060254027E+03  0.00000000000E+00 0. -1.
        -14    1    4    4    0    0  0.56612208370E+02  0.45498115059E+02 -0.80459532191E+02  0.10839168294E+03  0.00000000000E+00 0.  1.
</event>
<event>
12    1  0.8526130E-002  0.1876433E+03  0.7818608E-02  0.1162321E+00
         21   -1    0    0  501  502  0.00000000000E+00  0.00000000000E+00  0.41150608451E+03  0.41150608451E+03  0.00000000000E+00 0.  1.
         21   -1    0    0  502  503 -0.00000000000E+00 -0.00000000000E+00 -0.56398654502E+03  0.56398654502E+03  0.00000000000E+00 0.  1.
         -6    2    1    2    0  503  0.24275222479E+02 -0.41762848558E+02 -0.52722758472E+03  0.55962393539E+03  0.18131905864E+03 0.  0.
        -24    2    3    3    0    0  0.40227873121E+01  0.51190788150E+01 -0.48975208150E+03  0.49610559485E+03  0.78875041139E+02 0.  0.
          6    2    1    2  501    0 -0.24275222479E+02  0.41762848558E+02  0.37474712422E+03  0.41586869414E+03  0.17371799477E+03 0.  0.
         24    2    5    5    0    0 -0.53115871910E+02  0.80328138348E+02  0.30275192140E+03  0.32912502656E+03  0.85968898651E+02 0.  0.
          5    1    5    5  501    0  0.28840649431E+02 -0.38565289790E+02  0.71995202822E+02  0.86743667582E+02  0.47000000000E+01 0. -1.
        -13    1    6    6    0    0 -0.29121146266E+02  0.46538000155E+02  0.54214136924E+02  0.77155681973E+02  0.00000000000E+00 0.  1.
         14    1    6    6    0    0 -0.23994725644E+02  0.33790138193E+02  0.24853778447E+03  0.25196934458E+03  0.00000000000E+00 0. -1.
         -5    1    3    3    0  503  0.20252435167E+02 -0.46881927373E+02 -0.37475503221E+02  0.63518340548E+02  0.47000000000E+01 0.  1.
         11    1    4    4    0    0 -0.10570054054E+02  0.37340656305E+02 -0.16846011058E+03  0.17287237926E+03  0.00000000000E+00 0. -1.
        -12    1    4    4    0    0  0.14592841366E+02 -0.32221577490E+02 -0.32129197093E+03  0.32323321558E+03  0.00000000000E+00 0.  1.
</event>
<event>
12    1  0.8526130E-002  0.1905039E+03  0.7818608E-02  0.1158139E+00
         21   -1    0    0  501  502  0.00000000000E+00  0.00000000000E+00  0.44495441696E+02  0.44495441696E+02  0.00000000000E+00 0. -1.
         21   -1    0    0  502  503 -0.00000000000E+00 -0.00000000000E+00 -0.10211449865E+04  0.10211449865E+04  0.00000000000E+00 0.  1.
         -6    2    1    2    0  503 -0.80876664030E+02  0.14310370969E+02 -0.72820721517E+03  0.75256644291E+03  0.17124450728E+03 0.  0.
        -24    2    3    3    0    0 -0.24490812604E+02 -0.54457411311E+02 -0.35217018232E+03  0.36612846317E+03  0.80379130837E+02 0.  0.
          6    2    1    2  501    0  0.80876664030E+02 -0.14310370969E+02 -0.24844232959E+03  0.31307398524E+03  0.17188923060E+03 0.  0.
         24    2    5    5    0    0  0.10020467305E+03 -0.41019176792E+02 -0.24412643631E+03  0.27949349721E+03  0.82433905095E+02 0.  0.
          5    1    5    5  501    0 -0.19328009024E+02  0.26708805824E+02 -0.43158932778E+01  0.33580488027E+02  0.47000000000E+01 0. -1.
        -13    1    6    6    0    0  0.35487692650E+02 -0.56519534570E+02 -0.15043110369E+03  0.16457020106E+03  0.00000000000E+00 0.  1.
         14    1    6    6    0    0  0.64716980404E+02  0.15500357778E+02 -0.93695332620E+02  0.11492329615E+03  0.00000000000E+00 0. -1.
         -5    1    3    3    0  503 -0.56385851426E+02  0.68767782279E+02 -0.37603703284E+03  0.38643797975E+03  0.47000000000E+01 0.  1.
         11    1    4    4    0    0 -0.22629903563E+02  0.50062281074E+01 -0.27100915942E+02  0.35659984577E+02  0.00000000000E+00 0. -1.
        -12    1    4    4    0    0 -0.18609090406E+01 -0.59463639418E+02 -0.32506926638E+03  0.33046847859E+03  0.00000000000E+00 0.  1.
</event>
<event>
12    1  0.8526130E-002  0.1878063E+03  0.7818608E-02  0.1161072E+00
         21   -1    0    0  503  502  0.00000000000E+00  0.00000000000E+00  0.17367846991E+03  0.17367846991E+03  0.00000000000E+00 0.  1.
         21   -1    0    0  501  503 -0.00000000000E+00 -0.00000000000E+00 -0.24298491267E+03  0.24298491267E+03  0.00000000000E+00 0.  1.
          6    2    1    2  501    0  0.74457220042E+02 -0.96176600712E+01 -0.12227269179E+03  0.22410221510E+03  0.17214765364E+03 0.  0.
         24    2    3    3    0    0  0.27316483045E+02 -0.73024048931E+01 -0.14761218001E+03  0.17032685686E+03  0.80139672554E+02 0.  0.
         -6    2    1    2    0  502 -0.74457220042E+02  0.96176600712E+01  0.52966249039E+02  0.19256116748E+03  0.16922766523E+03 0.  0.
        -24    2    5    5    0    0 -0.36968280713E+02 -0.40095751275E+02 -0.43200749883E+01  0.10782241152E+03  0.92912250698E+02 0.  0.
          5    1    3    3  501    0  0.47140736997E+02 -0.23152551781E+01  0.25339488214E+02  0.53775358242E+02  0.47000000000E+01 0. -1.
        -13    1    4    4    0    0 -0.12461516574E+02 -0.33948248814E+02 -0.76260022418E+02  0.84400023768E+02  0.00000000000E+00 0.  1.
         14    1    4    4    0    0  0.39777999620E+02  0.26645843921E+02 -0.71352157590E+02  0.85926833089E+02  0.00000000000E+00 0. -1.
         -5    1    5    5    0  502 -0.37488939329E+02  0.49713411346E+02  0.57286324028E+02  0.84738755952E+02  0.47000000000E+01 0.  1.
         13    1    6    6    0    0 -0.66802048698E+02 -0.37012600814E+02  0.46650310373E+01  0.76512801830E+02  0.00000000000E+00 0. -1.
        -14    1    6    6    0    0  0.29833767984E+02 -0.30831504608E+01 -0.89851060255E+01  0.31309609694E+02  0.00000000000E+00 0.  1.
</event>
<event>
12    1  0.8526130E-002  0.1868573E+03  0.7818608E-02  0.1162818E+00
         21   -1    0    0  503  502  0.00000000000E+00  0.00000000000E+00  0.24531418889E+03  0.24531418889E+03  0.00000000000E+00 0.  1.
         21   -1    0    0  501  503 -0.00000000000E+00 -0.00000000000E+00 -0.46983670241E+03  0.46983670241E+03  0.00000000000E+00 0. -1.
          6    2    1    2  501    0  0.83502902789E+01  0.54348074978E+02 -0.41353558373E+03  0.45379215285E+03  0.17858386930E+03 0.  0.
         24    2    3    3    0    0  0.22411075479E+02  0.27220697552E+02 -0.78913791804E+02  0.11774537944E+03  0.79958521518E+02 0.  0.
         -6    2    1    2    0  502 -0.83502902789E+01 -0.54348074978E+02  0.18901307021E+03  0.26135873845E+03  0.17192733597E+03 0.  0.
        -24    2    5    5    0    0 -0.92139762615E+01  0.31115006424E+02  0.13599002684E+03  0.16067002327E+03  0.79174036116E+02 0.  0.
          5    1    3    3  501    0 -0.14060785200E+02  0.27127377426E+02 -0.33462179193E+03  0.33604677341E+03  0.47000000000E+01 0. -1.
        -11    1    4    4    0    0  0.37486187715E+02  0.39207310411E+02 -0.23565491417E+02  0.59141862033E+02  0.00000000000E+00 0.  1.
         12    1    4    4    0    0 -0.15075112236E+02 -0.11986612859E+02 -0.55348300387E+02  0.58603517408E+02  0.00000000000E+00 0. -1.
         -5    1    5    5    0  502  0.86368598261E+00 -0.85463081403E+02  0.53023043365E+02  0.10068871518E+03  0.47000000000E+01 0.  1.
         11    1    6    6    0    0  0.15581120455E+02  0.47123435353E+01  0.11996305835E+03  0.12106243375E+03  0.00000000000E+00 0. -1.
        -12    1    6    6    0    0 -0.24795096716E+02  0.26402662889E+02  0.16026968488E+02  0.39607589522E+02  0.00000000000E+00 0.  1.
</event>
<event>
12    1  0.8526130E-002  0.2239167E+03  0.7818608E-02  0.1131136E+00
         21   -1    0    0  501  502  0.00000000000E+00  0.00000000000E+00  0.57558210462E+02  0.57558210462E+02  0.00000000000E+00 0.  1.
         21   -1    0    0  502  503 -0.00000000000E+00 -0.00000000000E+00 -0.15252093884E+04  0.15252093884E+04  0.00000000000E+00 0.  1.
         -6    2    1    2    0  503  0.14251178361E+03  0.14784527922E+01 -0.12525482457E+04  0.12722712534E+04  0.17171266746E+03 0.  0.
        -24    2    3    3    0    0  0.39133440499E+02 -0.27811619756E+02 -0.32161879641E+03  0.33514974596E+03  0.81128229703E+02 0.  0.
          6    2    1    2  501    0 -0.14251178361E+03 -0.14784527922E+01 -0.21510293228E+03  0.31049634549E+03  0.17270470404E+03 0.  0.
         24    2    5    5    0    0 -0.12886633181E+03 -0.15749397345E+02 -0.23670309945E+03  0.28085658444E+03  0.77443455126E+02 0.  0.
          5    1    5    5  501    0 -0.13645451805E+02  0.14270944552E+02  0.21600167171E+02  0.29639761052E+02  0.47000000000E+01 0. -1.
        -13    1    6    6    0    0 -0.53806170228E+02  0.25857257203E+02 -0.61196521548E+02  0.85491028502E+02  0.00000000000E+00 0.  1.
         14    1    6    6    0    0 -0.75060161581E+02 -0.41606654548E+02 -0.17550657790E+03  0.19536555594E+03  0.00000000000E+00 0. -1.
         -5    1    3    3    0  503  0.10337834311E+03  0.29290072548E+02 -0.93092944927E+03  0.93712150744E+03  0.47000000000E+01 0.  1.
         11    1    4    4    0    0  0.59795777356E+01 -0.29548453442E+02 -0.33274697368E+02  0.44900689701E+02  0.00000000000E+00 0. -1.
        -12    1    4    4    0    0  0.33153862764E+02  0.17368336855E+01 -0.28834409905E+03  0.29024905626E+03  0.00000000000E+00 0.  1.
</event>
<event>
12    1  0.8526130E-002  0.1904231E+03  0.7818608E-02  0.1158510E+00
         21   -1    0    0  501  502  0.00000000000E+00  0.00000000000E+00  0.24757740016E+03  0.24757740016E+03  0.00000000000E+00 0.  1.
         21   -1    0    0  502  503 -0.00000000000E+00 -0.00000000000E+00 -0.14523557511E+03  0.14523557511E+03  0.00000000000E+00 0.  1.
         -6    2    1    2    0  503 -0.14644650264E+02 -0.80881979332E+02  0.43579762774E+02  0.19534627602E+03  0.17176906436E+03 0.  0.
        -24    2    3    3    0    0 -0.20771372884E+02  0.10783897831E+02  0.57083056596E+02  0.10236994188E+03  0.81690802829E+02 0.  0.
          6    2    1    2  501    0  0.14644650264E+02  0.80881979332E+02  0.58762062273E+02  0.19746669925E+03  0.16965776431E+03 0.  0.
         24    2    5    5    0    0  0.23280239990E+02  0.28681795685E+02  0.98269068685E+02  0.13126755924E+03  0.78801949665E+02 0.  0.
          5    1    5    5  501    0 -0.86355897259E+01  0.52200183647E+02 -0.39507006412E+02  0.66199140012E+02  0.47000000000E+01 0. -1.
        -11    1    6    6    0    0 -0.26879585041E+02  0.24015815582E+02  0.48745671930E+02  0.60625176469E+02  0.00000000000E+00 0.  1.
         12    1    6    6    0    0  0.50159825031E+02  0.46659801029E+01  0.49523396756E+02  0.70642382772E+02  0.00000000000E+00 0. -1.
         -5    1    3    3    0  503  0.61267226208E+01 -0.91665877162E+02 -0.13503293822E+02  0.92976334140E+02  0.47000000000E+01 0.  1.
         13    1    4    4    0    0 -0.47165789458E+01  0.38576367185E+02  0.23681339198E+01  0.38935719852E+02  0.00000000000E+00 0. -1.
        -14    1    4    4    0    0 -0.16054793939E+02 -0.27792469354E+02  0.54714922676E+02  0.63434222031E+02  0.00000000000E+00 0.  1.
</event>
<event>
12    1  0.8526130E-002  0.1791164E+03  0.7818608E-02  0.1169831E+00
         21   -1    0    0  503  502  0.00000000000E+00  0.00000000000E+00  0.34341701346E+03  0.34341701346E+03  0.00000000000E+00 0. -1.
         21   -1    0    0  501  503 -0.00000000000E+00 -0.00000000000E+00 -0.96922334698E+02  0.96922334698E+02  0.00000000000E+00 0. -1.
          6    2    1    2  501    0  0.19493268200E+02  0.27272013177E+02  0.70231244239E+02  0.19239315407E+03  0.17595154974E+03 0.  0.
         24    2    3    3    0    0 -0.41713773777E+02  0.36033380358E+02 -0.25696714949E+01  0.96762997347E+02  0.79486042934E+02 0.  0.
         -6    2    1    2    0  502 -0.19493268200E+02 -0.27272013177E+02  0.17626343453E+03  0.24794619409E+03  0.17112792469E+03 0.  0.
        -24    2    5    5    0    0  0.28320450557E+02 -0.33003748996E+02  0.37553057691E+02  0.10103920604E+03  0.83110731245E+02 0.  0.
          5    1    3    3  501    0  0.61207041977E+02 -0.87613671810E+01  0.72800915734E+02  0.95630156720E+02  0.47000000000E+01 0. -1.
        -11    1    4    4    0    0 -0.12358218207E+01  0.20991712624E+02 -0.36311865252E+02  0.41961063053E+02  0.00000000000E+00 0.  1.
         12    1    4    4    0    0 -0.40477951956E+02  0.15041667734E+02  0.33742193757E+02  0.54801934294E+02  0.00000000000E+00 0. -1.
         -5    1    5    5    0  502 -0.47813718757E+02  0.57317358186E+01  0.13871037684E+03  0.14690698805E+03  0.47000000000E+01 0.  1.
         11    1    6    6    0    0 -0.14049773362E+02 -0.47083481913E+02  0.20661891189E+02  0.53302571684E+02  0.00000000000E+00 0. -1.
        -12    1    6    6    0    0  0.42370223919E+02  0.14079732918E+02  0.16891166502E+02  0.47736634358E+02  0.00000000000E+00 0.  1.
</event>
<event>
12    1  0.8526130E-002  0.2279303E+03  0.7818608E-02  0.1128189E+00
         21   -1    0    0  503  502  0.00000000000E+00  0.00000000000E+00  0.13857404597E+04  0.13857404597E+04  0.00000000000E+00 0.  1.
         21   -1    0    0  501  503 -0.00000000000E+00 -0.00000000000E+00 -0.74203081665E+02  0.74203081665E+02  0.00000000000E+00 0.  1.
          6    2    1    2  501    0 -0.10908306895E+03  0.10174197604E+03  0.14211596683E+03  0.26860596574E+03  0.17234172792E+03 0.  0.
         24    2    3    3    0    0 -0.58102586638E+02  0.28095252604E+02  0.40969009367E+01  0.10400280052E+03  0.81452710980E+02 0.  0.
         -6    2    1    2    0  502  0.10908306895E+03 -0.10174197604E+03  0.11694214112E+04  0.11913375756E+04  0.17172139204E+03 0.  0.
        -24    2    5    5    0    0  0.30429349145E+02 -0.76322882920E+02  0.48853561447E+03  0.50543663807E+03  0.10023981622E+03 0.  0.
          5    1    3    3  501    0 -0.50980482316E+02  0.73646723440E+02  0.13801906589E+03  0.16460316522E+03  0.47000000000E+01 0. -1.
        -13    1    4    4    0    0 -0.45737625327E+02  0.56489243205E+02 -0.55325303672E+00  0.72686113236E+02  0.00000000000E+00 0.  1.
         14    1    4    4    0    0 -0.12364961312E+02 -0.28393990602E+02  0.46501539734E+01  0.31316687285E+02  0.00000000000E+00 0. -1.
         -5    1    5    5    0  502  0.78653719810E+02 -0.25419093124E+02  0.68088579674E+03  0.68590093756E+03  0.47000000000E+01 0.  1.
         11    1    6    6    0    0  0.15097108562E+02 -0.36403453918E+02  0.43563395525E+03  0.43741293660E+03  0.00000000000E+00 0. -1.
        -12    1    6    6    0    0  0.15332240583E+02 -0.39919429001E+02  0.52901659220E+02  0.68023701468E+02  0.00000000000E+00 0.  1.
</event>
<event>
12    1  0.8526130E-002  0.2006197E+03  0.7818608E-02  0.1149236E+00
         21   -1    0    0  503  502  0.00000000000E+00  0.00000000000E+00  0.91929053653E+03  0.91929053653E+03  0.00000000000E+00 0. -1.
         21   -1    0    0  501  503 -0.00000000000E+00 -0.00000000000E+00 -0.58022680842E+02  0.58022680842E+02  0.00000000000E+00 0. -1.
          6    2    1    2  501    0  0.47251056937E+02 -0.91539391277E+02  0.18845334253E+03  0.27525063933E+03  0.17215147285E+03 0.  0.
         24    2    3    3    0    0  0.97334234690E+02 -0.59184250250E+02  0.14202406872E+03  0.19953441048E+03  0.81648123976E+02 0.  0.
         -6    2    1    2    0  502 -0.47251056937E+02  0.91539391277E+02  0.67281451316E+03  0.70206257804E+03  0.17204758596E+03 0.  0.
        -24    2    5    5    0    0  0.13031232983E+02  0.99303321984E+02  0.55306533995E+03  0.56768926380E+03  0.79742505500E+02 0.  0.
          5    1    3    3  501    0 -0.50083177754E+02 -0.32355141027E+02  0.46429273806E+02  0.75716228848E+02  0.47000000000E+01 0. -1.
        -11    1    4    4    0    0  0.20179162181E+02  0.45658474423E+01  0.78061067343E+02  0.80756273960E+02  0.00000000000E+00 0.  1.
         12    1    4    4    0    0  0.77155072510E+02 -0.63750097692E+02  0.63963001379E+02  0.11877813652E+03  0.00000000000E+00 0. -1.
         -5    1    5    5    0  502 -0.60282289920E+02 -0.77639307076E+01  0.11974917321E+03  0.13437331425E+03  0.47000000000E+01 0.  1.
         13    1    6    6    0    0 -0.30337434922E+02  0.50691553860E+02  0.33238695102E+03  0.33759602900E+03  0.00000000000E+00 0. -1.
        -14    1    6    6    0    0  0.43368667905E+02  0.48611768125E+02  0.22067838894E+03  0.23009323480E+03  0.00000000000E+00 0.  1.
</event>
<event>
12    1  0.8526130E-002  0.2237657E+03  0.7818608E-02  0.1131209E+00
         21   -1    0    0  503  502  0.00000000000E+00  0.00000000000E+00  0.57977790262E+03  0.57977790262E+03  0.00000000000E+00 0. -1.
         21   -1    0    0  501  503 -0.00000000000E+00 -0.00000000000E+00 -0.15551536298E+03  0.15551536298E+03  0.00000000000E+00 0.  1.
          6    2    1    2  501    0  0.13661674748E+03  0.37435100393E+02 -0.33562226548E+02  0.22571047102E+03  0.17249136570E+03 0.  0.
         24    2    3    3    0    0  0.93589015853E+02 -0.43450105332E+02 -0.29758646801E+02  0.13389348232E+03  0.79969194111E+02 0.  0.
         -6    2    1    2    0  502 -0.13661674748E+03 -0.37435100393E+02  0.45782476618E+03  0.50958279458E+03  0.17322120414E+03 0.  0.
        -24    2    5    5    0    0 -0.94499578224E+02 -0.82054155286E+02  0.22475712171E+03  0.26852816818E+03  0.76997134129E+02 0.  0.
          5    1    3    3  501    0  0.43027731630E+02  0.80885205725E+02 -0.38035797477E+01  0.91816988696E+02  0.47000000000E+01 0. -1.
        -11    1    4    4    0    0  0.88369066436E+02 -0.24115705415E+02  0.71734784817E+01  0.91880998819E+02  0.00000000000E+00 0.  1.
         12    1    4    4    0    0  0.52199494170E+01 -0.19334399917E+02 -0.36932125282E+02  0.42012483501E+02  0.00000000000E+00 0. -1.
         -5    1    5    5    0  502 -0.42117169259E+02  0.44619054893E+02  0.23306764447E+03  0.24105462640E+03  0.47000000000E+01 0.  1.
         11    1    6    6    0    0 -0.80508147770E+02 -0.40797106725E+02  0.19748234799E+03  0.21712955474E+03  0.00000000000E+00 0. -1.
        -12    1    6    6    0    0 -0.13991430454E+02 -0.41257048561E+02  0.27274773716E+02  0.51398613438E+02  0.00000000000E+00 0.  1.
</event>
<event>
12    1  0.8526130E-002  0.1930520E+03  0.7818608E-02  0.1155874E+00
         21   -1    0    0  503  502  0.00000000000E+00  0.00000000000E+00  0.90608575321E+02  0.90608575321E+02  0.00000000000E+00 0.  1.
         21   -1    0    0  501  503 -0.00000000000E+00 -0.00000000000E+00 -0.13454108490E+04  0.13454108490E+04  0.00000000000E+00 0.  1.
          6    2    1    2  501    0  0.67694358339E+02  0.52734519852E+02 -0.12263985187E+04  0.12415000637E+04  0.17293243166E+03 0.  0.
         24    2    3    3    0    0  0.95792006160E+02  0.75411652941E+02 -0.77659967695E+03  0.79022983627E+03  0.80579836532E+02 0.  0.
         -6    2    1    2    0  502 -0.67694358339E+02 -0.52734519852E+02 -0.28403754955E+02  0.19451936053E+03  0.17224271419E+03 0.  0.
        -24    2    5    5    0    0 -0.53276460157E+02  0.35733396514E+02 -0.47724827262E+01  0.10170247069E+03  0.78774101829E+02 0.  0.
          5    1    3    3  501    0 -0.28097647821E+02 -0.22677133089E+02 -0.44979884173E+03  0.45127022747E+03  0.47000000000E+01 0. -1.
        -13    1    4    4    0    0  0.91174572701E+02  0.45540182217E+02 -0.70757697833E+03  0.71487893462E+03  0.00000000000E+00 0.  1.
         14    1    4    4    0    0  0.46174334594E+01  0.29871470724E+02 -0.69022698616E+02  0.75350901648E+02  0.00000000000E+00 0. -1.
         -5    1    5    5    0  502 -0.14417898182E+02 -0.88467916365E+02 -0.23631272229E+02  0.92816889849E+02  0.47000000000E+01 0.  1.
         13    1    6    6    0    0  0.89203258564E+01 -0.13710269699E+02 -0.14237923871E+02  0.21685529386E+02  0.00000000000E+00 0. -1.
        -14    1    6    6    0    0 -0.62196786013E+02  0.49443666212E+02  0.94654411450E+01  0.80016941300E+02  0.00000000000E+00 0.  1.
</event>
<event>
12    1  0.8526130E-002  0.1910357E+03  0.7818608E-02  0.1162482E+00
         21   -1    0    0  503  502  0.00000000000E+00  0.00000000000E+00  0.87976405575E+02  0.87976405575E+02  0.00000000000E+00 0. -1.
         21   -1    0    0  501  503 -0.00000000000E+00 -0.00000000000E+00 -0.67515383014E+03  0.67515383014E+03  0.00000000000E+00 0. -1.
          6    2    1    2  501    0  0.63581924950E+01 -0.18301585254E+00 -0.54021993515E+03  0.56640802328E+03  0.17011763694E+03 0.  0.
         24    2    3    3    0    0  0.22332842391E+02 -0.39005047711E+02 -0.49930086528E+03  0.50759646085E+03  0.79578033391E+02 0.  0.
         -6    2    1    2    0  502 -0.63581924950E+01  0.18301585254E+00 -0.46957489416E+02  0.19672221243E+03  0.19092973301E+03 0.  0.
        -24    2    5    5    0    0  0.72198574625E+01 -0.76225693112E+02 -0.13626838236E+02  0.11213098030E+03  0.80778607255E+02 0.  0.
          5    1    3    3  501    0 -0.15974649896E+02  0.38822031858E+02 -0.40919069866E+02  0.58811562431E+02  0.47000000000E+01 0. -1.
        -13    1    4    4    0    0 -0.43544681272E+01 -0.13020869829E+02 -0.10261539513E+02  0.17140701180E+02  0.00000000000E+00 0.  1.
         14    1    4    4    0    0  0.26687310518E+02 -0.25984177882E+02 -0.48903932577E+03  0.49045575967E+03  0.00000000000E+00 0. -1.
         -5    1    5    5    0  502 -0.13578049957E+02  0.76408708964E+02 -0.33330651181E+02  0.84591232136E+02  0.47000000000E+01 0.  1.
         11    1    6    6    0    0 -0.27295007100E+02 -0.37656459737E+02 -0.32827149458E+02  0.56926690700E+02  0.00000000000E+00 0. -1.
        -12    1    6    6    0    0  0.34514864563E+02 -0.38569233375E+02  0.19200311222E+02  0.55204289597E+02  0.00000000000E+00 0.  1.
</event>
<event>
12    1  0.8526130E-002  0.2329000E+03  0.7818608E-02  0.1125029E+00
         21   -1    0    0  503  502  0.00000000000E+00  0.00000000000E+00  0.18610829111E+03  0.18610829111E+03  0.00000000000E+00 0. -1.
         21   -1    0    0  501  503 -0.00000000000E+00 -0.00000000000E+00 -0.35676359718E+03  0.35676359718E+03  0.00000000000E+00 0. -1.
          6    2    1    2  501    0 -0.88139777131E+02  0.12994998360E+03 -0.20371412312E+03  0.30763732861E+03  0.16877696361E+03 0.  0.
         24    2    3    3    0    0 -0.77715995993E+02  0.69205956044E+02 -0.20778709526E+03  0.24569242407E+03  0.79749921034E+02 0.  0.
         -6    2    1    2    0  502  0.88139777131E+02 -0.12994998360E+03  0.33058817055E+02  0.23523455968E+03  0.17200812229E+03 0.  0.
        -24    2    5    5    0    0  0.42633720224E+02 -0.28338669934E+02  0.60889005722E+02  0.12037695357E+03  0.90346143358E+02 0.  0.
          5    1    3    3  501    0 -0.10423781138E+02  0.60744027552E+02  0.40729721366E+01  0.61944904540E+02  0.47000000000E+01 0. -1.
        -11    1    4    4    0    0 -0.73850874103E+01 -0.13972717823E+02 -0.60329170918E+02  0.62364935845E+02  0.00000000000E+00 0.  1.
         12    1    4    4    0    0 -0.70330908582E+02  0.83178673867E+02 -0.14745792434E+03  0.18332748823E+03  0.00000000000E+00 0. -1.
         -5    1    5    5    0  502  0.45506056907E+02 -0.10161131366E+03 -0.27830188667E+02  0.11485760611E+03  0.47000000000E+01 0.  1.
         11    1    6    6    0    0 -0.36378499229E+01 -0.43895056199E+02  0.56101846190E+02  0.71326201754E+02  0.00000000000E+00 0. -1.
        -12    1    6    6    0    0  0.46271570147E+02  0.15556386266E+02  0.47871595329E+01  0.49050751818E+02  0.00000000000E+00 0.  1.
</event>
<event>
12    1  0.8526130E-002  0.1876093E+03  0.7818608E-02  0.1163848E+00
         21   -1    0    0  503  502  0.00000000000E+00  0.00000000000E+00  0.85818660637E+02  0.85818660637E+02  0.00000000000E+00 0. -1.
         21   -1    0    0  501  503 -0.00000000000E+00 -0.00000000000E+00 -0.62427545232E+03  0.62427545232E+03  0.00000000000E+00 0.  1.
          6    2    1    2  501    0 -0.11105892844E+02  0.73322855096E+02 -0.48455225253E+03  0.51489433202E+03  0.15756175227E+03 0.  0.
         24    2    3    3    0    0  0.45509403780E+02  0.71128483697E+02 -0.35264156543E+03  0.37125371642E+03  0.79642207803E+02 0.  0.
         -6    2    1    2    0  502  0.11105892844E+02 -0.73322855096E+02 -0.53904539156E+02  0.19519978094E+03  0.17233012854E+03 0.  0.
        -24    2    5    5    0    0 -0.49043856666E+02 -0.45685440041E+02 -0.70312827463E+02  0.12683940497E+03  0.81559068408E+02 0.  0.
          5    1    3    3  501    0 -0.56615296624E+02  0.21943713987E+01 -0.13191068710E+03  0.14364061560E+03  0.47000000000E+01 0. -1.
        -11    1    4    4    0    0  0.39801874107E+02  0.66521507528E+02 -0.35514230703E+03  0.36350427561E+03  0.00000000000E+00 0.  1.
         12    1    4    4    0    0  0.57075296731E+01  0.46069761692E+01  0.25007415966E+01  0.77494408138E+01  0.00000000000E+00 0. -1.
         -5    1    5    5    0  502  0.60149749511E+02 -0.27637415055E+02  0.16408288307E+02  0.68360375967E+02  0.47000000000E+01 0.  1.
         13    1    6    6    0    0 -0.50622450392E+02  0.14247519281E+00 -0.10889527803E+02  0.51780639226E+02  0.00000000000E+00 0. -1.
        -14    1    6    6    0    0  0.15785937260E+01 -0.45827915234E+02 -0.59423299661E+02  0.75058765747E+02  0.00000000000E+00 0.  1.
</event>
<event>
12    1  0.8526130E-002  0.1801271E+03  0.7818608E-02  0.1167747E+00
         21   -1    0    0  501  502  0.00000000000E+00  0.00000000000E+00  0.54856224545E+03  0.54856224545E+03  0.00000000000E+00 0. -1.
         21   -1    0    0  502  503 -0.00000000000E+00 -0.00000000000E+00 -0.63074409469E+02  0.63074409469E+02  0.00000000000E+00 0.  1.
         -6    2    1    2    0  503 -0.36950526859E+02 -0.35773015207E+02  0.31975431798E+03  0.36686460506E+03  0.17234199872E+03 0.  0.
        -24    2    3    3    0    0 -0.32881039221E+02 -0.36338224023E+02  0.33756840699E+03  0.34798837774E+03  0.68861109322E+02 0.  0.
          6    2    1    2  501    0  0.36950526859E+02  0.35773015207E+02  0.16573351800E+03  0.24477204986E+03  0.17262881380E+03 0.  0.
         24    2    5    5    0    0 -0.19849647496E+02  0.77294376267E+02  0.10574258090E+03  0.15219081113E+03  0.74914087252E+02 0.  0.
          5    1    5    5  501    0  0.56800174355E+02 -0.41521361060E+02  0.59990937103E+02  0.92581238734E+02  0.47000000000E+01 0. -1.
        -13    1    6    6    0    0  0.69221914793E+01  0.79525936210E+02  0.62935739469E+02  0.10165234167E+03  0.00000000000E+00 0.  1.
         14    1    6    6    0    0 -0.26771838975E+02 -0.22315599425E+01  0.42806841429E+02  0.50538469457E+02  0.00000000000E+00 0. -1.
         -5    1    3    3    0  503 -0.40694876383E+01  0.56520881560E+00 -0.17814089008E+02  0.18876227320E+02  0.47000000000E+01 0.  1.
         11    1    4    4    0    0  0.12649458339E+02 -0.17418094712E+01  0.17845846581E+03  0.17891469117E+03  0.00000000000E+00 0. -1.
        -12    1    4    4    0    0 -0.45530497560E+02 -0.34596414552E+02  0.15910994118E+03  0.16907368657E+03  0.00000000000E+00 0.  1.
</event>
<event>
12    1  0.8526130E-002  0.1856389E+03  0.7818608E-02  0.1162533E+00
         21   -1    0    0  503  502  0.00000000000E+00  0.00000000000E+00  0.34854535469E+03  0.34854535469E+03  0.00000000000E+00 0. -1.
         21   -1    0    0  501  503 -0.00000000000E+00 -0.00000000000E+00 -0.10537549043E+03  0.10537549043E+03  0.00000000000E+00 0. -1.
          6    2    1    2  501    0 -0.51320066044E+01 -0.69102894860E+02  0.64537326433E+02  0.19653722235E+03  0.17222155991E+03 0.  0.
         24    2    3    3    0    0 -0.66223525118E+02 -0.20299352453E+02  0.47877556813E+02  0.11645228426E+03  0.80444111491E+02 0.  0.
         -6    2    1    2    0  502  0.51320066044E+01  0.69102894860E+02  0.17863253783E+03  0.25738362277E+03  0.17185807554E+03 0.  0.
        -24    2    5    5    0    0  0.43857271244E+02  0.98832028533E+02  0.11183517161E+03  0.17451357002E+03  0.79098991175E+02 0.  0.
          5    1    3    3  501    0  0.61091518513E+02 -0.48803542407E+02  0.16659769621E+02  0.80084938094E+02  0.47000000000E+01 0. -1.
        -11    1    4    4    0    0 -0.14063968413E+02 -0.36200261916E+02  0.48229098020E+02  0.61921725316E+02  0.00000000000E+00 0.  1.
         12    1    4    4    0    0 -0.52159556704E+02  0.15900909463E+02 -0.35154120691E+00  0.54530558942E+02  0.00000000000E+00 0. -1.
         -5    1    5    5    0  502 -0.38725264639E+02 -0.29729133673E+02  0.66797366213E+02  0.82870052754E+02  0.47000000000E+01 0.  1.
         13    1    6    6    0    0  0.86794951805E+01  0.91173103669E+02  0.53799151543E+02  0.10621778183E+03  0.00000000000E+00 0. -1.
        -14    1    6    6    0    0  0.35177776063E+02  0.76589248643E+01  0.58036020072E+02  0.68295788191E+02  0.00000000000E+00 0.  1.
</event>
<event>
12    1  0.8526130E-002  0.2144579E+03  0.7818608E-02  0.1140379E+00
         21   -1    0    0  501  502  0.00000000000E+00  0.00000000000E+00  0.29780234731E+03  0.29780234731E+03  0.00000000000E+00 0. -1.
         21   -1    0    0  502  503 -0.00000000000E+00 -0.00000000000E+00 -0.56015545291E+03  0.56015545291E+03  0.00000000000E+00 0. -1.
         -6    2    1    2    0  503  0.24253285856E+02 -0.10539483936E+03 -0.50085220045E+03  0.54483496411E+03  0.18519156943E+03 0.  0.
        -24    2    3    3    0    0 -0.47208490365E+02 -0.10154647938E+03 -0.38030891661E+03  0.40456961339E+03  0.80631079536E+02 0.  0.
          6    2    1    2  501    0 -0.24253285856E+02  0.10539483936E+03  0.23849909485E+03  0.31312283610E+03  0.17166187173E+03 0.  0.
         24    2    5    5    0    0 -0.65257232703E+02  0.10958904472E+03  0.22276753622E+03  0.26875520204E+03  0.79597225360E+02 0.  0.
          5    1    5    5  501    0  0.41003946847E+02 -0.41942053595E+01  0.15731558631E+02  0.44367634066E+02  0.47000000000E+01 0. -1.
        -13    1    6    6    0    0  0.57073033496E+01  0.48659214723E+02  0.39247794181E+02  0.62774850355E+02  0.00000000000E+00 0.  1.
         14    1    6    6    0    0 -0.70964536052E+02  0.60929830000E+02  0.18351974204E+03  0.20598035168E+03  0.00000000000E+00 0. -1.
         -5    1    3    3    0  503  0.71461776220E+02 -0.38483599817E+01 -0.12054328383E+03  0.14026535072E+03  0.47000000000E+01 0.  1.
         11    1    4    4    0    0 -0.18098660571E+02 -0.40932121591E+02 -0.28159649410E+03  0.28513082187E+03  0.00000000000E+00 0. -1.
        -12    1    4    4    0    0 -0.29109829794E+02 -0.60614357792E+02 -0.98712422512E+02  0.11943879152E+03  0.00000000000E+00 0.  1.
</event>
<event>
12    1  0.8526130E-002  0.1972800E+03  0.7818608E-02  0.1152277E+00
         21   -1    0    0  501  502  0.00000000000E+00  0.00000000000E+00  0.56745827324E+02  0.56745827324E+02  0.00000000000E+00 0.  1.
         21   -1    0    0  502  503 -0.00000000000E+00 -0.00000000000E+00 -0.77630855090E+03  0.77630855090E+03  0.00000000000E+00 0.  1.
         -6    2    1    2    0  503  0.91237637638E+02  0.33913508899E+02 -0.50392353876E+03  0.54078793973E+03  0.17040607453E+03 0.  0.
        -24    2    3    3    0    0  0.26559634282E+02  0.76633059496E+02 -0.35499381560E+03  0.37282855011E+03  0.80015490275E+02 0.  0.
          6    2    1    2  501    0 -0.91237637638E+02 -0.33913508899E+02 -0.21563918481E+03  0.29226643849E+03  0.17159539747E+03 0.  0.
         24    2    5    5    0    0 -0.12401353958E+03 -0.18977342105E+02 -0.20531368861E+03  0.25450329907E+03  0.82938055146E+02 0.  0.
          5    1    5    5  501    0  0.32775901947E+02 -0.14936166795E+02 -0.10325496201E+02  0.37763139418E+02  0.47000000000E+01 0. -1.
        -11    1    6    6    0    0 -0.45516084400E+02 -0.13906544371E+02 -0.17200542174E+02  0.50605973625E+02  0.00000000000E+00 0.  1.
         12    1    6    6    0    0 -0.78497455185E+02 -0.50707977341E+01 -0.18811314644E+03  0.20389732544E+03  0.00000000000E+00 0. -1.
         -5    1    3    3    0  503  0.64678003356E+02 -0.42719550597E+02 -0.14892972316E+03  0.16795938962E+03  0.47000000000E+01 0.  1.
         13    1    4    4    0    0 -0.26414629038E+02  0.22063759287E+02 -0.72153425514E+02  0.79941596897E+02  0.00000000000E+00 0. -1.
        -14    1    4    4    0    0  0.52974263320E+02  0.54569300209E+02 -0.28284039009E+03  0.29288695322E+03  0.00000000000E+00 0.  1.
</event>
<event>
12    1  0.8526130E-002  0.1787386E+03  0.7818608E-02  0.1169106E+00
         21   -1    0    0  503  502  0.00000000000E+00  0.00000000000E+00  0.63935061400E+03  0.63935061400E+03  0.00000000000E+00 0.  1.
         21   -1    0    0  501  503 -0.00000000000E+00 -0.00000000000E+00 -0.91468229320E+02  0.91468229320E+02  0.00000000000E+00 0.  1.
          6    2    1    2  501    0  0.32471080986E+02  0.35888619175E+02  0.52046057295E+03  0.55029691661E+03  0.17206139703E+03 0.  0.
         24    2    3    3    0    0 -0.47096130309E+02  0.38930426118E+02  0.31048578355E+03  0.32568236702E+03  0.77032193490E+02 0.  0.
         -6    2    1    2    0  502 -0.32471080986E+02 -0.35888619175E+02  0.27421811729E+02  0.18052192671E+03  0.17173772497E+03 0.  0.
        -24    2    5    5    0    0  0.89423611223E+01  0.49324355756E+02  0.75723209128E+01  0.83607446011E+02  0.66483133886E+02 0.  0.
          5    1    3    3  501    0  0.79567211296E+02 -0.30418069426E+01  0.20997478940E+03  0.22461454959E+03  0.47000000000E+01 0. -1.
        -13    1    4    4    0    0  0.49452412031E+00  0.28987580114E+02  0.22875046621E+03  0.23058035507E+03  0.00000000000E+00 0.  1.
         14    1    4    4    0    0 -0.47590654430E+02  0.99428460045E+01  0.81735317343E+02  0.95102011950E+02  0.00000000000E+00 0. -1.
         -5    1    5    5    0  502 -0.41413442109E+02 -0.85212974931E+02  0.19849490817E+02  0.96914480701E+02  0.47000000000E+01 0.  1.
         13    1    6    6    0    0  0.64452328081E+01 -0.63990850247E+01  0.23834103756E+02  0.25505956499E+02  0.00000000000E+00 0. -1.
        -14    1    6    6    0    0  0.24971283142E+01  0.55723440780E+02 -0.16261782843E+02  0.58101489511E+02  0.00000000000E+00 0.  1.
</event>
<event>
12    1  0.8526130E-002  0.1775475E+03  0.7818608E-02  0.1170228E+00
         21   -1    0    0  503  502  0.00000000000E+00  0.00000000000E+00  0.20272881877E+03  0.20272881877E+03  0.00000000000E+00 0.  1.
         21   -1    0    0  501  503 -0.00000000000E+00 -0.00000000000E+00 -0.15672099332E+03  0.15672099332E+03  0.00000000000E+00 0. -1.
          6    2    1    2  501    0 -0.96995055850E+01 -0.41928944833E+02  0.64092542165E+01  0.17754001083E+03  0.17212571012E+03 0.  0.
         24    2    3    3    0    0 -0.72119925648E+02 -0.13995213778E+02 -0.13928406637E+01  0.10855041121E+03  0.79900576251E+02 0.  0.
         -6    2    1    2    0  502  0.96995055850E+01  0.41928944833E+02  0.39598571232E+02  0.18190980125E+03  0.17225275651E+03 0.  0.
        -24    2    5    5    0    0 -0.29857656256E+02  0.15353281987E+02 -0.34663980548E+02  0.93546621675E+02  0.80138479986E+02 0.  0.
          5    1    3    3  501    0  0.62420420063E+02 -0.27933731055E+02  0.78020948802E+01  0.68989599622E+02  0.47000000000E+01 0. -1.
        -13    1    4    4    0    0 -0.20242146329E+02  0.32595929524E+02 -0.51878430944E+01  0.38718894942E+02  0.00000000000E+00 0.  1.
         14    1    4    4    0    0 -0.51877779318E+02 -0.46591143302E+02  0.37950024307E+01  0.69831516271E+02  0.00000000000E+00 0. -1.
         -5    1    5    5    0  502  0.39557161841E+02  0.26575662846E+02  0.74262551780E+02  0.88363179580E+02  0.47000000000E+01 0.  1.
         13    1    6    6    0    0  0.16187169242E+02 -0.17962288204E+02  0.44074174031E+01  0.24578315112E+02  0.00000000000E+00 0. -1.
        -14    1    6    6    0    0 -0.46044825498E+02  0.33315570191E+02 -0.39071397951E+02  0.68968306563E+02  0.00000000000E+00 0.  1.
</event>
<event>
12    1  0.8526130E-002  0.2055561E+03  0.7818608E-02  0.1145201E+00
         21   -1    0    0  503  502  0.00000000000E+00  0.00000000000E+00  0.40333878044E+03  0.40333878044E+03  0.00000000000E+00 0.  1.
         21   -1    0    0  501  503 -0.00000000000E+00 -0.00000000000E+00 -0.10686460089E+03  0.10686460089E+03  0.00000000000E+00 0.  1.
          6    2    1    2  501    0  0.83266847614E+01 -0.11318452855E+03  0.11114653437E+03  0.23368112840E+03  0.17138624940E+03 0.  0.
         24    2    3    3    0    0  0.39812823694E+02 -0.10739223528E+03  0.26122741559E+02  0.14270825909E+03  0.81025282827E+02 0.  0.
         -6    2    1    2    0  502 -0.83266847614E+01  0.11318452855E+03  0.18532764518E+03  0.27652225294E+03  0.17099166389E+03 0.  0.
        -24    2    5    5    0    0 -0.15537542419E+02 -0.12194256872E+02  0.38219847544E+02  0.83041942759E+02  0.71028813772E+02 0.  0.
          5    1    3    3  501    0 -0.31486138933E+02 -0.57922932732E+01  0.85023792813E+02  0.90972869311E+02  0.47000000000E+01 0. -1.
        -11    1    4    4    0    0  0.21824633477E+02 -0.11434791211E+03  0.34882561739E+02  0.12152593445E+03  0.00000000000E+00 0.  1.
         12    1    4    4    0    0  0.17988190217E+02  0.69556768339E+01 -0.87598201793E+01  0.21182324638E+02  0.00000000000E+00 0. -1.
         -5    1    5    5    0  502  0.72108576581E+01  0.12537878542E+03  0.14710779763E+03  0.19348031018E+03  0.47000000000E+01 0.  1.
         11    1    6    6    0    0 -0.25643468256E+02 -0.33301154010E+02  0.48853959191E+01  0.42313371597E+02  0.00000000000E+00 0. -1.
        -12    1    6    6    0    0  0.10105925836E+02  0.21106897138E+02  0.33334451624E+02  0.40728571162E+02  0.00000000000E+00 0.  1.
</event>
<event>
12    1  0.8526130E-002  0.2143937E+03  0.7818608E-02  0.1138328E+00
         21   -1    0    0  503  502  0.00000000000E+00  0.00000000000E+00  0.49579630902E+02  0.49579630902E+02  0.00000000000E+00 0.  1.
         21   -1    0    0  501  503 -0.00000000000E+00 -0.00000000000E+00 -0.10445117944E+04  0.10445117944E+04  0.00000000000E+00 0.  1.
          6    2    1    2  501    0 -0.86767833628E+02  0.91916646498E+02 -0.68528743192E+03  0.71804144293E+03  0.17316848028E+03 0.  0.
         24    2    3    3    0    0 -0.89002230112E+02 -0.36410895653E+01 -0.38031117003E+03  0.39840276604E+03  0.78444397118E+02 0.  0.
         -6    2    1    2    0  502  0.86767833628E+02 -0.91916646498E+02 -0.30964473157E+03  0.37604998236E+03  0.17191975625E+03 0.  0.
        -24    2    5    5    0    0  0.23751011858E+02 -0.46554007168E+02 -0.27418011929E+03  0.29055894425E+03  0.80736460940E+02 0.  0.
          5    1    3    3  501    0  0.22343964833E+01  0.95557736063E+02 -0.30497626189E+03  0.31963867689E+03  0.47000000000E+01 0. -1.
        -11    1    4    4    0    0 -0.24154720865E+02  0.11426724553E+02 -0.25596458053E+03  0.25735556544E+03  0.00000000000E+00 0.  1.
         12    1    4    4    0    0 -0.64847509247E+02 -0.15067814119E+02 -0.12434658950E+03  0.14104720060E+03  0.00000000000E+00 0. -1.
         -5    1    5    5    0  502  0.63016821770E+02 -0.45362639330E+02 -0.35464612286E+02  0.85491038113E+02  0.47000000000E+01 0.  1.
         13    1    6    6    0    0 -0.60302545546E+01 -0.18559404858E+02 -0.22822169620E+03  0.22905448718E+03  0.00000000000E+00 0. -1.
        -14    1    6    6    0    0  0.29781266413E+02 -0.27994602309E+02 -0.45958423083E+02  0.61504457074E+02  0.00000000000E+00 0.  1.
</event>
<event>
12    1  0.8526130E-002  0.1851374E+03  0.7818608E-02  0.1163907E+00
         21   -1    0    0  501  502  0.00000000000E+00  0.00000000000E+00  0.21410360105E+03  0.21410360105E+03  0.00000000000E+00 0.  1.
         21   -1    0    0  502  503 -0.00000000000E+00 -0.00000000000E+00 -0.30251036714E+03  0.30251036714E+03  0.00000000000E+00 0.  1.
         -6    2    1    2    0  503 -0.25580279350E+02  0.63043291668E+02 -0.22339085801E+03  0.28749266594E+03  0.16768944574E+03 0.  0.
        -24    2    3    3    0    0 -0.36707856335E+02  0.42728150977E+02 -0.47110537230E+02  0.10963494358E+03  0.81407963572E+02 0.  0.
          6    2    1    2  501    0  0.25580279350E+02 -0.63043291668E+02  0.13498409191E+03  0.22912130225E+03  0.17218321277E+03 0.  0.
         24    2    5    5    0    0  0.67898294378E+02 -0.45386911097E+02  0.36203406293E+02  0.12011544910E+03  0.80292492840E+02 0.  0.
          5    1    5    5  501    0 -0.42318015028E+02 -0.17656380571E+02  0.98780685615E+02  0.10900585315E+03  0.47000000000E+01 0. -1.
        -13    1    6    6    0    0  0.30387935872E+02 -0.60541330573E+02  0.41304143885E+02  0.79339218903E+02  0.00000000000E+00 0.  1.
         14    1    6    6    0    0  0.37510358506E+02  0.15154419476E+02 -0.51007375923E+01  0.40776230195E+02  0.00000000000E+00 0. -1.
         -5    1    3    3    0  503  0.11127576985E+02  0.20315140691E+02 -0.17628032078E+03  0.17785772236E+03  0.47000000000E+01 0.  1.
         13    1    4    4    0    0  0.24969126660E+02  0.23219423643E+02 -0.12886888627E+02  0.36450937148E+02  0.00000000000E+00 0. -1.
        -14    1    4    4    0    0 -0.61676982995E+02  0.19508727334E+02 -0.34223648603E+02  0.73184006431E+02  0.00000000000E+00 0.  1.
</event>
<event>
12    1  0.8526130E-002  0.2086592E+03  0.7818608E-02  0.1144672E+00
         21   -1    0    0  501  502  0.00000000000E+00  0.00000000000E+00  0.98491549666E+02  0.98491549666E+02  0.00000000000E+00 0.  1.
         21   -1    0    0  502  503 -0.00000000000E+00 -0.00000000000E+00 -0.16479288912E+04  0.16479288912E+04  0.00000000000E+00 0.  1.
         -6    2    1    2    0  503 -0.17963380831E+02  0.94521869375E+02 -0.15232136903E+04  0.15361198474E+04  0.17385963461E+03 0.  0.
        -24    2    3    3    0    0 -0.73288486533E+02  0.74466082774E+02 -0.12315476944E+04  0.12385391944E+04  0.79707043317E+02 0.  0.
          6    2    1    2  501    0  0.17963380831E+02 -0.94521869375E+02 -0.26223651239E+02  0.21030059343E+03  0.18515289053E+03 0.  0.
         24    2    5    5    0    0 -0.18912727503E+02 -0.11741184120E+02  0.46633471479E+02  0.93927316653E+02  0.78435409639E+02 0.  0.
          5    1    5    5  501    0  0.36876108334E+02 -0.82780685254E+02 -0.72857122718E+02  0.11637327678E+03  0.47000000000E+01 0. -1.
        -11    1    6    6    0    0  0.28861270445E+02 -0.98407079108E+01  0.57736521334E+01  0.31034618136E+02  0.00000000000E+00 0.  1.
         12    1    6    6    0    0 -0.47773997948E+02 -0.19004762096E+01  0.40859819345E+02  0.62892698517E+02  0.00000000000E+00 0. -1.
         -5    1    3    3    0  503  0.55325105702E+02  0.20055786601E+02 -0.29166599591E+03  0.29758065305E+03  0.47000000000E+01 0.  1.
         13    1    4    4    0    0 -0.42971338168E+02  0.84924969158E+02 -0.76642248193E+03  0.77230965752E+03  0.00000000000E+00 0. -1.
        -14    1    4    4    0    0 -0.30317148365E+02 -0.10458886384E+02 -0.46512521246E+03  0.46622953687E+03  0.00000000000E+00 0.  1.
</event>
<event>
12    1  0.8526130E-002  0.3457444E+03  0.7818608E-02  0.1064497E+00
         21   -1    0    0  501  502  0.00000000000E+00  0.00000000000E+00  0.10257433086E+04  0.10257433086E+04  0.00000000000E+00 0. -1.
         21   -1    0    0  502  503 -0.00000000000E+00 -0.00000000000E+00 -0.11861871958E+03  0.11861871958E+03  0.00000000000E+00 0.  1.
         -6    2    1    2    0  503 -0.29895229465E+03  0.20464565030E+02  0.53690082686E+03  0.63859351510E+03  0.17247581498E+03 0.  0.
        -24    2    3    3    0    0 -0.31199148914E+03  0.33581711594E+02  0.52268304604E+03  0.61479613250E+03  0.79437379586E+02 0.  0.
          6    2    1    2  501    0  0.29895229465E+03 -0.20464565030E+02  0.37022376217E+03  0.50576851308E+03  0.17013195424E+03 0.  0.
         24    2    5    5    0    0  0.11478668201E+03 -0.60801060906E+02  0.14249373662E+03  0.21008784020E+03  0.83424722060E+02 0.  0.
          5    1    5    5  501    0  0.18416561264E+03  0.40336495876E+02  0.22773002555E+03  0.29568067288E+03  0.47000000000E+01 0. -1.
        -13    1    6    6    0    0  0.32229494327E+02  0.43070746580E+01 -0.59730631277E+00  0.32521500142E+02  0.00000000000E+00 0.  1.
         14    1    6    6    0    0  0.82557187685E+02 -0.65108135564E+02  0.14309104293E+03  0.17756634006E+03  0.00000000000E+00 0. -1.
         -5    1    3    3    0  503  0.13039194495E+02 -0.13117146564E+02  0.14217780819E+02  0.23797382597E+02  0.47000000000E+01 0.  1.
         11    1    4    4    0    0 -0.23705635009E+02 -0.70163437698E+01  0.89653770844E+02  0.92999918482E+02  0.00000000000E+00 0. -1.
        -12    1    4    4    0    0 -0.28828585413E+03  0.40598055364E+02  0.43302927519E+03  0.52179621402E+03  0.00000000000E+00 0.  1.
</event>
<event>
12    1  0.8526130E-002  0.2430623E+03  0.7818608E-02  0.1119129E+00
         21   -1    0    0  503  502  0.00000000000E+00  0.00000000000E+00  0.12927381008E+03  0.12927381008E+03  0.00000000000E+00 0.  1.
         21   -1    0    0  501  503 -0.00000000000E+00 -0.00000000000E+00 -0.53908274135E+03  0.53908274135E+03  0.00000000000E+00 0. -1.
          6    2    1    2  501    0 -0.77798082238E+02  0.13894527306E+03 -0.34397535293E+03  0.41653652182E+03  0.17270002918E+03 0.  0.
         24    2    3    3    0    0  0.12022290485E+02  0.45922494108E+02 -0.21578487395E+03  0.23439419928E+03  0.78256743450E+02 0.  0.
         -6    2    1    2    0  502  0.77798082238E+02 -0.13894527306E+03 -0.65833578335E+02  0.25182002961E+03  0.18363261358E+03 0.  0.
        -24    2    5    5    0    0  0.34086881073E+02 -0.33184906506E+01  0.12653046921E+02  0.89070118524E+02  0.81243206338E+02 0.  0.
          5    1    3    3  501    0 -0.89820372722E+02  0.93022778949E+02 -0.12819047898E+03  0.18214232254E+03  0.47000000000E+01 0. -1.
        -11    1    4    4    0    0 -0.10777844536E+01 -0.17683186529E+02 -0.14502207238E+02  0.22894774948E+02  0.00000000000E+00 0.  1.
         12    1    4    4    0    0  0.13100074938E+02  0.63605680637E+02 -0.20128266672E+03  0.21149942433E+03  0.00000000000E+00 0. -1.
         -5    1    5    5    0  502  0.43711201165E+02 -0.13562678241E+03 -0.78486625257E+02  0.16274991108E+03  0.47000000000E+01 0.  1.
         11    1    6    6    0    0  0.15836443406E+02  0.21003186348E+02 -0.27924966658E+02  0.38363140374E+02  0.00000000000E+00 0. -1.
        -12    1    6    6    0    0  0.18250437667E+02 -0.24321676998E+02  0.40578013579E+02  0.50706978150E+02  0.00000000000E+00 0.  1.
</event>
<event>
12    1  0.8526130E-002  0.1856340E+03  0.7818608E-02  0.1162852E+00
         21   -1    0    0  503  502  0.00000000000E+00  0.00000000000E+00  0.13598347357E+03  0.13598347357E+03  0.00000000000E+00 0.  1.
         21   -1    0    0  501  503 -0.00000000000E+00 -0.00000000000E+00 -0.27807656332E+03  0.27807656332E+03  0.00000000000E+00 0.  1.
          6    2    1    2  501    0 -0.14134672201E+02 -0.69404013766E+02 -0.13579096635E+03  0.22999815718E+03  0.17159038341E+03 0.  0.
         24    2    3    3    0    0 -0.68940776643E+02 -0.44304145240E+02 -0.49953078230E+02  0.12500317863E+03  0.80092425814E+02 0.  0.
         -6    2    1    2    0  502  0.14134672201E+02  0.69404013766E+02 -0.63021234014E+01  0.18406187971E+03  0.16977147204E+03 0.  0.
        -24    2    5    5    0    0 -0.31239338931E+02 -0.18241749980E+01 -0.37605243458E+02  0.93871907508E+02  0.80115895878E+02 0.  0.
          5    1    3    3  501    0  0.54806104442E+02 -0.25099868526E+02 -0.85837888121E+02  0.10499497855E+03  0.47000000000E+01 0. -1.
        -13    1    4    4    0    0 -0.50442395107E+02 -0.29594324565E+02 -0.71947322346E+02  0.92718263915E+02  0.00000000000E+00 0.  1.
         14    1    4    4    0    0 -0.18498381536E+02 -0.14709820675E+02  0.21994244116E+02  0.32284914713E+02  0.00000000000E+00 0. -1.
         -5    1    5    5    0  502  0.45374011132E+02  0.71228188764E+02  0.31303120057E+02  0.90189972204E+02  0.47000000000E+01 0.  1.
         13    1    6    6    0    0 -0.31140719078E+02  0.20674541326E+02 -0.54253370992E+02  0.65883300674E+02  0.00000000000E+00 0. -1.
        -14    1    6    6    0    0 -0.98619852946E-01 -0.22498716324E+02  0.16648127533E+02  0.27988606834E+02  0.00000000000E+00 0.  1.
</event>
<event>
12    1  0.8526130E-002  0.1754086E+03  0.7818608E-02  0.1172869E+00
         21   -1    0    0  503  502  0.00000000000E+00  0.00000000000E+00  0.44025145406E+02  0.44025145406E+02  0.00000000000E+00 0.  1.
         21   -1    0    0  501  503 -0.00000000000E+00 -0.00000000000E+00 -0.10450072107E+04  0.10450072107E+04  0.00000000000E+00 0.  1.
          6    2    1    2  501    0 -0.50921119228E+01 -0.22124818120E+02 -0.18529341209E+03  0.25515057870E+03  0.17393312527E+03 0.  0.
         24    2    3    3    0    0 -0.27859190416E+02  0.33393584130E+02 -0.45363872890E+02  0.10282527288E+03  0.81387282965E+02 0.  0.
         -6    2    1    2    0  502  0.50921119228E+01  0.22124818120E+02 -0.81568865323E+03  0.83388177743E+03  0.17174225613E+03 0.  0.
        -24    2    5    5    0    0 -0.52300826489E+02  0.33130400424E+02 -0.65613380623E+03  0.66389674449E+03  0.80089423695E+02 0.  0.
          5    1    3    3  501    0  0.22767078493E+02 -0.55518402249E+02 -0.13992953920E+03  0.15232530582E+03  0.47000000000E+01 0. -1.
        -11    1    4    4    0    0 -0.27604280972E+02  0.55451190477E+01  0.18132934581E+02  0.33489520597E+02  0.00000000000E+00 0.  1.
         12    1    4    4    0    0 -0.25490944372E+00  0.27848465082E+02 -0.63496807471E+02  0.69335752288E+02  0.00000000000E+00 0. -1.
         -5    1    5    5    0  502  0.57392938412E+02 -0.11005582304E+02 -0.15955484700E+03  0.16998503294E+03  0.47000000000E+01 0.  1.
         11    1    6    6    0    0 -0.32499263651E+01 -0.21243452111E+02 -0.70512282590E+02  0.73714505188E+02  0.00000000000E+00 0. -1.
        -12    1    6    6    0    0 -0.49050900124E+02  0.54373852534E+02 -0.58562152364E+03  0.59018223930E+03  0.00000000000E+00 0.  1.
</event>
<event>
12    1  0.8526130E-002  0.2203069E+03  0.7818608E-02  0.1134084E+00
         21   -1    0    0  501  502  0.00000000000E+00  0.00000000000E+00  0.15300091502E+03  0.15300091502E+03  0.00000000000E+00 0. -1.
         21   -1    0    0  502  503 -0.00000000000E+00 -0.00000000000E+00 -0.67866665880E+03  0.67866665880E+03  0.00000000000E+00 0. -1.
         -6    2    1    2    0  503  0.92016033877E+02 -0.97339809677E+02 -0.56704361329E+03  0.60750858910E+03  0.17200650399E+03 0.  0.
        -24    2    3    3    0    0  0.58149833841E+02 -0.13383532114E+03 -0.45612353455E+03  0.48583609537E+03  0.81821369060E+02 0.  0.
          6    2    1    2  501    0 -0.92016033877E+02  0.97339809677E+02  0.41377869515E+02  0.22415898472E+03  0.17490892861E+03 0.  0.
         24    2    5    5    0    0 -0.29029857554E+02  0.12463043662E+03  0.23268355356E+02  0.15301068024E+03  0.80593880334E+02 0.  0.
          5    1    5    5  501    0 -0.62986176323E+02 -0.27290626939E+02  0.18109514159E+02  0.71148304475E+02  0.47000000000E+01 0. -1.
        -11    1    6    6    0    0 -0.53635293722E+02  0.56887657510E+02  0.34448490736E+01  0.78261211943E+02  0.00000000000E+00 0.  1.
         12    1    6    6    0    0  0.24605436168E+02  0.67742779106E+02  0.19823506282E+02  0.74749468302E+02  0.00000000000E+00 0. -1.
         -5    1    3    3    0  503  0.33866200036E+02  0.36495511464E+02 -0.11092007874E+03  0.12167249373E+03  0.47000000000E+01 0.  1.
         11    1    4    4    0    0  0.77240786132E+02 -0.86060867312E+02 -0.30426331709E+03  0.32549773894E+03  0.00000000000E+00 0. -1.
        -12    1    4    4    0    0 -0.19090952291E+02 -0.47774453830E+02 -0.15186021746E+03  0.16033835643E+03  0.00000000000E+00 0.  1.
</event>
<event>
12    1  0.8526130E-002  0.2901333E+03  0.7818608E-02  0.1090517E+00
         21   -1    0    0  503  502  0.00000000000E+00  0.00000000000E+00  0.29463182660E+03  0.29463182660E+03  0.00000000000E+00 0.  1.
         21   -1    0    0  501  503 -0.00000000000E+00 -0.00000000000E+00 -0.35868550591E+03  0.35868550591E+03  0.00000000000E+00 0. -1.
          6    2    1    2  501    0 -0.14759135535E+03  0.18151287197E+03 -0.18108806606E+03  0.34046849048E+03  0.16851045804E+03 0.  0.
         24    2    3    3    0    0 -0.11685552621E+03  0.11464692898E+03 -0.49065841331E+02  0.18924777976E+03  0.81290423970E+02 0.  0.
         -6    2    1    2    0  502  0.14759135535E+03 -0.18151287197E+03  0.11703438675E+03  0.31284884204E+03  0.17160192137E+03 0.  0.
        -24    2    5    5    0    0  0.16274721209E+03 -0.18330052488E+03  0.13356526925E+03  0.28986502660E+03  0.78078902615E+02 0.  0.
          5    1    3    3  501    0 -0.30735829149E+02  0.66865942989E+02 -0.13202222473E+03  0.15122071071E+03  0.47000000000E+01 0. -1.
        -11    1    4    4    0    0 -0.23846071772E+02  0.77648320291E+02 -0.10184800383E+02  0.81863465244E+02  0.00000000000E+00 0.  1.
         12    1    4    4    0    0 -0.93009454433E+02  0.36998608691E+02 -0.38881040948E+02  0.10738431452E+03  0.00000000000E+00 0. -1.
         -5    1    5    5    0  502 -0.15155856731E+02  0.17876529073E+01 -0.16530882494E+02  0.22983815441E+02  0.47000000000E+01 0.  1.
         13    1    6    6    0    0  0.55363972788E+02 -0.25849314743E+02  0.79693694774E+01  0.61618726094E+02  0.00000000000E+00 0. -1.
        -14    1    6    6    0    0  0.10738323930E+03 -0.15745121013E+03  0.12559589977E+03  0.22824630050E+03  0.00000000000E+00 0.  1.
</event>
<event>
12    1  0.8526130E-002  0.1878788E+03  0.7818608E-02  0.1161093E+00
         21   -1    0    0  501  502  0.00000000000E+00  0.00000000000E+00  0.17065609499E+03  0.17065609499E+03  0.00000000000E+00 0.  1.
         21   -1    0    0  502  503 -0.00000000000E+00 -0.00000000000E+00 -0.20353029439E+03  0.20353029439E+03  0.00000000000E+00 0. -1.
         -6    2    1    2    0  503 -0.55348577510E+02 -0.56799459040E+02 -0.14030261883E+02  0.18840196170E+03  0.17031972095E+03 0.  0.
        -24    2    3    3    0    0 -0.45036835242E+02 -0.90367492676E+02 -0.48855431192E+02  0.13872271726E+03  0.81624376665E+02 0.  0.
          6    2    1    2  501    0  0.55348577510E+02  0.56799459040E+02 -0.18843937514E+02  0.18578442768E+03  0.16694644652E+03 0.  0.
         24    2    5    5    0    0  0.12402148067E+02  0.95616116043E+02 -0.14694787432E+02  0.12755699334E+03  0.82210673573E+02 0.  0.
          5    1    5    5  501    0  0.42946429443E+02 -0.38816657002E+02 -0.41491500819E+01  0.58227434334E+02  0.47000000000E+01 0. -1.
        -11    1    6    6    0    0  0.40108237184E+02  0.24776464963E+02  0.87748832520E+01  0.47953545043E+02  0.00000000000E+00 0.  1.
         12    1    6    6    0    0 -0.27706089118E+02  0.70839651080E+02 -0.23469670684E+02  0.79603448300E+02  0.00000000000E+00 0. -1.
         -5    1    3    3    0  503 -0.10311742268E+02  0.33568033636E+02  0.34825169310E+02  0.49679244441E+02  0.47000000000E+01 0.  1.
         13    1    4    4    0    0  0.17930029991E+02 -0.70198359055E+01 -0.25032940421E+02  0.31581833034E+02  0.00000000000E+00 0. -1.
        -14    1    4    4    0    0 -0.62966865233E+02 -0.83347656771E+02 -0.23822490771E+02  0.10714088423E+03  0.00000000000E+00 0.  1.
</event>
<event>
12    1  0.8526130E-002  0.1917110E+03  0.7818608E-02  0.1157051E+00
         21   -1    0    0  503  502  0.00000000000E+00  0.00000000000E+00  0.70031383813E+03  0.70031383813E+03  0.00000000000E+00 0.  1.
         21   -1    0    0  501  503 -0.00000000000E+00 -0.00000000000E+00 -0.56698721536E+02  0.56698721536E+02  0.00000000000E+00 0.  1.
          6    2    1    2  501    0  0.72406178197E+02  0.45544690724E+02  0.21715870446E+03  0.28967395729E+03  0.17156959262E+03 0.  0.
         24    2    3    3    0    0  0.85249841166E+02 -0.20899390639E+01  0.76243721061E+02  0.14029812196E+03  0.81231488718E+02 0.  0.
         -6    2    1    2    0  502 -0.72406178197E+02 -0.45544690724E+02  0.42645641213E+03  0.46733860238E+03  0.17094830894E+03 0.  0.
        -24    2    5    5    0    0 -0.46750152157E+02 -0.24272445881E+02  0.42277050343E+03  0.43347983696E+03  0.79969632503E+02 0.  0.
          5    1    3    3  501    0 -0.12843662969E+02  0.47634629788E+02  0.14091498340E+03  0.14937583533E+03  0.47000000000E+01 0. -1.
        -11    1    4    4    0    0  0.55400199420E+02 -0.40834062536E+02  0.42747033775E+02  0.81017971189E+02  0.00000000000E+00 0.  1.
         12    1    4    4    0    0  0.29849641746E+02  0.38744123472E+02  0.33496687286E+02  0.59280150768E+02  0.00000000000E+00 0. -1.
         -5    1    5    5    0  502 -0.25656026039E+02 -0.21272244843E+02  0.36859087010E+01  0.33858765420E+02  0.47000000000E+01 0.  1.
         11    1    6    6    0    0  0.38535503652E+00 -0.31451715035E+01 -0.31326608257E+01  0.44558014026E+01  0.00000000000E+00 0. -1.
        -12    1    6    6    0    0 -0.47135507194E+02 -0.21127274377E+02  0.42590316426E+03  0.42902403556E+03  0.00000000000E+00 0.  1.
</event>
<event>
12    1  0.8526130E-002  0.1757632E+03  0.7818608E-02  0.1172088E+00
         21   -1    0    0  503  502  0.00000000000E+00  0.00000000000E+00  0.57213354506E+02  0.57213354506E+02  0.00000000000E+00 0.  1.
         21   -1    0    0  501  503 -0.00000000000E+00 -0.00000000000E+00 -0.74550705236E+03  0.74550705236E+03  0.00000000000E+00 0.  1.
          6    2    1    2  501    0 -0.22531441410E+01  0.28505417971E+02 -0.55599499948E+03  0.58311503546E+03  0.17342165268E+03 0.  0.
         24    2    3    3    0    0  0.53484886688E+02  0.56999262319E+02 -0.33806855402E+03  0.35632735308E+03  0.81051134037E+02 0.  0.
         -6    2    1    2    0  502  0.22531441410E+01 -0.28505417971E+02 -0.13229869837E+03  0.21960537141E+03  0.17293333411E+03 0.  0.
        -24    2    5    5    0    0  0.58288189496E+02  0.19053366965E+02 -0.66289966814E+02  0.12070639783E+03  0.80094512607E+02 0.  0.
          5    1    3    3  501    0 -0.55738030829E+02 -0.28493844348E+02 -0.21792644547E+03  0.22678768238E+03  0.47000000000E+01 0. -1.
        -11    1    4    4    0    0  0.22618351875E+02 -0.17676888205E+02 -0.56224544356E+02  0.63128928442E+02  0.00000000000E+00 0.  1.
         12    1    4    4    0    0  0.30866534813E+02  0.74676150524E+02 -0.28184400966E+03  0.29319842464E+03  0.00000000000E+00 0. -1.
         -5    1    5    5    0  502 -0.56035045355E+02 -0.47558784936E+02 -0.66008731561E+02  0.98898973578E+02  0.47000000000E+01 0.  1.
         13    1    6    6    0    0  0.13203548227E+02 -0.30848696106E+02 -0.20008719447E+02  0.39068204350E+02  0.00000000000E+00 0. -1.
        -14    1    6    6    0    0  0.45084641269E+02  0.49902063071E+02 -0.46281247367E+02  0.81638193481E+02  0.00000000000E+00 0.  1.
</event>
<event>
12    1  0.8526130E-002  0.2866368E+03  0.7818608E-02  0.1092178E+00
         21   -1    0    0  503  502  0.00000000000E+00  0.00000000000E+00  0.80867389077E+02  0.80867389077E+02  0.00000000000E+00 0. -1.
         21   -1    0    0  501  503 -0.00000000000E+00 -0.00000000000E+00 -0.10948654846E+04  0.10948654846E+04  0.00000000000E+00 0. -1.
          6    2    1    2  501    0  0.22211623225E+03 -0.54155506695E+02 -0.66674191641E+03  0.72574473038E+03  0.17289358299E+03 0.  0.
         24    2    3    3    0    0  0.17093513339E+03 -0.10334207550E+03 -0.48196600586E+03  0.52774712800E+03  0.79544930080E+02 0.  0.
         -6    2    1    2    0  502 -0.22211623225E+03  0.54155506695E+02 -0.34725617916E+03  0.44998814335E+03  0.17214539102E+03 0.  0.
        -24    2    5    5    0    0 -0.56715530739E+02 -0.26558255045E+02 -0.10901737503E+03  0.14890356854E+03  0.79784035534E+02 0.  0.
          5    1    3    3  501    0  0.51181098859E+02  0.49186568806E+02 -0.18477591055E+03  0.19799760238E+03  0.47000000000E+01 0. -1.
        -11    1    4    4    0    0 -0.54078391393E+01  0.42167998078E+01 -0.69456065750E+01  0.97605110250E+01  0.00000000000E+00 0.  1.
         12    1    4    4    0    0  0.17634297253E+03 -0.10755887531E+03 -0.47502039929E+03  0.51798661697E+03  0.00000000000E+00 0. -1.
         -5    1    5    5    0  502 -0.16540070151E+03  0.80713761740E+02 -0.23823880413E+03  0.30108457481E+03  0.47000000000E+01 0.  1.
         11    1    6    6    0    0 -0.15087097185E+01  0.68478985871E+01 -0.76179029051E+02  0.76501074419E+02  0.00000000000E+00 0. -1.
        -12    1    6    6    0    0 -0.55206821021E+02 -0.33406153632E+02 -0.32838345981E+02  0.72402494118E+02  0.00000000000E+00 0.  1.
</event>
<event>
12    1  0.8526130E-002  0.3118147E+03  0.7818608E-02  0.1079531E+00
         21   -1    0    0  503  502  0.00000000000E+00  0.00000000000E+00  0.15049368916E+04  0.15049368916E+04  0.00000000000E+00 0. -1.
         21   -1    0    0  501  503 -0.00000000000E+00 -0.00000000000E+00 -0.69154694760E+02  0.69154694760E+02  0.00000000000E+00 0.  1.
          6    2    1    2  501    0  0.24887866858E+03 -0.77758923106E+02  0.51451473165E+03  0.60162595314E+03  0.17100098423E+03 0.  0.
         24    2    3    3    0    0  0.15890914714E+03  0.14291507408E+02  0.31311906512E+03  0.36256508005E+03  0.89182532479E+02 0.  0.
         -6    2    1    2    0  502 -0.24887866858E+03  0.77758923106E+02  0.92126746517E+03  0.97246563320E+03  0.17020171437E+03 0.  0.
        -24    2    5    5    0    0 -0.20576443528E+03  0.80113650838E+02  0.88557656784E+03  0.91624898079E+03  0.80679225389E+02 0.  0.
          5    1    3    3  501    0  0.89969521443E+02 -0.92050430514E+02  0.20139566653E+03  0.23906087309E+03  0.47000000000E+01 0. -1.
        -11    1    4    4    0    0  0.66233669445E+02 -0.37821580320E+02  0.13898316346E+03  0.15853608621E+03  0.00000000000E+00 0.  1.
         12    1    4    4    0    0  0.92675477696E+02  0.52113087728E+02  0.17413590166E+03  0.20402899384E+03  0.00000000000E+00 0. -1.
         -5    1    5    5    0  502 -0.43114233303E+02 -0.23547277320E+01  0.35690897322E+02  0.56216652405E+02  0.47000000000E+01 0.  1.
         13    1    6    6    0    0 -0.63742797560E+02  0.66966224802E+02  0.35140372982E+03  0.36336235474E+03  0.00000000000E+00 0. -1.
        -14    1    6    6    0    0 -0.14202163772E+03  0.13147426035E+02  0.53417283802E+03  0.55288662605E+03  0.00000000000E+00 0.  1.
</event>
<event>
12    1  0.8526130E-002  0.2661368E+03  0.7818608E-02  0.1103771E+00
         21   -1    0    0  503  502  0.00000000000E+00  0.00000000000E+00  0.41150911600E+02  0.41150911600E+02  0.00000000000E+00 0. -1.
         21   -1    0    0  501  503 -0.00000000000E+00 -0.00000000000E+00 -0.20444913951E+04  0.20444913951E+04  0.00000000000E+00 0.  1.
          6    2    1    2  501    0  0.20218789424E+03 -0.10573327407E+02 -0.14208358189E+04  0.14452201752E+04  0.16998585452E+03 0.  0.
         24    2    3    3    0    0  0.16457752168E+03  0.51040241503E+02 -0.11208074697E+04  0.11365943948E+04  0.77113989047E+02 0.  0.
         -6    2    1    2    0  502 -0.20218789424E+03  0.10573327407E+02 -0.58250466462E+03  0.64042213151E+03  0.17273413790E+03 0.  0.
        -24    2    5    5    0    0 -0.97105332207E+02 -0.58926994737E+02 -0.31843419400E+03  0.34779960491E+03  0.81623483230E+02 0.  0.
          5    1    3    3  501    0  0.37610372551E+02 -0.61613568910E+02 -0.30002834919E+03  0.30862578037E+03  0.47000000000E+01 0. -1.
        -13    1    4    4    0    0  0.76783389838E+02 -0.14036742752E+02 -0.53749689341E+03  0.54313500119E+03  0.00000000000E+00 0.  1.
         14    1    4    4    0    0  0.87794131847E+02  0.65076984255E+02 -0.58331057628E+03  0.59345939362E+03  0.00000000000E+00 0. -1.
         -5    1    5    5    0  502 -0.10508256203E+03  0.69500322144E+02 -0.26407047062E+03  0.29262252660E+03  0.47000000000E+01 0.  1.
         13    1    6    6    0    0 -0.63042599147E+02 -0.57774646670E+02 -0.12540742924E+03  0.15178702979E+03  0.00000000000E+00 0. -1.
        -14    1    6    6    0    0 -0.34062733060E+02 -0.11523480662E+01 -0.19302676476E+03  0.19601257511E+03  0.00000000000E+00 0.  1.
</event>
<event>
12    1  0.8526130E-002  0.2029596E+03  0.7818608E-02  0.1147366E+00
         21   -1    0    0  503  502  0.00000000000E+00  0.00000000000E+00  0.26669815746E+03  0.26669815746E+03  0.00000000000E+00 0.  1.
         21   -1    0    0  501  503 -0.00000000000E+00 -0.00000000000E+00 -0.15580017326E+03  0.15580017326E+03  0.00000000000E+00 0. -1.
          6    2    1    2  501    0 -0.78747385157E+02  0.73411804089E+02  0.33355762956E+02  0.20568229768E+03  0.17205277390E+03 0.  0.
         24    2    3    3    0    0 -0.12022635881E+03  0.42867558250E+02  0.38256518903E+02  0.15372497271E+03  0.76653774162E+02 0.  0.
         -6    2    1    2    0  502  0.78747385157E+02 -0.73411804089E+02  0.77542221246E+02  0.21681603305E+03  0.17148163885E+03 0.  0.
        -24    2    5    5    0    0  0.72152357720E+02 -0.11606010473E+03  0.66405532646E+02  0.17199987785E+03  0.80612359964E+02 0.  0.
          5    1    3    3  501    0  0.41478973650E+02  0.30544245839E+02 -0.49007559465E+01  0.51957324967E+02  0.47000000000E+01 0. -1.
        -11    1    4    4    0    0 -0.96911777902E+02  0.32535918102E+02  0.61432099462E+02  0.11926601153E+03  0.00000000000E+00 0.  1.
         12    1    4    4    0    0 -0.23314580905E+02  0.10331640148E+02 -0.23175580560E+02  0.34458961174E+02  0.00000000000E+00 0. -1.
         -5    1    5    5    0  502  0.65950274367E+01  0.42648300640E+02  0.11136688600E+02  0.44816155205E+02  0.47000000000E+01 0.  1.
         13    1    6    6    0    0  0.63304885162E+02 -0.27268093005E+02  0.22171998667E+02  0.72406180029E+02  0.00000000000E+00 0. -1.
        -14    1    6    6    0    0  0.88474725581E+01 -0.88792011724E+02  0.44233533979E+02  0.99593697817E+02  0.00000000000E+00 0.  1.
</event>
<event>
12    1  0.8526130E-002  0.2126095E+03  0.7818608E-02  0.1141270E+00
         21   -1    0    0  501  502  0.00000000000E+00  0.00000000000E+00  0.54780330570E+03  0.54780330570E+03  0.00000000000E+00 0. -1.
         21   -1    0    0  502  503 -0.00000000000E+00 -0.00000000000E+00 -0.92702117838E+02  0.92702117838E+02  0.00000000000E+00 0.  1.
         -6    2    1    2    0  503 -0.10721086477E+03  0.61598140077E+01  0.10096159296E+03  0.22744653527E+03  0.17322404660E+03 0.  0.
        -24    2    3    3    0    0 -0.13199471693E+03 -0.14126610538E+02  0.11414874801E+03  0.19249271707E+03  0.80008393483E+02 0.  0.
          6    2    1    2  501    0  0.10721086477E+03 -0.61598140077E+01  0.35413959490E+03  0.41305888827E+03  0.18349572112E+03 0.  0.
         24    2    5    5    0    0  0.35499962713E+02 -0.53269093771E+02  0.91426953335E+02  0.13665020579E+03  0.78845083811E+02 0.  0.
          5    1    5    5  501    0  0.71710902056E+02  0.47109279763E+02  0.26271264156E+03  0.27640868248E+03  0.47000000000E+01 0. -1.
        -11    1    6    6    0    0 -0.14801208343E+02  0.52810909758E+01  0.42369435024E+02  0.45189984670E+02  0.00000000000E+00 0.  1.
         12    1    6    6    0    0  0.50301171056E+02 -0.58550184747E+02  0.49057518311E+02  0.91460221115E+02  0.00000000000E+00 0. -1.
         -5    1    3    3    0  503  0.24783852160E+02  0.20286424546E+02 -0.13187155051E+02  0.34953818205E+02  0.47000000000E+01 0.  1.
         11    1    4    4    0    0 -0.58223946823E+02 -0.36263826091E+02  0.87085592291E+02  0.11085573260E+03  0.00000000000E+00 0. -1.
        -12    1    4    4    0    0 -0.73770770105E+02  0.22137215553E+02  0.27063155722E+02  0.81636984462E+02  0.00000000000E+00 0.  1.
</event>
<event>
12    1  0.8526130E-002  0.1856694E+03  0.7818608E-02  0.1163350E+00
         21   -1    0    0  501  502  0.00000000000E+00  0.00000000000E+00  0.40052749851E+02  0.40052749851E+02  0.00000000000E+00 0. -1.
         21   -1    0    0  502  503 -0.00000000000E+00 -0.00000000000E+00 -0.14104713176E+04  0.14104713176E+04  0.00000000000E+00 0. -1.
         -6    2    1    2    0  503 -0.68412838592E+02  0.15322362314E+02 -0.11497681338E+04  0.11646629934E+04  0.17192450505E+03 0.  0.
        -24    2    3    3    0    0 -0.28980954739E+02 -0.47837178924E+02 -0.41657643648E+03  0.42768527588E+03  0.79059954133E+02 0.  0.
          6    2    1    2  501    0  0.68412838592E+02 -0.15322362314E+02 -0.22065043390E+03  0.28586107400E+03  0.16767482928E+03 0.  0.
         24    2    5    5    0    0 -0.17109039299E+02 -0.37013522866E+02 -0.14001098485E+03  0.16623955090E+03  0.79810978603E+02 0.  0.
          5    1    5    5  501    0  0.85521877891E+02  0.21691160552E+02 -0.80639449052E+02  0.11962152309E+03  0.47000000000E+01 0. -1.
        -13    1    6    6    0    0 -0.16403124691E+01  0.23345307124E+02 -0.62823149069E+02  0.67040600003E+02  0.00000000000E+00 0.  1.
         14    1    6    6    0    0 -0.15468726830E+02 -0.60358829990E+02 -0.77187835779E+02  0.99198950901E+02  0.00000000000E+00 0. -1.
         -5    1    3    3    0  503 -0.39431883853E+02  0.63159541238E+02 -0.73319169735E+03  0.73697771756E+03  0.47000000000E+01 0.  1.
         13    1    4    4    0    0 -0.11169258126E+02  0.21346073576E+02 -0.13844954778E+03  0.14053001268E+03  0.00000000000E+00 0. -1.
        -14    1    4    4    0    0 -0.17811696613E+02 -0.69183252500E+02 -0.27812688870E+03  0.28715526319E+03  0.00000000000E+00 0.  1.
</event>
<event>
12    1  0.8526130E-002  0.1803875E+03  0.7818608E-02  0.1167469E+00
         21   -1    0    0  503  502  0.00000000000E+00  0.00000000000E+00  0.81718450167E+02  0.81718450167E+02  0.00000000000E+00 0.  1.
         21   -1    0    0  501  503 -0.00000000000E+00 -0.00000000000E+00 -0.59085879742E+03  0.59085879742E+03  0.00000000000E+00 0.  1.
          6    2    1    2  501    0 -0.81423572498E+01  0.53053794488E+02 -0.44670702284E+03  0.48169094998E+03  0.17204070431E+03 0.  0.
         24    2    3    3    0    0 -0.84199741149E+00  0.17181247704E+02 -0.43598456888E+03  0.44325664387E+03  0.78089716404E+02 0.  0.
         -6    2    1    2    0  502  0.81423572498E+01 -0.53053794488E+02 -0.62433324413E+02  0.19088629761E+03  0.17221688514E+03 0.  0.
        -24    2    5    5    0    0 -0.58191901677E+02 -0.50151092063E+02 -0.19773300017E+02  0.11182538900E+03  0.78819444150E+02 0.  0.
          5    1    3    3  501    0 -0.73003598383E+01  0.35872546783E+02 -0.10722453966E+02  0.38434306102E+02  0.47000000000E+01 0. -1.
        -11    1    4    4    0    0 -0.19797979988E+02  0.33328890021E+02 -0.11602983636E+03  0.12233436903E+03  0.00000000000E+00 0.  1.
         12    1    4    4    0    0  0.18955982576E+02 -0.16147642317E+02 -0.31995473252E+03  0.32092227484E+03  0.00000000000E+00 0. -1.
         -5    1    5    5    0  502  0.66334258927E+02 -0.29027024252E+01 -0.42660024396E+02  0.79060908610E+02  0.47000000000E+01 0.  1.
         11    1    6    6    0    0 -0.20013451513E+02  0.12040443641E+02  0.18154902740E+02  0.29582275403E+02  0.00000000000E+00 0. -1.
        -12    1    6    6    0    0 -0.38178450164E+02 -0.62191535703E+02 -0.37928202757E+02  0.82243113599E+02  0.00000000000E+00 0.  1.
</event>
<event>
12    1  0.8526130E-002  0.2619747E+03  0.7818608E-02  0.1106063E+00
         21   -1    0    0  501  502  0.00000000000E+00  0.00000000000E+00  0.98659043674E+02  0.98659043674E+02  0.00000000000E+00 0.  1.
         21   -1    0    0  502  503 -0.00000000000E+00 -0.00000000000E+00 -0.11674133180E+04  0.11674133180E+04  0.00000000000E+00 0. -1.
         -6    2    1    2    0  503  0.16750731822E+03 -0.10428949449E+03 -0.93797810051E+03  0.97387559372E+03  0.17232456203E+03 0.  0.
        -24    2    3    3    0    0  0.17367918178E+03 -0.10394593622E+03 -0.64291228109E+03  0.67870761151E+03  0.79615355928E+02 0.  0.
          6    2    1    2  501    0 -0.16750731822E+03  0.10428949449E+03 -0.13077617381E+03  0.29219676795E+03  0.17129373382E+03 0.  0.
         24    2    5    5    0    0 -0.11357988057E+03  0.13241751327E+03 -0.59659329443E+02  0.19850018571E+03  0.73541152059E+02 0.  0.
          5    1    5    5  501    0 -0.53927437655E+02 -0.28128018775E+02 -0.71116844369E+02  0.93696582249E+02  0.47000000000E+01 0. -1.
        -11    1    6    6    0    0 -0.47923137224E+02  0.10712421899E+03 -0.24669589295E+02  0.11992003174E+03  0.00000000000E+00 0.  1.
         12    1    6    6    0    0 -0.65656743343E+02  0.25293294272E+02 -0.34989740148E+02  0.78580153965E+02  0.00000000000E+00 0. -1.
         -5    1    3    3    0  503 -0.61718635594E+01 -0.34355827596E+00 -0.29506581942E+03  0.29516798221E+03  0.47000000000E+01 0.  1.
         11    1    4    4    0    0  0.56664292501E+02 -0.77231436485E+01 -0.27391612367E+03  0.27982232183E+03  0.00000000000E+00 0. -1.
        -12    1    4    4    0    0  0.11701488928E+03 -0.96222792567E+02 -0.36899615743E+03  0.39888528967E+03  0.00000000000E+00 0.  1.
</event>
<event>
12    1  0.8526130E-002  0.1829739E+03  0.7818608E-02  0.1165175E+00
         21   -1    0    0  503  502  0.00000000000E+00  0.00000000000E+00  0.89212694639E+03  0.89212694639E+03  0.00000000000E+00 0. -1.
         21   -1    0    0  501  503 -0.00000000000E+00 -0.00000000000E+00 -0.62522142321E+02  0.62522142321E+02  0.00000000000E+00 0. -1.
          6    2    1    2  501    0 -0.46194867153E+02  0.42544188498E+02  0.11123568792E+03  0.21334372780E+03  0.17087479099E+03 0.  0.
         24    2    3    3    0    0 -0.35006004915E+01 -0.38939297457E+02  0.68303485771E+02  0.11171881515E+03  0.79291893655E+02 0.  0.
         -6    2    1    2    0  502  0.46194867153E+02 -0.42544188498E+02  0.71836911615E+03  0.74130536092E+03  0.17185888793E+03 0.  0.
        -24    2    5    5    0    0  0.35017917934E+02  0.17207903327E+02  0.61352414160E+03  0.62002141574E+03  0.80574916234E+02 0.  0.
          5    1    3    3  501    0 -0.42694266661E+02  0.81483485956E+02  0.42932202150E+02  0.10162491265E+03  0.47000000000E+01 0. -1.
        -11    1    4    4    0    0 -0.10391278273E+02  0.18003183852E+02 -0.21176666714E+01  0.20894444359E+02  0.00000000000E+00 0.  1.
         12    1    4    4    0    0  0.68906777812E+01 -0.56942481309E+02  0.70421152442E+02  0.90824370789E+02  0.00000000000E+00 0. -1.
         -5    1    5    5    0  502  0.11176949219E+02 -0.59752091826E+02  0.10484497455E+03  0.12128394518E+03  0.47000000000E+01 0.  1.
         11    1    6    6    0    0  0.28178646004E+02 -0.22986183551E+02  0.45090546907E+03  0.45236947594E+03  0.00000000000E+00 0. -1.
        -12    1    6    6    0    0  0.68392719298E+01  0.40194086878E+02  0.16261867254E+03  0.16765193980E+03  0.00000000000E+00 0.  1.
</event>
<event>
12    1  0.8526130E-002  0.2644049E+03  0.7818608E-02  0.1106366E+00
         21   -1    0    0  503  502  0.00000000000E+00  0.00000000000E+00  0.76677363030E+02  0.76677363030E+02  0.00000000000E+00 0.  1.
         21   -1    0    0  501  503 -0.00000000000E+00 -0.00000000000E+00 -0.14648821318E+04  0.14648821318E+04  0.00000000000E+00 0. -1.
          6    2    1    2  501    0 -0.12466879685E+03  0.13928992803E+03 -0.11754085936E+04  0.12021597727E+04  0.16928899658E+03 0.  0.
         24    2    3    3    0    0 -0.56462486820E+02  0.71775739910E-01 -0.43026552603E+03  0.44104606522E+03  0.78773035890E+02 0.  0.
         -6    2    1    2    0  502  0.12466879685E+03 -0.13928992803E+03 -0.21279617514E+03  0.33939972204E+03  0.18699188808E+03 0.  0.
        -24    2    5    5    0    0  0.72230971654E+02  0.72508188192E+01 -0.82870343963E+02  0.13660246465E+03  0.80764173988E+02 0.  0.
          5    1    3    3  501    0 -0.68206310032E+02  0.13921815229E+03 -0.74514306755E+03  0.76111370752E+03  0.47000000000E+01 0. -1.
        -13    1    4    4    0    0 -0.42908386225E+02 -0.13741993418E+02 -0.41192993674E+03  0.41438658856E+03  0.00000000000E+00 0.  1.
         14    1    4    4    0    0 -0.13554100595E+02  0.13813769158E+02 -0.18335589291E+02  0.26659476663E+02  0.00000000000E+00 0. -1.
         -5    1    5    5    0  502  0.52437825198E+02 -0.14654074685E+03 -0.12992583117E+03  0.20279725739E+03  0.47000000000E+01 0.  1.
         11    1    6    6    0    0  0.49223710000E+02 -0.30479481975E+02 -0.69451379560E+02  0.90418286704E+02  0.00000000000E+00 0. -1.
        -12    1    6    6    0    0  0.23007261654E+02  0.37730300794E+02 -0.13418964403E+02  0.46184177945E+02  0.00000000000E+00 0.  1.
</event>
<event>
12    1  0.8526130E-002  0.1935817E+03  0.7818608E-02  0.1155850E+00
         21   -1    0    0  503  502  0.00000000000E+00  0.00000000000E+00  0.44689547556E+02  0.44689547556E+02  0.00000000000E+00 0.  1.
         21   -1    0    0  501  503 -0.00000000000E+00 -0.00000000000E+00 -0.14942481032E+04  0.14942481032E+04  0.00000000000E+00 0.  1.
          6    2    1    2  501    0 -0.68727697549E+02 -0.43472299184E+02 -0.12361395112E+04  0.12508030215E+04  0.17278301429E+03 0.  0.
         24    2    3    3    0    0 -0.39784349704E+02  0.52578867480E+02 -0.44825433826E+03  0.45654319004E+03  0.56146244882E+02 0.  0.
         -6    2    1    2    0  502  0.68727697549E+02  0.43472299184E+02 -0.21341904442E+03  0.28813462932E+03  0.17567167923E+03 0.  0.
        -24    2    5    5    0    0  0.66572381816E+02  0.76945939838E+02 -0.21837055581E+03  0.25390397829E+03  0.80180863496E+02 0.  0.
          5    1    3    3  501    0 -0.28943347845E+02 -0.96051166664E+02 -0.78788517298E+03  0.79425983142E+03  0.47000000000E+01 0. -1.
        -13    1    4    4    0    0 -0.19940556220E+02 -0.79158414393E+01 -0.15344639502E+03  0.15493896370E+03  0.00000000000E+00 0.  1.
         14    1    4    4    0    0 -0.19843793483E+02  0.60494708919E+02 -0.29480794324E+03  0.30160422634E+03  0.00000000000E+00 0. -1.
         -5    1    5    5    0  502  0.21553157330E+01 -0.33473640654E+02  0.49515113861E+01  0.34230651024E+02  0.47000000000E+01 0.  1.
         11    1    6    6    0    0  0.49071330762E+02  0.64919305303E+00 -0.10763293324E+03  0.11829313282E+03  0.00000000000E+00 0. -1.
        -12    1    6    6    0    0  0.17501051054E+02  0.76296746785E+02 -0.11073762257E+03  0.13561084547E+03  0.00000000000E+00 0.  1.
</event>
<event>
12    1  0.8526130E-002  0.1803680E+03  0.7818608E-02  0.1167696E+00
         21   -1    0    0  501  502  0.00000000000E+00  0.00000000000E+00  0.24557767898E+03  0.24557767898E+03  0.00000000000E+00 0. -1.
         21   -1    0    0  502  503 -0.00000000000E+00 -0.00000000000E+00 -0.13408998995E+03  0.13408998995E+03  0.00000000000E+00 0. -1.
         -6    2    1    2    0  503  0.42790529172E+02  0.27615232434E+02  0.80829216825E+02  0.19671263961E+03  0.17195601135E+03 0.  0.
        -24    2    3    3    0    0 -0.43363611244E+01  0.74524295066E+02  0.69291692695E+02  0.12906200466E+03  0.79265300021E+02 0.  0.
          6    2    1    2  501    0 -0.42790529172E+02 -0.27615232434E+02  0.30658472202E+02  0.18295502932E+03  0.17302881375E+03 0.  0.
         24    2    5    5    0    0 -0.94426543441E+02 -0.92852581739E+01  0.28808639459E+02  0.12792978232E+03  0.80830089523E+02 0.  0.
          5    1    5    5  501    0  0.51636014269E+02 -0.18329974260E+02  0.18498327432E+01  0.55025246997E+02  0.47000000000E+01 0. -1.
        -13    1    6    6    0    0 -0.29694924318E+02 -0.65302402927E+01  0.51058455906E+02  0.59425570995E+02  0.00000000000E+00 0.  1.
         14    1    6    6    0    0 -0.64731619123E+02 -0.27550178813E+01 -0.22249816447E+02  0.68504211328E+02  0.00000000000E+00 0. -1.
         -5    1    3    3    0  503  0.47126890297E+02 -0.46909062632E+02  0.11537524130E+02  0.67650634950E+02  0.47000000000E+01 0.  1.
         13    1    4    4    0    0  0.86012836239E+01  0.57386440299E+02  0.16036480750E+01  0.58049610656E+02  0.00000000000E+00 0. -1.
        -14    1    4    4    0    0 -0.12937644748E+02  0.17137854767E+02  0.67688044620E+02  0.71012394004E+02  0.00000000000E+00 0.  1.
</event>
<event>
12    1  0.8526130E-002  0.2053085E+03  0.7818608E-02  0.1145348E+00
         21   -1    0    0  503  502  0.00000000000E+00  0.00000000000E+00  0.32007977885E+03  0.32007977885E+03  0.00000000000E+00 0.  1.
         21   -1    0    0  501  503 -0.00000000000E+00 -0.00000000000E+00 -0.29847412792E+03  0.29847412792E+03  0.00000000000E+00 0. -1.
          6    2    1    2  501    0  0.91730186842E+02 -0.65511237971E+02 -0.22041330509E+03  0.30122022359E+03  0.17159676151E+03 0.  0.
         24    2    3    3    0    0  0.79232629421E+02  0.61734158345E+00 -0.69511153154E+02  0.13592434513E+03  0.85822121340E+02 0.  0.
         -6    2    1    2    0  502 -0.91730186842E+02  0.65511237971E+02  0.24201895602E+03  0.31733368318E+03  0.17152650503E+03 0.  0.
        -24    2    5    5    0    0 -0.18658440140E+02  0.86291712239E+02  0.19786565752E+03  0.22933986496E+03  0.75176846450E+02 0.  0.
          5    1    3    3  501    0  0.12497557420E+02 -0.66128579555E+02 -0.15090215194E+03  0.16529587846E+03  0.47000000000E+01 0. -1.
        -13    1    4    4    0    0  0.61888306343E+02 -0.27551131970E+02 -0.76427221220E+02  0.10212907264E+03  0.00000000000E+00 0.  1.
         14    1    4    4    0    0  0.17344323079E+02  0.28168473554E+02  0.69160680661E+01  0.33795272493E+02  0.00000000000E+00 0. -1.
         -5    1    5    5    0  502 -0.73071746702E+02 -0.20780474268E+02  0.44153298500E+02  0.87993818222E+02  0.47000000000E+01 0.  1.
         11    1    6    6    0    0 -0.18159813992E+02  0.17364185106E+02  0.65204411949E+01  0.25957848948E+02  0.00000000000E+00 0. -1.
        -12    1    6    6    0    0 -0.49862614844E+00  0.68927527134E+02  0.19134521633E+03  0.20338201601E+03  0.00000000000E+00 0.  1.
</event>
<event>
12    1  0.8526130E-002  0.1742120E+03  0.7818608E-02  0.1173583E+00
         21   -1    0    0  501  502  0.00000000000E+00  0.00000000000E+00  0.39069447187E+02  0.39069447187E+02  0.00000000000E+00 0. -1.
         21   -1    0    0  502  503 -0.00000000000E+00 -0.00000000000E+00 -0.14599671472E+04  0.14599671472E+04  0.00000000000E+00 0. -1.
         -6    2    1    2    0  503  0.27455859009E+02 -0.71723538120E+01 -0.19760789222E+03  0.26343630803E+03  0.17188525960E+03 0.  0.
        -24    2    3    3    0    0  0.47655546109E+02  0.52486999775E+02 -0.15991260999E+03  0.18988163359E+03  0.73871887228E+02 0.  0.
          6    2    1    2  501    0 -0.27455859009E+02  0.71723538120E+01 -0.12232898078E+04  0.12356002863E+04  0.17165327536E+03 0.  0.
         24    2    5    5    0    0 -0.55943447093E+02  0.50945200445E+02 -0.10103525828E+04  0.10163015026E+04  0.79569591280E+02 0.  0.
          5    1    5    5  501    0  0.28487588084E+02 -0.43772846633E+02 -0.21293722494E+03  0.21929878372E+03  0.47000000000E+01 0. -1.
        -11    1    6    6    0    0 -0.12294664457E+02  0.12700144827E+02 -0.34871827219E+02  0.39095994505E+02  0.00000000000E+00 0.  1.
         12    1    6    6    0    0 -0.43648782636E+02  0.38245055618E+02 -0.97548075562E+03  0.97720550811E+03  0.00000000000E+00 0. -1.
         -5    1    3    3    0  503 -0.20199687099E+02 -0.59659353587E+02 -0.37695282235E+02  0.73554674441E+02  0.47000000000E+01 0.  1.
         11    1    4    4    0    0  0.34066269061E+02  0.34666673848E+02 -0.28026477524E+02  0.56105012306E+02  0.00000000000E+00 0. -1.
        -12    1    4    4    0    0  0.13589277047E+02  0.17820325927E+02 -0.13188613246E+03  0.13377662129E+03  0.00000000000E+00 0.  1.
</event>
<event>
12    1  0.8526130E-002  0.2217985E+03  0.7818608E-02  0.1132566E+00
         21   -1    0    0  503  502  0.00000000000E+00  0.00000000000E+00  0.25784900236E+03  0.25784900236E+03  0.00000000000E+00 0.  1.
         21   -1    0    0  501  503 -0.00000000000E+00 -0.00000000000E+00 -0.22469560960E+03  0.22469560960E+03  0.00000000000E+00 0.  1.
          6    2    1    2  501    0  0.36999515293E+00 -0.14009643682E+03  0.11040569858E+03  0.24767765349E+03  0.17183612325E+03 0.  0.
         24    2    3    3    0    0  0.49300700712E+02 -0.14364519062E+03  0.90100797914E+02  0.19437487128E+03  0.81233840992E+02 0.  0.
         -6    2    1    2    0  502 -0.36999515293E+00  0.14009643682E+03 -0.77252305823E+02  0.23486695848E+03  0.17195179825E+03 0.  0.
        -24    2    5    5    0    0 -0.98009583730E+01  0.11874889206E+03 -0.22853081041E+01  0.15621073506E+03  0.10099115290E+03 0.  0.
          5    1    3    3  501    0 -0.48930705560E+02  0.35487537986E+01  0.20304900669E+02  0.53302782209E+02  0.47000000000E+01 0. -1.
        -11    1    4    4    0    0  0.60366862524E+02 -0.10078707728E+03  0.93259724499E+02  0.14999856416E+03  0.00000000000E+00 0.  1.
         12    1    4    4    0    0 -0.11066161812E+02 -0.42858113340E+02 -0.31589265849E+01  0.44376307119E+02  0.00000000000E+00 0. -1.
         -5    1    5    5    0  502  0.94309632200E+01  0.21347544758E+02 -0.74966997719E+02  0.78656223412E+02  0.47000000000E+01 0.  1.
         13    1    6    6    0    0  0.27662248878E+02  0.71003264423E+02  0.36184500217E+02  0.84356277939E+02  0.00000000000E+00 0. -1.
        -14    1    6    6    0    0 -0.37463207251E+02  0.47745627642E+02 -0.38469808321E+02  0.71854457125E+02  0.00000000000E+00 0.  1.
</event>
<event>
12    1  0.8526130E-002  0.2064117E+03  0.7818608E-02  0.1144948E+00
         21   -1    0    0  503  502  0.00000000000E+00  0.00000000000E+00  0.12529421728E+03  0.12529421728E+03  0.00000000000E+00 0.  1.
         21   -1    0    0  501  503 -0.00000000000E+00 -0.00000000000E+00 -0.42261306627E+03  0.42261306627E+03  0.00000000000E+00 0.  1.
          6    2    1    2  501    0 -0.10055470721E+03 -0.47657346256E+02 -0.23885881622E+02  0.20531222324E+03  0.17088037300E+03 0.  0.
         24    2    3    3    0    0 -0.60720962720E+02 -0.59104812165E+02  0.44630958676E+02  0.12509739244E+03  0.80479941532E+02 0.  0.
         -6    2    1    2    0  502  0.10055470721E+03  0.47657346256E+02 -0.27343296737E+03  0.34259506031E+03  0.17384854302E+03 0.  0.
        -24    2    5    5    0    0  0.12966066032E+03  0.14237650048E+02 -0.24814824627E+03  0.29135601541E+03  0.79348459821E+02 0.  0.
          5    1    3    3  501    0 -0.39833744486E+02  0.11447465910E+02 -0.68516840297E+02  0.80214830798E+02  0.47000000000E+01 0. -1.
        -13    1    4    4    0    0 -0.67446867533E+02 -0.19662533875E+02  0.77493042191E+01  0.70680597722E+02  0.00000000000E+00 0.  1.
         14    1    4    4    0    0  0.67259048135E+01 -0.39442278290E+02  0.36881654457E+02  0.54416794721E+02  0.00000000000E+00 0. -1.
         -5    1    5    5    0  502 -0.29105953110E+02  0.33419696208E+02 -0.25284721100E+02  0.51239044899E+02  0.47000000000E+01 0.  1.
         11    1    6    6    0    0  0.25077148592E+02  0.31634707245E+02 -0.11028054792E+03  0.11743686531E+03  0.00000000000E+00 0. -1.
        -12    1    6    6    0    0  0.10458351172E+03 -0.17397057197E+02 -0.13786769836E+03  0.17391915011E+03  0.00000000000E+00 0.  1.
</event>
<event>
12    1  0.8526130E-002  0.1755860E+03  0.7818608E-02  0.1173006E+00
         21   -1    0    0  501  502  0.00000000000E+00  0.00000000000E+00  0.38084080257E+03  0.38084080257E+03  0.00000000000E+00 0.  1.
         21   -1    0    0  502  503 -0.00000000000E+00 -0.00000000000E+00 -0.31504183349E+03  0.31504183349E+03  0.00000000000E+00 0.  1.
         -6    2    1    2    0  503  0.23308084733E+02  0.28889838744E+02 -0.26794066885E+03  0.32034768122E+03  0.17161743864E+03 0.  0.
        -24    2    3    3    0    0 -0.37599362654E+02  0.55048135907E+02 -0.10666680807E+03  0.14591912327E+03  0.73963323706E+02 0.  0.
          6    2    1    2  501    0 -0.23308084733E+02 -0.28889838744E+02  0.33373963792E+03  0.37553495484E+03  0.16812634176E+03 0.  0.
         24    2    5    5    0    0 -0.34852760856E+02  0.59047679072E+01  0.32628707979E+03  0.33783117756E+03  0.80106584430E+02 0.  0.
          5    1    5    5  501    0  0.11544676123E+02 -0.34794606651E+02  0.74525581309E+01  0.37703777284E+02  0.47000000000E+01 0. -1.
        -11    1    6    6    0    0  0.72881697167E+00 -0.30889840082E+02  0.70510144380E+02  0.76983075120E+02  0.00000000000E+00 0.  1.
         12    1    6    6    0    0 -0.35581577828E+02  0.36794607989E+02  0.25577693541E+03  0.26084810244E+03  0.00000000000E+00 0. -1.
         -5    1    3    3    0  503  0.60907447387E+02 -0.26158297163E+02 -0.16127386078E+03  0.17442855795E+03  0.47000000000E+01 0.  1.
         11    1    4    4    0    0 -0.38383383250E+02  0.35071785988E+02 -0.17991598435E+02  0.55018286927E+02  0.00000000000E+00 0. -1.
        -12    1    4    4    0    0  0.78402059616E+00  0.19976349919E+02 -0.88675209635E+02  0.90900836344E+02  0.00000000000E+00 0.  1.
</event>
<event>
12    1  0.8526130E-002  0.1923967E+03  0.7818608E-02  0.1156975E+00
         21   -1    0    0  501  502  0.00000000000E+00  0.00000000000E+00  0.46860288838E+03  0.46860288838E+03  0.00000000000E+00 0. -1.
         21   -1    0    0  502  503 -0.00000000000E+00 -0.00000000000E+00 -0.93582504698E+02  0.93582504698E+02  0.00000000000E+00 0. -1.
         -6    2    1    2    0  503 -0.84812950939E+02  0.53152668369E+01  0.73241008458E+02  0.20586582924E+03  0.17261229858E+03 0.  0.
        -24    2    3    3    0    0  0.15228979638E+02  0.23715264053E+02  0.32290301489E+02  0.96111566578E+02  0.86025775730E+02 0.  0.
          6    2    1    2  501    0  0.84812950939E+02 -0.53152668369E+01  0.30177937522E+03  0.35631956384E+03  0.16932616914E+03 0.  0.
         24    2    5    5    0    0  0.56677252679E+01 -0.53648646536E+02  0.16889418462E+03  0.19420649767E+03  0.79250348615E+02 0.  0.
          5    1    5    5  501    0  0.79145225671E+02  0.48333379699E+02  0.13288519061E+03  0.16211306617E+03  0.47000000000E+01 0. -1.
        -13    1    6    6    0    0 -0.16690549188E+02 -0.47818042039E+01  0.12094789913E+03  0.12218770146E+03  0.00000000000E+00 0.  1.
         14    1    6    6    0    0  0.22358274456E+02 -0.48866842332E+02  0.47946285488E+02  0.72018796215E+02  0.00000000000E+00 0. -1.
         -5    1    3    3    0  503 -0.10004193058E+03 -0.18399997216E+02  0.40950706969E+02  0.10975426266E+03  0.47000000000E+01 0.  1.
         11    1    4    4    0    0 -0.30590097434E+02  0.39197296798E+01 -0.81200330076E+01  0.31891272753E+02  0.00000000000E+00 0. -1.
        -12    1    4    4    0    0  0.45819077072E+02  0.19795534374E+02  0.40410334497E+02  0.64220293825E+02  0.00000000000E+00 0.  1.
</event>
<event>
12    1  0.8526130E-002  0.2420500E+03  0.7818608E-02  0.1118613E+00
         21   -1    0    0  501  502  0.00000000000E+00  0.00000000000E+00  0.30484698083E+03  0.30484698083E+03  0.00000000000E+00 0.  1.
         21   -1    0    0  502  503 -0.00000000000E+00 -0.00000000000E+00 -0.24978162822E+03  0.24978162822E+03  0.00000000000E+00 0.  1.
         -6    2    1    2    0  503 -0.44894897855E+02  0.16216763920E+03 -0.10656562318E+03  0.26447005985E+03  0.17399507309E+03 0.  0.
        -24    2    3    3    0    0  0.91138413314E+01  0.25619268132E+02 -0.76539533492E+02  0.11451654169E+03  0.80723782922E+02 0.  0.
          6    2    1    2  501    0  0.44894897855E+02 -0.16216763920E+03  0.16163097578E+03  0.29015854920E+03  0.17249207600E+03 0.  0.
         24    2    5    5    0    0  0.87258153399E+02 -0.15642881074E+03  0.11893296009E+03  0.22955500048E+03  0.80414495500E+02 0.  0.
          5    1    5    5  501    0 -0.42363255543E+02 -0.57388284545E+01  0.42698015697E+02  0.60603548714E+02  0.47000000000E+01 0. -1.
        -11    1    6    6    0    0  0.24782392509E+02 -0.71796670756E+02  0.75157518321E+01  0.76324409174E+02  0.00000000000E+00 0.  1.
         12    1    6    6    0    0  0.62475760889E+02 -0.84632139986E+02  0.11141720826E+03  0.15323059131E+03  0.00000000000E+00 0. -1.
         -5    1    3    3    0  503 -0.54008739187E+02  0.13654837106E+03 -0.30026089689E+02  0.14995351817E+03  0.47000000000E+01 0.  1.
         11    1    4    4    0    0 -0.34323200533E+02  0.28077769535E+01 -0.20680525688E+02  0.40170260753E+02  0.00000000000E+00 0. -1.
        -12    1    4    4    0    0  0.43437041864E+02  0.22811491179E+02 -0.55859007804E+02  0.74346280933E+02  0.00000000000E+00 0.  1.
</event>
<event>
12    1  0.8526130E-002  0.3688391E+03  0.7818608E-02  0.1055245E+00
         21   -1    0    0  503  502  0.00000000000E+00  0.00000000000E+00  0.12662070427E+03  0.12662070427E+03  0.00000000000E+00 0.  1.
         21   -1    0    0  501  503 -0.00000000000E+00 -0.00000000000E+00 -0.10744368674E+04  0.10744368674E+04  0.00000000000E+00 0.  1.
          6    2    1    2  501    0 -0.19417865527E+03 -0.26187063373E+03 -0.44150843572E+03  0.57530166153E+03  0.17251296757E+03 0.  0.
         24    2    3    3    0    0 -0.11888078864E+03 -0.10057204824E+03 -0.30184358756E+03  0.34899354808E+03  0.80246909341E+02 0.  0.
         -6    2    1    2    0  502  0.19417865527E+03  0.26187063373E+03 -0.50630772745E+03  0.62575591017E+03  0.17012161904E+03 0.  0.
        -24    2    5    5    0    0  0.34068849297E+02  0.92660097343E+02 -0.24427285599E+03  0.27511119047E+03  0.79185597278E+02 0.  0.
          5    1    3    3  501    0 -0.75297866628E+02 -0.16129858549E+03 -0.13966484816E+03  0.22630811345E+03  0.47000000000E+01 0. -1.
        -11    1    4    4    0    0 -0.88283711179E+02 -0.89299891036E+02 -0.15969282395E+03  0.20315088535E+03  0.00000000000E+00 0.  1.
         12    1    4    4    0    0 -0.30597077462E+02 -0.11272157199E+02 -0.14215076362E+03  0.14584266274E+03  0.00000000000E+00 0. -1.
         -5    1    5    5    0  502  0.16010980597E+03  0.16921053639E+03 -0.26203487146E+03  0.35064471970E+03  0.47000000000E+01 0.  1.
         13    1    6    6    0    0  0.10723648491E+02  0.70776578721E+02 -0.78335288771E+02  0.10611662546E+03  0.00000000000E+00 0. -1.
        -14    1    6    6    0    0  0.23345200806E+02  0.21883518622E+02 -0.16593756722E+03  0.16899456501E+03  0.00000000000E+00 0.  1.
</event>
<event>
12    1  0.8526130E-002  0.2060644E+03  0.7818608E-02  0.1144821E+00
         21   -1    0    0  501  502  0.00000000000E+00  0.00000000000E+00  0.87086051969E+02  0.87086051969E+02  0.00000000000E+00 0.  1.
         21   -1    0    0  502  503 -0.00000000000E+00 -0.00000000000E+00 -0.78845199304E+03  0.78845199304E+03  0.00000000000E+00 0. -1.
         -6    2    1    2    0  503  0.10838161633E+03 -0.17799608890E+02 -0.62136633627E+03  0.65448945301E+03  0.17377260839E+03 0.  0.
        -24    2    3    3    0    0  0.26231132036E+02 -0.70918389915E+02 -0.32184070190E+03  0.33935773038E+03  0.76581599962E+02 0.  0.
          6    2    1    2  501    0 -0.10838161633E+03  0.17799608890E+02 -0.79999604802E+02  0.22104859199E+03  0.17435349844E+03 0.  0.
         24    2    5    5    0    0 -0.17544672816E+02 -0.47200466491E+02 -0.34312795881E+02  0.10027717726E+03  0.79639467207E+02 0.  0.
          5    1    5    5  501    0 -0.90836943517E+02  0.65000075381E+02 -0.45686808921E+02  0.12077141473E+03  0.47000000000E+01 0. -1.
        -11    1    6    6    0    0  0.73554256036E+01 -0.32353374173E+02  0.19979114713E+02  0.38729938432E+02  0.00000000000E+00 0.  1.
         12    1    6    6    0    0 -0.24900098419E+02 -0.14847092318E+02 -0.54291910594E+02  0.61547238829E+02  0.00000000000E+00 0. -1.
         -5    1    3    3    0  503  0.82150484296E+02  0.53118781025E+02 -0.29952563437E+03  0.31513172264E+03  0.47000000000E+01 0.  1.
         11    1    4    4    0    0 -0.18156719059E+02 -0.56619880572E+02 -0.15154817435E+03  0.16279535151E+03  0.00000000000E+00 0. -1.
        -12    1    4    4    0    0  0.44387851095E+02 -0.14298509343E+02 -0.17029252754E+03  0.17656237887E+03  0.00000000000E+00 0.  1.
</event>
<event>
12    1  0.8526130E-002  0.1904650E+03  0.7818608E-02  0.1163107E+00
         21   -1    0    0  503  502  0.00000000000E+00  0.00000000000E+00  0.10827849493E+03  0.10827849493E+03  0.00000000000E+00 0. -1.
         21   -1    0    0  501  503 -0.00000000000E+00 -0.00000000000E+00 -0.34273492180E+03  0.34273492180E+03  0.00000000000E+00 0. -1.
          6    2    1    2  501    0  0.14886691922E+01  0.79563740054E+02 -0.20381953805E+03  0.27896115534E+03  0.17304426379E+03 0.  0.
         24    2    3    3    0    0  0.11214654019E+02  0.12234459142E+03 -0.16138005551E+03  0.21774027898E+03  0.79204414400E+02 0.  0.
         -6    2    1    2    0  502 -0.14886691922E+01 -0.79563740054E+02 -0.30636888820E+02  0.17205226138E+03  0.14943479121E+03 0.  0.
        -24    2    5    5    0    0  0.44170038429E+02 -0.46837649890E+02 -0.47855436456E+02  0.11310921309E+03  0.79742043781E+02 0.  0.
          5    1    3    3  501    0 -0.97259848264E+01 -0.42780851361E+02 -0.42439482546E+02  0.61220876365E+02  0.47000000000E+01 0. -1.
        -11    1    4    4    0    0 -0.46309451328E+01  0.22724656078E+02  0.44744048921E+01  0.23619397661E+02  0.00000000000E+00 0.  1.
         12    1    4    4    0    0  0.15845599151E+02  0.99619935337E+02 -0.16585446040E+03  0.19412088132E+03  0.00000000000E+00 0. -1.
         -5    1    5    5    0  502 -0.45658707621E+02 -0.32726090164E+02  0.17218547636E+02  0.58943048290E+02  0.47000000000E+01 0.  1.
         11    1    6    6    0    0  0.58481403275E+02 -0.56271272104E+02 -0.25765980588E+02  0.85149376679E+02  0.00000000000E+00 0. -1.
        -12    1    6    6    0    0 -0.14311364846E+02  0.94336222141E+01 -0.22089455867E+02  0.27959836415E+02  0.00000000000E+00 0.  1.
</event>
<event>
12    1  0.8526130E-002  0.2152225E+03  0.7818608E-02  0.1137903E+00
         21   -1    0    0  503  502  0.00000000000E+00  0.00000000000E+00  0.24042937680E+03  0.24042937680E+03  0.00000000000E+00 0.  1.
         21   -1    0    0  501  503 -0.00000000000E+00 -0.00000000000E+00 -0.44986435988E+03  0.44986435988E+03  0.00000000000E+00 0. -1.
          6    2    1    2  501    0  0.12052138167E+03 -0.42007721168E+02 -0.36642954678E+03  0.42389553793E+03  0.17066564460E+03 0.  0.
         24    2    3    3    0    0  0.13986297344E+03 -0.60421109747E+02 -0.24495003654E+03  0.29942662029E+03  0.80270908145E+02 0.  0.
         -6    2    1    2    0  502 -0.12052138167E+03  0.42007721168E+02  0.15699456371E+03  0.26639819875E+03  0.17329355206E+03 0.  0.
        -24    2    5    5    0    0  0.43558687428E+01 -0.44374268812E+01  0.55045908414E+02  0.98567636083E+02  0.81528292635E+02 0.  0.
          5    1    3    3  501    0 -0.19341591767E+02  0.18413388579E+02 -0.12147951024E+03  0.12446891765E+03  0.47000000000E+01 0. -1.
        -13    1    4    4    0    0  0.10974593811E+03 -0.69376741963E+02 -0.14490204622E+03  0.19456080349E+03  0.00000000000E+00 0.  1.
         14    1    4    4    0    0  0.30117035327E+02  0.89556322158E+01 -0.10004799031E+03  0.10486581679E+03  0.00000000000E+00 0. -1.
         -5    1    5    5    0  502 -0.12487725041E+03  0.46445148049E+02  0.10194865530E+03  0.16783056267E+03  0.47000000000E+01 0.  1.
         13    1    6    6    0    0  0.15177154883E+02  0.31798778823E+02  0.46203383624E+01  0.35536683745E+02  0.00000000000E+00 0. -1.
        -14    1    6    6    0    0 -0.10821286141E+02 -0.36236205704E+02  0.50425570052E+02  0.63030952338E+02  0.00000000000E+00 0.  1.
</event>
<event>
12    1  0.8526130E-002  0.2735309E+03  0.7818608E-02  0.1099296E+00
         21   -1    0    0  501  502  0.00000000000E+00  0.00000000000E+00  0.14495208957E+03  0.14495208957E+03  0.00000000000E+00 0. -1.
         21   -1    0    0  502  503 -0.00000000000E+00 -0.00000000000E+00 -0.85440169167E+03  0.85440169167E+03  0.00000000000E+00 0.  1.
         -6    2    1    2    0  503 -0.71243383438E+02  0.20008876771E+03 -0.66929601788E+03  0.72303270194E+03  0.17236007044E+03 0.  0.
        -24    2    3    3    0    0 -0.45711988449E+02  0.33263512829E+02 -0.33013954590E+03  0.34417689787E+03  0.79180616850E+02 0.  0.
          6    2    1    2  501    0  0.71243383438E+02 -0.20008876771E+03 -0.40153584214E+02  0.27632107930E+03  0.17213336078E+03 0.  0.
         24    2    5    5    0    0  0.93881716771E+02 -0.14624131146E+03 -0.76016127019E+02  0.20761696984E+03  0.84415974067E+02 0.  0.
          5    1    5    5  501    0 -0.22638333333E+02 -0.53847456243E+02  0.35862542805E+02  0.68704109457E+02  0.47000000000E+01 0. -1.
        -13    1    6    6    0    0  0.79890439241E+02 -0.13491544367E+03 -0.93472046409E+02  0.18254227643E+03  0.00000000000E+00 0.  1.
         14    1    6    6    0    0  0.13991277530E+02 -0.11325867788E+02  0.17455919390E+02  0.25074693414E+02  0.00000000000E+00 0. -1.
         -5    1    3    3    0  503 -0.25531394990E+02  0.16682525488E+03 -0.33915647198E+03  0.37885580407E+03  0.47000000000E+01 0.  1.
         11    1    4    4    0    0 -0.19518813677E+01 -0.21611421191E+02 -0.13640942832E+03  0.13812456516E+03  0.00000000000E+00 0. -1.
        -12    1    4    4    0    0 -0.43760107081E+02  0.54874934020E+02 -0.19373011758E+03  0.20605233271E+03  0.00000000000E+00 0.  1.
</event>
<event>
12    1  0.8526130E-002  0.2238366E+03  0.7818608E-02  0.1131085E+00
         21   -1    0    0  503  502  0.00000000000E+00  0.00000000000E+00  0.74232129681E+03  0.74232129681E+03  0.00000000000E+00 0. -1.
         21   -1    0    0  501  503 -0.00000000000E+00 -0.00000000000E+00 -0.36970791939E+03  0.36970791939E+03  0.00000000000E+00 0. -1.
          6    2    1    2  501    0 -0.94038945236E+02  0.10781061187E+03 -0.31642773160E+03  0.38759431339E+03  0.17215223263E+03 0.  0.
         24    2    3    3    0    0  0.95279801029E+01  0.78776137848E+02 -0.13607857270E+03  0.17755379868E+03  0.81923813256E+02 0.  0.
         -6    2    1    2    0  502  0.94038945236E+02 -0.10781061187E+03  0.68904110902E+03  0.72443490280E+03  0.17193553217E+03 0.  0.
        -24    2    5    5    0    0  0.35892711273E+02 -0.19483665749E+02  0.14749786191E+03  0.17264344543E+03  0.79888923067E+02 0.  0.
          5    1    3    3  501    0 -0.10356692534E+03  0.29034474021E+02 -0.18034915890E+03  0.21004051472E+03  0.47000000000E+01 0. -1.
        -13    1    4    4    0    0 -0.67260283805E+01  0.59863618106E+02 -0.27629084967E+02  0.66274116868E+02  0.00000000000E+00 0.  1.
         14    1    4    4    0    0  0.16254008483E+02  0.18912519743E+02 -0.10844948773E+03  0.11127968181E+03  0.00000000000E+00 0. -1.
         -5    1    5    5    0  502  0.58146233963E+02 -0.88326946119E+02  0.54154324711E+03  0.55179145737E+03  0.47000000000E+01 0.  1.
         13    1    6    6    0    0 -0.20806455294E+02 -0.43810789179E+01  0.81977235684E+02  0.84689843575E+02  0.00000000000E+00 0. -1.
        -14    1    6    6    0    0  0.56699166567E+02 -0.15102586831E+02  0.65520626223E+02  0.87953601854E+02  0.00000000000E+00 0.  1.
</event>
<event>
12    1  0.8526130E-002  0.3589896E+03  0.7818608E-02  0.1059054E+00
         21   -1    0    0  501  502  0.00000000000E+00  0.00000000000E+00  0.60588348631E+03  0.60588348631E+03  0.00000000000E+00 0. -1.
         21   -1    0    0  502  503 -0.00000000000E+00 -0.00000000000E+00 -0.23298345803E+03  0.23298345803E+03  0.00000000000E+00 0.  1.
         -6    2    1    2    0  503  0.10796455535E+03 -0.29588434432E+03  0.61291914757E+02  0.36350058681E+03  0.17079838223E+03 0.  0.
        -24    2    3    3    0    0  0.13999600289E+03 -0.27581145575E+03  0.62333145433E+02  0.32539404343E+03  0.79530010267E+02 0.  0.
          6    2    1    2  501    0 -0.10796455535E+03  0.29588434432E+03  0.31160811352E+03  0.47536635754E+03  0.17224885207E+03 0.  0.
         24    2    5    5    0    0 -0.10806467579E+03  0.29484658990E+03  0.23822707601E+03  0.40182756760E+03  0.78107417139E+02 0.  0.
          5    1    5    5  501    0  0.10012043818E+00  0.10377544142E+01  0.73381037512E+02  0.73538789932E+02  0.47000000000E+01 0. -1.
        -13    1    6    6    0    0 -0.40360713975E+02  0.20670507830E+03  0.17589239313E+03  0.27439772336E+03  0.00000000000E+00 0.  1.
         14    1    6    6    0    0 -0.67703961815E+02  0.88141511604E+02  0.62334682882E+02  0.12742984424E+03  0.00000000000E+00 0. -1.
         -5    1    3    3    0  503 -0.32031447540E+02 -0.20072888567E+02 -0.10412306756E+01  0.38106543379E+02  0.47000000000E+01 0.  1.
         13    1    4    4    0    0  0.12551078356E+03 -0.22697398948E+03  0.21770716503E+02  0.26027699243E+03  0.00000000000E+00 0. -1.
        -14    1    4    4    0    0  0.14485219328E+02 -0.48837466272E+02  0.40562428929E+02  0.65117051005E+02  0.00000000000E+00 0.  1.
</event>
<event>
12    1  0.8526130E-002  0.1751817E+03  0.7818608E-02  0.1172707E+00
         21   -1    0    0  501  502  0.00000000000E+00  0.00000000000E+00  0.56616437665E+02  0.56616437665E+02  0.00000000000E+00 0. -1.
         21   -1    0    0  502  503 -0.00000000000E+00 -0.00000000000E+00 -0.18609960507E+04  0.18609960507E+04  0.00000000000E+00 0. -1.
         -6    2    1    2    0  503 -0.80187228548E+01 -0.32430776983E+02 -0.17094971200E+04  0.17183856772E+04  0.17132681354E+03 0.  0.
        -24    2    3    3    0    0 -0.57263777576E+02 -0.62103350715E+02 -0.12356453728E+04  0.12410355904E+04  0.78828185750E+02 0.  0.
          6    2    1    2  501    0  0.80187228548E+01  0.32430776983E+02 -0.94882493034E+02  0.19922681118E+03  0.17196679795E+03 0.  0.
         24    2    5    5    0    0 -0.70492931458E+00  0.64317453526E+02 -0.11814445181E+03  0.15853195924E+03  0.83887060113E+02 0.  0.
          5    1    5    5  501    0  0.87236521694E+01 -0.31886676543E+02  0.23261958779E+02  0.40694851939E+02  0.47000000000E+01 0. -1.
        -11    1    6    6    0    0  0.16341873290E+02  0.97869330259E+01  0.75281683601E+01  0.20482045785E+02  0.00000000000E+00 0.  1.
         12    1    6    6    0    0 -0.17046802605E+02  0.54530520500E+02 -0.12567262017E+03  0.13804991346E+03  0.00000000000E+00 0. -1.
         -5    1    3    3    0  503  0.49245054721E+02  0.29672573733E+02 -0.47385174715E+03  0.47735008676E+03  0.47000000000E+01 0.  1.
         13    1    4    4    0    0 -0.78393114463E+01 -0.30139022507E+02 -0.88012073731E+03  0.88067152090E+03  0.00000000000E+00 0. -1.
        -14    1    4    4    0    0 -0.49424466129E+02 -0.31964328208E+02 -0.35552463553E+03  0.36036406951E+03  0.00000000000E+00 0.  1.
</event>
<event>
12    1  0.8526130E-002  0.2054197E+03  0.7818608E-02  0.1145346E+00
         21   -1    0    0  503  502  0.00000000000E+00  0.00000000000E+00  0.11076401843E+03  0.11076401843E+03  0.00000000000E+00 0. -1.
         21   -1    0    0  501  503 -0.00000000000E+00 -0.00000000000E+00 -0.10168869259E+04  0.10168869259E+04  0.00000000000E+00 0.  1.
          6    2    1    2  501    0  0.10529832218E+03 -0.37140891556E+02 -0.89945919277E+03  0.92261806306E+03  0.17242409441E+03 0.  0.
         24    2    3    3    0    0  0.76431304080E+02 -0.90675587666E+02 -0.58497911100E+03  0.60227593306E+03  0.80448323721E+02 0.  0.
         -6    2    1    2    0  502 -0.10529832218E+03  0.37140891556E+02 -0.66637147317E+01  0.20503288130E+03  0.17183391645E+03 0.  0.
        -24    2    5    5    0    0 -0.13403463332E+01  0.57307557423E+02 -0.82060524898E+01  0.99021448144E+02  0.80324063823E+02 0.  0.
          5    1    3    3  501    0  0.28867018102E+02  0.53534696109E+02 -0.31448008177E+03  0.32034213000E+03  0.47000000000E+01 0. -1.
        -13    1    4    4    0    0  0.18669655058E+02 -0.67248543936E+02 -0.19008077432E+03  0.20248857609E+03  0.00000000000E+00 0.  1.
         14    1    4    4    0    0  0.57761649022E+02 -0.23427043730E+02 -0.39489833668E+03  0.39978735696E+03  0.00000000000E+00 0. -1.
         -5    1    5    5    0  502 -0.10395797585E+03 -0.20166665867E+02  0.15423377582E+01  0.10601143316E+03  0.47000000000E+01 0.  1.
         11    1    6    6    0    0 -0.36515535242E+02  0.51341235768E+02 -0.50467590671E+01  0.63204244962E+02  0.00000000000E+00 0. -1.
        -12    1    6    6    0    0  0.35175188908E+02  0.59663216550E+01 -0.31592934228E+01  0.35817203182E+02  0.00000000000E+00 0.  1.
</event>
<event>
12    1  0.8526130E-002  0.2472429E+03  0.7818608E-02  0.1115557E+00
         21   -1    0    0  501  502  0.00000000000E+00  0.00000000000E+00  0.54201435316E+02  0.54201435316E+02  0.00000000000E+00 0. -1.
         21   -1    0    0  502  503 -0.00000000000E+00 -0.00000000000E+00 -0.11614959873E+04  0.11614959873E+04  0.00000000000E+00 0.  1.
         -6    2    1    2    0  503  0.66489411975E+02 -0.16357987213E+03 -0.67349386872E+03  0.71638583241E+03  0.16862815070E+03 0.  0.
        -24    2    3    3    0    0  0.99803209996E+02 -0.15511963311E+03 -0.48811239007E+03  0.52778634300E+03  0.79258672772E+02 0.  0.
          6    2    1    2  501    0 -0.66489411975E+02  0.16357987213E+03 -0.43380068324E+03  0.49931159017E+03  0.17306014803E+03 0.  0.
         24    2    5    5    0    0 -0.57531797004E+02  0.18354322136E+03 -0.42851002406E+03  0.47631473706E+03  0.79100355541E+02 0.  0.
          5    1    5    5  501    0 -0.89576149712E+01 -0.19963349235E+02 -0.52906591771E+01  0.22996853114E+02  0.47000000000E+01 0. -1.
        -11    1    6    6    0    0 -0.48932722688E+02  0.37454717825E+02 -0.12957617522E+03  0.14348258577E+03  0.00000000000E+00 0.  1.
         12    1    6    6    0    0 -0.85990743158E+01  0.14608850354E+03 -0.29893384884E+03  0.33283215129E+03  0.00000000000E+00 0. -1.
         -5    1    3    3    0  503 -0.33313798022E+02 -0.84602390159E+01 -0.18538147864E+03  0.18859948941E+03  0.47000000000E+01 0.  1.
         13    1    4    4    0    0  0.31991544097E+02 -0.10354232732E+03 -0.34074641270E+03  0.35756480560E+03  0.00000000000E+00 0. -1.
        -14    1    4    4    0    0  0.67811665899E+02 -0.51577305791E+02 -0.14736597738E+03  0.17022153739E+03  0.00000000000E+00 0.  1.
</event>
<event>
12    1  0.8526130E-002  0.1870071E+03  0.7818608E-02  0.1162022E+00
         21   -1    0    0  503  502  0.00000000000E+00  0.00000000000E+00  0.38040568318E+03  0.38040568318E+03  0.00000000000E+00 0. -1.
         21   -1    0    0  501  503 -0.00000000000E+00 -0.00000000000E+00 -0.15752151553E+03  0.15752151553E+03  0.00000000000E+00 0. -1.
          6    2    1    2  501    0  0.45497202486E+02 -0.45611083971E+02 -0.63794685830E+02  0.19758901603E+03  0.17555993535E+03 0.  0.
         24    2    3    3    0    0  0.25537588736E+02  0.40126594429E+02 -0.58903773166E+02  0.10929775539E+03  0.78829136874E+02 0.  0.
         -6    2    1    2    0  502 -0.45497202486E+02  0.45611083971E+02  0.28667885348E+03  0.34033818268E+03  0.17174093032E+03 0.  0.
        -24    2    5    5    0    0 -0.38421153574E+02  0.51341629564E+02  0.30349339114E+03  0.32064736508E+03  0.81205580472E+02 0.  0.
          5    1    3    3  501    0  0.19959613750E+02 -0.85737678401E+02 -0.48909126638E+01  0.88291260639E+02  0.47000000000E+01 0. -1.
        -11    1    4    4    0    0 -0.13291988202E+02  0.21809217496E+02  0.10559582271E+02  0.27637360509E+02  0.00000000000E+00 0.  1.
         12    1    4    4    0    0  0.38829576938E+02  0.18317376933E+02 -0.69463355437E+02  0.81660394877E+02  0.00000000000E+00 0. -1.
         -5    1    5    5    0  502 -0.70760489114E+01 -0.57305455924E+01 -0.16814537664E+02  0.19690817602E+02  0.47000000000E+01 0.  1.
         13    1    6    6    0    0 -0.60342552018E+02  0.54453153610E+02  0.23428289545E+03  0.24798154090E+03  0.00000000000E+00 0. -1.
        -14    1    6    6    0    0  0.21921398444E+02 -0.31115240467E+01  0.69210495684E+02  0.72665824185E+02  0.00000000000E+00 0.  1.
</event>
<event>
12    1  0.8526130E-002  0.1738911E+03  0.7818608E-02  0.1174059E+00
         21   -1    0    0  503  502  0.00000000000E+00  0.00000000000E+00  0.64481572221E+03  0.64481572221E+03  0.00000000000E+00 0.  1.
         21   -1    0    0  501  503 -0.00000000000E+00 -0.00000000000E+00 -0.11941648450E+03  0.11941648450E+03  0.00000000000E+00 0.  1.
          6    2    1    2  501    0  0.56119604728E+01  0.26016788568E+02 -0.35293819983E+02  0.17743664874E+03  0.17184220436E+03 0.  0.
         24    2    3    3    0    0 -0.61998775730E+02  0.26376383609E+01 -0.13353555339E+02  0.10246157604E+03  0.80431659165E+02 0.  0.
         -6    2    1    2    0  502 -0.56119604728E+01 -0.26016788568E+02  0.56069305769E+03  0.58679555797E+03  0.17100863875E+03 0.  0.
        -24    2    5    5    0    0  0.42195583842E+02 -0.52445971016E+02  0.23485230101E+03  0.25637408214E+03  0.77723995855E+02 0.  0.
          5    1    3    3  501    0  0.67610736203E+02  0.23379150207E+02 -0.21940264644E+02  0.74975072704E+02  0.47000000000E+01 0. -1.
        -13    1    4    4    0    0 -0.37522441961E+02 -0.19758223603E+02 -0.41216985974E+02  0.59136798894E+02  0.00000000000E+00 0.  1.
         14    1    4    4    0    0 -0.24476333769E+02  0.22395861964E+02  0.27863430635E+02  0.43324777145E+02  0.00000000000E+00 0. -1.
         -5    1    5    5    0  502 -0.47807544315E+02  0.26429182448E+02  0.32584075668E+03  0.33042147584E+03  0.47000000000E+01 0.  1.
         11    1    6    6    0    0  0.24834686079E+02  0.47755504453E+01  0.17020492048E+02  0.30483842676E+02  0.00000000000E+00 0. -1.
        -12    1    6    6    0    0  0.17360897763E+02 -0.57221521461E+02  0.21783180896E+03  0.22589023946E+03  0.00000000000E+00 0.  1.
</event>
<event>
12    1  0.8526130E-002  0.1718267E+03  0.7818608E-02  0.1177998E+00
         21   -1    0    0  503  502  0.00000000000E+00  0.00000000000E+00  0.47271137413E+03  0.47271137413E+03  0.00000000000E+00 0. -1.
         21   -1    0    0  501  503 -0.00000000000E+00 -0.00000000000E+00 -0.77663067443E+02  0.77663067443E+02  0.00000000000E+00 0. -1.
          6    2    1    2  501    0  0.62273970449E+01 -0.18144571651E+01  0.68607536340E+02  0.18501735479E+03  0.17170426554E+03 0.  0.
         24    2    3    3    0    0  0.37210287411E+02  0.48502010229E+02  0.75070303942E+02  0.12538897437E+03  0.79685593899E+02 0.  0.
         -6    2    1    2    0  502 -0.62273970449E+01  0.18144571651E+01  0.32644077035E+03  0.36535708678E+03  0.16395167455E+03 0.  0.
        -24    2    5    5    0    0  0.13681759061E+02 -0.45694101715E+02  0.11361750588E+03  0.14633820732E+03  0.78935364796E+02 0.  0.
          5    1    3    3  501    0 -0.30982890367E+02 -0.50316467394E+02 -0.64627676015E+01  0.59628380420E+02  0.47000000000E+01 0. -1.
        -11    1    4    4    0    0 -0.12696808173E+02  0.14560488442E+02 -0.94699336234E+01  0.21515027406E+02  0.00000000000E+00 0.  1.
         12    1    4    4    0    0  0.49907095585E+02  0.33941521787E+02  0.84540237565E+02  0.10387394697E+03  0.00000000000E+00 0. -1.
         -5    1    5    5    0  502 -0.19909156106E+02  0.47508558880E+02  0.21282326447E+03  0.21901887947E+03  0.47000000000E+01 0.  1.
         11    1    6    6    0    0 -0.48239906597E+01 -0.47171103951E+02  0.20966701133E+02  0.51845795299E+02  0.00000000000E+00 0. -1.
        -12    1    6    6    0    0  0.18505749721E+02  0.14770022365E+01  0.92650804748E+02  0.94492412017E+02  0.00000000000E+00 0.  1.
</event>
<event>
12    1  0.8526130E-002  0.1801594E+03  0.7818608E-02  0.1167855E+00
         21   -1    0    0  503  502  0.00000000000E+00  0.00000000000E+00  0.18243508608E+03  0.18243508608E+03  0.00000000000E+00 0.  1.
         21   -1    0    0  501  503 -0.00000000000E+00 -0.00000000000E+00 -0.17750584228E+03  0.17750584228E+03  0.00000000000E+00 0.  1.
          6    2    1    2  501    0 -0.48079316835E+02 -0.11672706962E+02 -0.64306540869E+01  0.17942372980E+03  0.17234746505E+03 0.  0.
         24    2    3    3    0    0  0.60786130200E+01 -0.59374701117E+02  0.35339835098E+02  0.95904717718E+02  0.66230704865E+02 0.  0.
         -6    2    1    2    0  502  0.48079316835E+02  0.11672706962E+02  0.11359897890E+02  0.18051719856E+03  0.17323261501E+03 0.  0.
        -24    2    5    5    0    0 -0.33122234451E+01  0.61505398215E+02 -0.18012391926E+02  0.10299811099E+03  0.80562272623E+02 0.  0.
          5    1    3    3  501    0 -0.54157929855E+02  0.47701994154E+02 -0.41770489185E+02  0.83519012082E+02  0.47000000000E+01 0. -1.
        -13    1    4    4    0    0 -0.17762035587E+02  0.17197072755E+01  0.23101651857E+02  0.29191327819E+02  0.00000000000E+00 0.  1.
         14    1    4    4    0    0  0.23840648607E+02 -0.61094408392E+02  0.12238183241E+02  0.66713389899E+02  0.00000000000E+00 0. -1.
         -5    1    5    5    0  502  0.51391540280E+02 -0.49832691253E+02  0.29372289816E+02  0.77519087578E+02  0.47000000000E+01 0.  1.
         11    1    6    6    0    0 -0.26866328427E+02 -0.79816751700E+01 -0.57271536972E+01  0.28606066335E+02  0.00000000000E+00 0. -1.
        -12    1    6    6    0    0  0.23554104982E+02  0.69487073385E+02 -0.12285238229E+02  0.74392044652E+02  0.00000000000E+00 0.  1.
</event>
<event>
12    1  0.8526130E-002  0.2698387E+03  0.7818608E-02  0.1101410E+00
         21   -1    0    0  503  502  0.00000000000E+00  0.00000000000E+00  0.36532758751E+03  0.36532758751E+03  0.00000000000E+00 0.  1.
         21   -1    0    0  501  503 -0.00000000000E+00 -0.00000000000E+00 -0.20669803523E+03  0.20669803523E+03  0.00000000000E+00 0.  1.
          6    2    1    2  501    0 -0.16271730467E+03 -0.12899328312E+03  0.24495323985E+02  0.27068705472E+03  0.17191646915E+03 0.  0.
         24    2    3    3    0    0 -0.19136361262E+02 -0.75743523582E+02 -0.13106097087E+02  0.11293097380E+03  0.80488218861E+02 0.  0.
         -6    2    1    2    0  502  0.16271730467E+03  0.12899328312E+03  0.13413422829E+03  0.30133856802E+03  0.17232745878E+03 0.  0.
        -24    2    5    5    0    0  0.92229308151E+02  0.10566379706E+03  0.14954059712E+03  0.22536311953E+03  0.93568489186E+02 0.  0.
          5    1    3    3  501    0 -0.14358094340E+03 -0.53249759539E+02  0.37601421072E+02  0.15775608092E+03  0.47000000000E+01 0. -1.
        -13    1    4    4    0    0 -0.46277263291E+02 -0.62169488337E+02  0.48786494831E+01  0.77655853601E+02  0.00000000000E+00 0.  1.
         14    1    4    4    0    0  0.27140902029E+02 -0.13574035245E+02 -0.17984746570E+02  0.35275120198E+02  0.00000000000E+00 0. -1.
         -5    1    5    5    0  502  0.70487996515E+02  0.23329486064E+02 -0.15406368825E+02  0.75975448489E+02  0.47000000000E+01 0.  1.
         11    1    6    6    0    0  0.57111564546E+02  0.39697304077E+02  0.14537319359E+02  0.71055896378E+02  0.00000000000E+00 0. -1.
        -12    1    6    6    0    0  0.35117743604E+02  0.65966492980E+02  0.13500327776E+03  0.15430722316E+03  0.00000000000E+00 0.  1.
</event>
<event>
12    1  0.8526130E-002  0.2161716E+03  0.7818608E-02  0.1137833E+00
         21   -1    0    0  501  502  0.00000000000E+00  0.00000000000E+00  0.13569077150E+03  0.13569077150E+03  0.00000000000E+00 0. -1.
         21   -1    0    0  502  503 -0.00000000000E+00 -0.00000000000E+00 -0.10776769522E+04  0.10776769522E+04  0.00000000000E+00 0.  1.
         -6    2    1    2    0  503  0.11408534142E+03  0.66414591363E+02 -0.97627841351E+03  0.99992484982E+03  0.17118353173E+03 0.  0.
        -24    2    3    3    0    0 -0.49014919908E+01  0.40494059365E+02 -0.33060647912E+03  0.34285249660E+03  0.81138134836E+02 0.  0.
          6    2    1    2  501    0 -0.11408534142E+03 -0.66414591363E+02  0.34292232826E+02  0.21344287386E+03  0.16418142433E+03 0.  0.
         24    2    5    5    0    0 -0.10351742056E+03 -0.10374439446E+03  0.91535094443E+01  0.16697524466E+03  0.79487042033E+02 0.  0.
          5    1    5    5  501    0 -0.10567920859E+02  0.37329803097E+02  0.25138723382E+02  0.46467629203E+02  0.47000000000E+01 0. -1.
        -13    1    6    6    0    0 -0.79269083929E+01 -0.31790489501E+02 -0.26490925890E+02  0.42133600058E+02  0.00000000000E+00 0.  1.
         14    1    6    6    0    0 -0.95590512172E+02 -0.71953904960E+02  0.35644435334E+02  0.12484164460E+03  0.00000000000E+00 0. -1.
         -5    1    3    3    0  503  0.11898683341E+03  0.25920531999E+02 -0.64567193439E+03  0.65707235322E+03  0.47000000000E+01 0.  1.
         11    1    4    4    0    0 -0.15421683636E+01  0.54952033053E+02 -0.12311792450E+03  0.13483370333E+03  0.00000000000E+00 0. -1.
        -12    1    4    4    0    0 -0.33593236271E+01 -0.14457973688E+02 -0.20748855461E+03  0.20801879327E+03  0.00000000000E+00 0.  1.
</event>
<event>
12    1  0.8526130E-002  0.1708096E+03  0.7818608E-02  0.1180467E+00
         21   -1    0    0  501  502  0.00000000000E+00  0.00000000000E+00  0.54568745982E+03  0.54568745982E+03  0.00000000000E+00 0. -1.
         21   -1    0    0  502  503 -0.00000000000E+00 -0.00000000000E+00 -0.49591858378E+02  0.49591858378E+02  0.00000000000E+00 0. -1.
         -6    2    1    2    0  503  0.42651098761E+01  0.32413925794E+01  0.24879220657E+03  0.29472166400E+03  0.15790693268E+03 0.  0.
        -24    2    3    3    0    0 -0.39218921467E+02 -0.36126638696E+02  0.18576223689E+03  0.20849191306E+03  0.78217717512E+02 0.  0.
          6    2    1    2  501    0 -0.42651098761E+01 -0.32413925794E+01  0.24730339487E+03  0.30055765420E+03  0.17072561787E+03 0.  0.
         24    2    5    5    0    0 -0.34100859907E+02  0.51288213188E+02  0.10968884063E+03  0.14948315131E+03  0.80747887332E+02 0.  0.
          5    1    5    5  501    0  0.29835750031E+02 -0.54529605768E+02  0.13761455424E+03  0.15107450289E+03  0.47000000000E+01 0. -1.
        -11    1    6    6    0    0  0.23917446463E+01  0.35356958859E+02  0.10323108837E+03  0.10914436581E+03  0.00000000000E+00 0.  1.
         12    1    6    6    0    0 -0.36492604553E+02  0.15931254329E+02  0.64577522633E+01  0.40338785503E+02  0.00000000000E+00 0. -1.
         -5    1    3    3    0  503  0.43484031343E+02  0.39368031276E+02  0.63029969685E+02  0.86229750938E+02  0.47000000000E+01 0.  1.
         11    1    4    4    0    0  0.21448260632E+02  0.27903343574E+01  0.56404694360E+02  0.60409464456E+02  0.00000000000E+00 0. -1.
        -12    1    4    4    0    0 -0.60667182099E+02 -0.38916973054E+02  0.12935754253E+03  0.14808244860E+03  0.00000000000E+00 0.  1.
</event>
<event>
12    1  0.8526130E-002  0.1809233E+03  0.7818608E-02  0.1167009E+00
         21   -1    0    0  503  502  0.00000000000E+00  0.00000000000E+00  0.37418812840E+02  0.37418812840E+02  0.00000000000E+00 0.  1.
         21   -1    0    0  501  503 -0.00000000000E+00 -0.00000000000E+00 -0.87288093450E+03  0.87288093450E+03  0.00000000000E+00 0. -1.
          6    2    1    2  501    0  0.49548340609E+02 -0.65277287156E+01 -0.42155261940E+03  0.45873722272E+03  0.17388380973E+03 0.  0.
         24    2    3    3    0    0 -0.27859096334E+02 -0.29583328201E+02 -0.14331021077E+03  0.16897111027E+03  0.79762880088E+02 0.  0.
         -6    2    1    2    0  502 -0.49548340609E+02  0.65277287156E+01 -0.41390950226E+03  0.45156252462E+03  0.17346466004E+03 0.  0.
        -24    2    5    5    0    0  0.15616757017E+02  0.23004577985E+02 -0.10017056186E+03  0.13066972440E+03  0.79166544090E+02 0.  0.
          5    1    3    3  501    0  0.77407436943E+02  0.23055599486E+02 -0.27824240863E+03  0.28976611245E+03  0.47000000000E+01 0. -1.
        -11    1    4    4    0    0 -0.10666087917E+02 -0.31243718434E+02 -0.99273085573E+01  0.34474437315E+02  0.00000000000E+00 0.  1.
         12    1    4    4    0    0 -0.17193008417E+02  0.16603902324E+01 -0.13338290221E+03  0.13449667295E+03  0.00000000000E+00 0. -1.
         -5    1    5    5    0  502 -0.65165097627E+02 -0.16476849269E+02 -0.31373894040E+03  0.32089280022E+03  0.47000000000E+01 0.  1.
         11    1    6    6    0    0 -0.11291424307E+02 -0.19415651322E+02 -0.66510523176E+02  0.70200523305E+02  0.00000000000E+00 0. -1.
        -12    1    6    6    0    0  0.26908181325E+02  0.42420229306E+02 -0.33660038680E+02  0.60469201091E+02  0.00000000000E+00 0.  1.
</event>
<event>
12    1  0.8526130E-002  0.1813235E+03  0.7818608E-02  0.1167178E+00
         21   -1    0    0  501  502  0.00000000000E+00  0.00000000000E+00  0.59906972673E+03  0.59906972673E+03  0.00000000000E+00 0.  1.
         21   -1    0    0  502  503 -0.00000000000E+00 -0.00000000000E+00 -0.10525759227E+03  0.10525759227E+03  0.00000000000E+00 0.  1.
         -6    2    1    2    0  503 -0.47752092145E+02 -0.13556738449E+02  0.37869868074E+00  0.17863274689E+03  0.17159681637E+03 0.  0.
        -24    2    3    3    0    0  0.13506112971E+02  0.36280672496E+02 -0.32255443159E+02  0.93055808191E+02  0.78232138795E+02 0.  0.
          6    2    1    2  501    0  0.47752092145E+02  0.13556738449E+02  0.49343343578E+03  0.52569457211E+03  0.17439661735E+03 0.  0.
         24    2    5    5    0    0  0.44670185550E+02 -0.21767699628E+02  0.47742013000E+03  0.48650490465E+03  0.79295545248E+02 0.  0.
          5    1    5    5  501    0  0.30819065951E+01  0.35324438077E+02  0.16013305775E+02  0.39189667460E+02  0.47000000000E+01 0. -1.
        -13    1    6    6    0    0  0.47306487866E+02  0.19631275100E+02  0.23024416309E+03  0.23587213781E+03  0.00000000000E+00 0.  1.
         14    1    6    6    0    0 -0.26363023163E+01 -0.41398974728E+02  0.24717596691E+03  0.25063276685E+03  0.00000000000E+00 0. -1.
         -5    1    3    3    0  503 -0.61258205117E+02 -0.49837410946E+02  0.32634141840E+02  0.85576938702E+02  0.47000000000E+01 0.  1.
         11    1    4    4    0    0 -0.97548797952E+01  0.22404836772E+02  0.21701904335E+02  0.32681906958E+02  0.00000000000E+00 0. -1.
        -12    1    4    4    0    0  0.23260992767E+02  0.13875835724E+02 -0.53957347495E+02  0.60373901234E+02  0.00000000000E+00 0.  1.
</event>
<event>
12    1  0.8526130E-002  0.2963292E+03  0.7818608E-02  0.1087189E+00
         21   -1    0    0  503  502  0.00000000000E+00  0.00000000000E+00  0.14934425856E+03  0.14934425856E+03  0.00000000000E+00 0.  1.
         21   -1    0    0  501  503 -0.00000000000E+00 -0.00000000000E+00 -0.15115066141E+04  0.15115066141E+04  0.00000000000E+00 0.  1.
          6    2    1    2  501    0  0.22319836940E+03  0.91441154266E+02 -0.13310870258E+04  0.13636728559E+04  0.17213945163E+03 0.  0.
         24    2    3    3    0    0  0.23973649338E+03  0.58134421863E+02 -0.11438322943E+04  0.11727035587E+04  0.77640981501E+02 0.  0.
         -6    2    1    2    0  502 -0.22319836940E+03 -0.91441154266E+02 -0.31075329800E+02  0.29717801684E+03  0.17079256652E+03 0.  0.
        -24    2    5    5    0    0 -0.22263547719E+03 -0.76868528721E+02  0.94061727995E+01  0.25389383595E+03  0.94330681310E+02 0.  0.
          5    1    3    3  501    0 -0.16538123979E+02  0.33306732402E+02 -0.18725473152E+03  0.19096929713E+03  0.47000000000E+01 0. -1.
        -13    1    4    4    0    0  0.51268806190E+02 -0.17787699493E+02 -0.19867314598E+03  0.20595123616E+03  0.00000000000E+00 0.  1.
         14    1    4    4    0    0  0.18846768719E+03  0.75922121357E+02 -0.94515914828E+03  0.96675232257E+03  0.00000000000E+00 0. -1.
         -5    1    5    5    0  502 -0.56289221169E+00 -0.14572625544E+02 -0.40481502599E+02  0.43284180893E+02  0.47000000000E+01 0.  1.
         11    1    6    6    0    0 -0.10082122962E+03 -0.43537287303E+02 -0.41949663852E+02  0.11755930429E+03  0.00000000000E+00 0. -1.
        -12    1    6    6    0    0 -0.12181424756E+03 -0.33331241418E+02  0.51355836652E+02  0.13633453166E+03  0.00000000000E+00 0.  1.
</event>
<event>
12    1  0.8526130E-002  0.1740623E+03  0.7818608E-02  0.1173887E+00
         21   -1    0    0  501  502  0.00000000000E+00  0.00000000000E+00  0.50793277112E+03  0.50793277112E+03  0.00000000000E+00 0. -1.
         21   -1    0    0  502  503 -0.00000000000E+00 -0.00000000000E+00 -0.70556091784E+02  0.70556091784E+02  0.00000000000E+00 0. -1.
         -6    2    1    2    0  503  0.20143919145E+02  0.77907003741E+01  0.10393106186E+03  0.20272976578E+03  0.17271716713E+03 0.  0.
        -24    2    3    3    0    0  0.36194716077E+02 -0.45953054974E+02  0.17942922491E+02  0.99957836567E+02  0.79043531616E+02 0.  0.
          6    2    1    2  501    0 -0.20143919145E+02 -0.77907003741E+01  0.33344561747E+03  0.37575909713E+03  0.17187916328E+03 0.  0.
         24    2    5    5    0    0 -0.58318847909E+02 -0.33655994957E-01  0.10872287444E+03  0.14763654638E+03  0.81085123454E+02 0.  0.
          5    1    5    5  501    0  0.38174928764E+02 -0.77570443792E+01  0.22472274303E+03  0.22812255075E+03  0.47000000000E+01 0. -1.
        -13    1    6    6    0    0 -0.42640469093E+01  0.32836808626E+02  0.56998931899E+02  0.65919013451E+02  0.00000000000E+00 0.  1.
         14    1    6    6    0    0 -0.54054801000E+02 -0.32870464621E+02  0.51723942540E+02  0.81717532925E+02  0.00000000000E+00 0. -1.
         -5    1    3    3    0  503 -0.16050796932E+02  0.53743755348E+02  0.85988139373E+02  0.10277192921E+03  0.47000000000E+01 0.  1.
         11    1    4    4    0    0 -0.17655254710E+02 -0.35820366062E+02 -0.55878183840E+01  0.40324066734E+02  0.00000000000E+00 0. -1.
        -12    1    4    4    0    0  0.53849970787E+02 -0.10132688912E+02  0.23530740875E+02  0.59633769833E+02  0.00000000000E+00 0.  1.
</event>
<event>
12    1  0.8526130E-002  0.1860182E+03  0.7818608E-02  0.1162271E+00
         21   -1    0    0  503  502  0.00000000000E+00  0.00000000000E+00  0.12724736994E+04  0.12724736994E+04  0.00000000000E+00 0.  1.
         21   -1    0    0  501  503 -0.00000000000E+00 -0.00000000000E+00 -0.31789313285E+02  0.31789313285E+02  0.00000000000E+00 0. -1.
          6    2    1    2  501    0  0.28096553121E+02 -0.64307076881E+02  0.37057593378E+03  0.41464358362E+03  0.17227292968E+03 0.  0.
         24    2    3    3    0    0 -0.45817117238E+02 -0.22439030662E+02  0.24871055638E+03  0.26601847077E+03  0.79411382089E+02 0.  0.
         -6    2    1    2    0  502 -0.28096553121E+02  0.64307076881E+02  0.87010845229E+03  0.88961942903E+03  0.17149108816E+03 0.  0.
        -24    2    5    5    0    0 -0.75425596099E+02  0.83155808441E+01  0.58372553638E+03  0.59396363175E+03  0.79367024558E+02 0.  0.
          5    1    3    3  501    0  0.73913670359E+02 -0.41868046219E+02  0.12186537740E+03  0.14862511285E+03  0.47000000000E+01 0. -1.
        -13    1    4    4    0    0  0.16753056119E+02 -0.11530058840E+02  0.12812148227E+03  0.12972556173E+03  0.00000000000E+00 0.  1.
         14    1    4    4    0    0 -0.62570173356E+02 -0.10908971822E+02  0.12058907411E+03  0.13629290904E+03  0.00000000000E+00 0. -1.
         -5    1    5    5    0  502  0.47329042978E+02  0.55991496037E+02  0.28638291592E+03  0.29565579728E+03  0.47000000000E+01 0.  1.
         11    1    6    6    0    0 -0.79072174344E+02  0.72444073817E+01  0.30358438865E+03  0.31379670365E+03  0.00000000000E+00 0. -1.
        -12    1    6    6    0    0  0.36465782446E+01  0.10711734625E+01  0.28014114773E+03  0.28016692809E+03  0.00000000000E+00 0.  1.
</event>
<event>
12    1  0.8526130E-002  0.2301472E+03  0.7818608E-02  0.1126766E+00
         21   -1    0    0  501  502  0.00000000000E+00  0.00000000000E+00  0.88108943546E+02  0.88108943546E+02  0.00000000000E+00 0.  1.
         21   -1    0    0  502  503 -0.00000000000E+00 -0.00000000000E+00 -0.68192806399E+03  0.68192806399E+03  0.00000000000E+00 0. -1.
         -6    2    1    2    0  503  0.91451082290E+02 -0.12109101870E+03 -0.43143391515E+03  0.48836932375E+03  0.17129809683E+03 0.  0.
        -24    2    3    3    0    0  0.99593523327E+02 -0.22820421909E+02 -0.24128791264E+03  0.27412413288E+03  0.80526653340E+02 0.  0.
          6    2    1    2  501    0 -0.91451082290E+02  0.12109101870E+03 -0.16238520530E+03  0.28166768379E+03  0.17303581689E+03 0.  0.
         24    2    5    5    0    0 -0.12828168873E+03  0.80578884644E+02 -0.97540101285E+02  0.19666942445E+03  0.78839348297E+02 0.  0.
          5    1    5    5  501    0  0.36830606436E+02  0.40512134060E+02 -0.64845104017E+02  0.84998259344E+02  0.47000000000E+01 0. -1.
        -11    1    6    6    0    0 -0.78169070670E+02  0.76145449015E+02 -0.31368227247E+02  0.11354513946E+03  0.00000000000E+00 0.  1.
         12    1    6    6    0    0 -0.50112618057E+02  0.44334356281E+01 -0.66171874038E+02  0.83124284981E+02  0.00000000000E+00 0. -1.
         -5    1    3    3    0  503 -0.81424410371E+01 -0.98270596794E+02 -0.19014600251E+03  0.21424519087E+03  0.47000000000E+01 0.  1.
         11    1    4    4    0    0  0.44915162157E+01  0.27655130922E+01 -0.10938056003E+03  0.10950766500E+03  0.00000000000E+00 0. -1.
        -12    1    4    4    0    0  0.95102007112E+02 -0.25585935001E+02 -0.13190735260E+03  0.16461646788E+03  0.00000000000E+00 0.  1.
</event>
<event>
12    1  0.8526130E-002  0.1870477E+03  0.7818608E-02  0.1161836E+00
         21   -1    0    0  503  502  0.00000000000E+00  0.00000000000E+00  0.61834952877E+03  0.61834952877E+03  0.00000000000E+00 0. -1.
         21   -1    0    0  501  503 -0.00000000000E+00 -0.00000000000E+00 -0.59261988062E+02  0.59261988062E+02  0.00000000000E+00 0. -1.
          6    2    1    2  501    0  0.32726530680E+01 -0.58628773461E+02  0.19848336398E+03  0.27273149958E+03  0.17759161509E+03 0.  0.
         24    2    3    3    0    0 -0.67126122809E+02 -0.16856423903E+02  0.12022111259E+03  0.15938253917E+03  0.78483262482E+02 0.  0.
         -6    2    1    2    0  502 -0.32726530680E+01  0.58628773461E+02  0.36060417673E+03  0.40488001725E+03  0.17448327359E+03 0.  0.
        -24    2    5    5    0    0 -0.52930714561E+02  0.81682703699E+02  0.25193466377E+03  0.28310744310E+03  0.84882418089E+02 0.  0.
          5    1    3    3  501    0  0.70398775877E+02 -0.41772349558E+02  0.78262251390E+02  0.11334896041E+03  0.47000000000E+01 0. -1.
        -11    1    4    4    0    0 -0.35093729440E+02 -0.45071541867E+02  0.44314686915E+02  0.72296647285E+02  0.00000000000E+00 0.  1.
         12    1    4    4    0    0 -0.32032393369E+02  0.28215117964E+02  0.75906425677E+02  0.87085891887E+02  0.00000000000E+00 0. -1.
         -5    1    5    5    0  502  0.49658061493E+02 -0.23053930238E+02  0.10866951295E+03  0.12177257416E+03  0.47000000000E+01 0.  1.
         11    1    6    6    0    0 -0.54632005959E+02  0.32028718922E+02  0.69485215266E+02  0.94014307695E+02  0.00000000000E+00 0. -1.
        -12    1    6    6    0    0  0.17012913983E+01  0.49653984777E+02  0.18244944850E+03  0.18909313540E+03  0.00000000000E+00 0.  1.
</event>
<event>
12    1  0.8526130E-002  0.2055503E+03  0.7818608E-02  0.1145336E+00
         21   -1    0    0  503  502  0.00000000000E+00  0.00000000000E+00  0.70650214232E+02  0.70650214232E+02  0.00000000000E+00 0.  1.
         21   -1    0    0  501  503 -0.00000000000E+00 -0.00000000000E+00 -0.79338568180E+03  0.79338568180E+03  0.00000000000E+00 0. -1.
          6    2    1    2  501    0 -0.10920210927E+03  0.24964068374E+02 -0.57791854581E+03  0.61338469702E+03  0.17234452580E+03 0.  0.
         24    2    3    3    0    0 -0.42094314395E+02 -0.49980272853E+02 -0.33077750062E+03  0.34651226190E+03  0.79918919836E+02 0.  0.
         -6    2    1    2    0  502  0.10920210927E+03 -0.24964068374E+02 -0.14481692176E+03  0.25065119901E+03  0.17118930269E+03 0.  0.
        -24    2    5    5    0    0  0.16415933892E+02  0.29799138618E+02 -0.16140337828E+02  0.82758267547E+02  0.73694971296E+02 0.  0.
          5    1    3    3  501    0 -0.67107794878E+02  0.74944341226E+02 -0.24714104519E+03  0.26687243513E+03  0.47000000000E+01 0. -1.
        -13    1    4    4    0    0 -0.46259042502E+02 -0.50076787510E+02 -0.14026931309E+03  0.15595853248E+03  0.00000000000E+00 0.  1.
         14    1    4    4    0    0  0.41647281068E+01  0.96514657292E-01 -0.19050818753E+03  0.19055372941E+03  0.00000000000E+00 0. -1.
         -5    1    5    5    0  502  0.92786175380E+02 -0.54763206991E+02 -0.12867658393E+03  0.16789293146E+03  0.47000000000E+01 0.  1.
         13    1    6    6    0    0 -0.88504785028E+01  0.31733844442E+02 -0.37284979762E+02  0.49754774331E+02  0.00000000000E+00 0. -1.
        -14    1    6    6    0    0  0.25266412395E+02 -0.19347058244E+01  0.21144641935E+02  0.33003493217E+02  0.00000000000E+00 0.  1.
</event>
<event>
12    1  0.8526130E-002  0.2021833E+03  0.7818608E-02  0.1148011E+00
         21   -1    0    0  501  502  0.00000000000E+00  0.00000000000E+00  0.13432708192E+03  0.13432708192E+03  0.00000000000E+00 0.  1.
         21   -1    0    0  502  503 -0.00000000000E+00 -0.00000000000E+00 -0.47097940762E+03  0.47097940762E+03  0.00000000000E+00 0.  1.
         -6    2    1    2    0  503 -0.39196600959E+02  0.97685442216E+02  0.12233688312E+02  0.20207013925E+03  0.17205771967E+03 0.  0.
        -24    2    3    3    0    0 -0.86201221560E+02  0.33602636145E+02  0.78562464997E+01  0.12233750861E+03  0.79655242444E+02 0.  0.
          6    2    1    2  501    0  0.39196600959E+02 -0.97685442216E+02 -0.34888601401E+03  0.40323635029E+03  0.17262469195E+03 0.  0.
         24    2    5    5    0    0 -0.53554287813E+01 -0.12672933908E+03 -0.26493783288E+03  0.30374857006E+03  0.77344246859E+02 0.  0.
          5    1    5    5  501    0  0.44552029740E+02  0.29043896864E+02 -0.83948181128E+02  0.99487780223E+02  0.47000000000E+01 0. -1.
        -11    1    6    6    0    0  0.56684419183E+01 -0.35347179167E+01 -0.85795474398E+02  0.86055150291E+02  0.00000000000E+00 0.  1.
         12    1    6    6    0    0 -0.11023870700E+02 -0.12319462116E+03 -0.17914235849E+03  0.21769341977E+03  0.00000000000E+00 0. -1.
         -5    1    3    3    0  503  0.47004620601E+02  0.64082806071E+02  0.43774418125E+01  0.79732630639E+02  0.47000000000E+01 0.  1.
         13    1    4    4    0    0 -0.89081260265E+02  0.25759815492E+02  0.30965334137E+02  0.97764466667E+02  0.00000000000E+00 0. -1.
        -14    1    4    4    0    0  0.28800387051E+01  0.78428206529E+01 -0.23109087637E+02  0.24573041939E+02  0.00000000000E+00 0.  1.
</event>
<event>
12    1  0.8526130E-002  0.1736004E+03  0.7818608E-02  0.1176044E+00
         21   -1    0    0  501  502  0.00000000000E+00  0.00000000000E+00  0.95481821176E+02  0.95481821176E+02  0.00000000000E+00 0. -1.
         21   -1    0    0  502  503 -0.00000000000E+00 -0.00000000000E+00 -0.30419047196E+03  0.30419047196E+03  0.00000000000E+00 0. -1.
         -6    2    1    2    0  503 -0.27649015992E+01 -0.11922948858E+02 -0.87088986219E+02  0.18770900613E+03  0.16583237944E+03 0.  0.
        -24    2    3    3    0    0 -0.85787643240E+01 -0.26258120295E+01  0.17907053130E+02  0.82037363617E+02  0.79554864033E+02 0.  0.
          6    2    1    2  501    0  0.27649015992E+01  0.11922948858E+02 -0.12161966456E+03  0.21196328700E+03  0.17316838868E+03 0.  0.
         24    2    5    5    0    0  0.13010517919E+02  0.52685896839E+02 -0.17506872274E+02  0.99588227046E+02  0.81647088662E+02 0.  0.
          5    1    5    5  501    0 -0.10245616320E+02 -0.40762947981E+02 -0.10411279229E+03  0.11237505996E+03  0.47000000000E+01 0. -1.
        -11    1    6    6    0    0 -0.28867571752E+02  0.26165277935E+02  0.13367123356E+02  0.41190271365E+02  0.00000000000E+00 0.  1.
         12    1    6    6    0    0  0.41878089671E+02  0.26520618904E+02 -0.30873995630E+02  0.58397955681E+02  0.00000000000E+00 0. -1.
         -5    1    3    3    0  503  0.58138627248E+01 -0.92971368283E+01 -0.10499603935E+03  0.10567164252E+03  0.47000000000E+01 0.  1.
         11    1    4    4    0    0  0.10391584660E+01 -0.32982307006E+02 -0.14997848395E+02  0.36247039634E+02  0.00000000000E+00 0. -1.
        -12    1    4    4    0    0 -0.96179227900E+01  0.30356494977E+02  0.32904901525E+02  0.45790323983E+02  0.00000000000E+00 0.  1.
</event>
<event>
12    1  0.8526130E-002  0.1982962E+03  0.7818608E-02  0.1151765E+00
         21   -1    0    0  503  502  0.00000000000E+00  0.00000000000E+00  0.12645398577E+03  0.12645398577E+03  0.00000000000E+00 0. -1.
         21   -1    0    0  501  503 -0.00000000000E+00 -0.00000000000E+00 -0.56275159830E+03  0.56275159830E+03  0.00000000000E+00 0.  1.
          6    2    1    2  501    0  0.49357702332E+02 -0.75931826098E+02 -0.45139188498E+03  0.49302741070E+03  0.17640739464E+03 0.  0.
         24    2    3    3    0    0  0.12454341419E+02  0.23023973952E+02 -0.27129996149E+03  0.28419901388E+03  0.80499667037E+02 0.  0.
         -6    2    1    2    0  502 -0.49357702332E+02  0.75931826098E+02  0.15094272444E+02  0.19617817337E+03  0.17336727965E+03 0.  0.
        -24    2    5    5    0    0 -0.18531178553E+02 -0.27760564926E+02  0.17184519391E+02  0.87878378097E+02  0.79455950606E+02 0.  0.
          5    1    3    3  501    0  0.36903360913E+02 -0.98955800050E+02 -0.18009192349E+03  0.20882839682E+03  0.47000000000E+01 0. -1.
        -13    1    4    4    0    0  0.24294131061E+01  0.22787975554E+02 -0.27305831198E+03  0.27401831256E+03  0.00000000000E+00 0.  1.
         14    1    4    4    0    0  0.10024928313E+02  0.23599839752E+00  0.17583504945E+01  0.10180701321E+02  0.00000000000E+00 0. -1.
         -5    1    5    5    0  502 -0.30826523778E+02  0.10369239102E+03 -0.20902469472E+01  0.10829979528E+03  0.47000000000E+01 0.  1.
         13    1    6    6    0    0 -0.32954289954E+02  0.39501857056E+01  0.35434376342E+02  0.48550841601E+02  0.00000000000E+00 0. -1.
        -14    1    6    6    0    0  0.14423111400E+02 -0.31710750631E+02 -0.18249856951E+02  0.39327536495E+02  0.00000000000E+00 0.  1.
</event>
<event>
12    1  0.8526130E-002  0.1775662E+03  0.7818608E-02  0.1170227E+00
         21   -1    0    0  501  502  0.00000000000E+00  0.00000000000E+00  0.24940759149E+03  0.24940759149E+03  0.00000000000E+00 0.  1.
         21   -1    0    0  502  503 -0.00000000000E+00 -0.00000000000E+00 -0.30998315045E+03  0.30998315045E+03  0.00000000000E+00 0.  1.
         -6    2    1    2    0  503 -0.32145220637E+02 -0.28286805146E+02 -0.24560832347E+03  0.30307296237E+03  0.17232618318E+03 0.  0.
        -24    2    3    3    0    0 -0.15203120441E+02 -0.81650753683E+02 -0.13938319095E+03  0.18290385427E+03  0.84428464042E+02 0.  0.
          6    2    1    2  501    0  0.32145220637E+02  0.28286805146E+02  0.18503276450E+03  0.25631777957E+03  0.17212850324E+03 0.  0.
         24    2    5    5    0    0  0.32164866266E+02  0.80603085450E+01  0.20004841895E+02  0.89988537429E+02  0.81229280273E+02 0.  0.
          5    1    5    5  501    0 -0.19645629798E-01  0.20226496601E+02  0.16502792261E+03  0.16632924214E+03  0.47000000000E+01 0. -1.
        -13    1    6    6    0    0 -0.25711002124E+01 -0.30820727420E+02  0.21769509521E+02  0.37821149372E+02  0.00000000000E+00 0.  1.
         14    1    6    6    0    0  0.34735966479E+02  0.38881035965E+02 -0.17646676260E+01  0.52167388058E+02  0.00000000000E+00 0. -1.
         -5    1    3    3    0  503 -0.16942100196E+02  0.53363948537E+02 -0.10622513252E+03  0.12016910810E+03  0.47000000000E+01 0.  1.
         13    1    4    4    0    0  0.70727840346E+01 -0.89853902832E+02 -0.86440139165E+02  0.12488252795E+03  0.00000000000E+00 0. -1.
        -14    1    4    4    0    0 -0.22275904476E+02  0.82031491492E+01 -0.52943051781E+02  0.58021326321E+02  0.00000000000E+00 0.  1.
</event>
<event>
12    1  0.8526130E-002  0.1768789E+03  0.7818608E-02  0.1171063E+00
         21   -1    0    0  503  502  0.00000000000E+00  0.00000000000E+00  0.60017598353E+02  0.60017598353E+02  0.00000000000E+00 0.  1.
         21   -1    0    0  501  503 -0.00000000000E+00 -0.00000000000E+00 -0.13041623404E+04  0.13041623404E+04  0.00000000000E+00 0.  1.
          6    2    1    2  501    0  0.41251167640E+02  0.94907741225E+00 -0.11519455735E+04  0.11654461596E+04  0.17199880005E+03 0.  0.
         24    2    3    3    0    0 -0.42209110835E+02 -0.37377122728E+01 -0.69470473056E+03  0.70060332329E+03  0.80217045699E+02 0.  0.
         -6    2    1    2    0  502 -0.41251167640E+02 -0.94907741225E+00 -0.92199168626E+02  0.19873377916E+03  0.17114867427E+03 0.  0.
        -24    2    5    5    0    0  0.33380443569E+02 -0.21259930266E+02 -0.76918728050E+02  0.11975283209E+03  0.82813111407E+02 0.  0.
          5    1    3    3  501    0  0.83460278475E+02  0.46867896850E+01 -0.45724084290E+03  0.46484283634E+03  0.47000000000E+01 0. -1.
        -13    1    4    4    0    0  0.21298507277E+02  0.65260966565E+01 -0.10122482114E+03  0.10364690427E+03  0.00000000000E+00 0.  1.
         14    1    4    4    0    0 -0.63507618113E+02 -0.10263808929E+02 -0.59347990942E+03  0.59695641902E+03  0.00000000000E+00 0. -1.
         -5    1    5    5    0  502 -0.74631611209E+02  0.20310852854E+02 -0.15280440576E+02  0.78980947067E+02  0.47000000000E+01 0.  1.
         13    1    6    6    0    0  0.28858892853E+02 -0.51892063668E+02 -0.40122639257E+02  0.71662041203E+02  0.00000000000E+00 0. -1.
        -14    1    6    6    0    0  0.45215507158E+01  0.30632133402E+02 -0.36796088794E+02  0.48090790887E+02  0.00000000000E+00 0.  1.
</event>
<event>
12    1  0.8526130E-002  0.2034582E+03  0.7818608E-02  0.1146915E+00
         21   -1    0    0  501  502  0.00000000000E+00  0.00000000000E+00  0.91108381857E+02  0.91108381857E+02  0.00000000000E+00 0.  1.
         21   -1    0    0  502  503 -0.00000000000E+00 -0.00000000000E+00 -0.52460755496E+03  0.52460755496E+03  0.00000000000E+00 0. -1.
         -6    2    1    2    0  503  0.91207807533E+02  0.59477777465E+02 -0.33007838510E+03  0.38774602699E+03  0.17186846997E+03 0.  0.
        -24    2    3    3    0    0  0.60560674010E+02  0.19933019771E+02 -0.72243278601E+02  0.12505977536E+03  0.79724121792E+02 0.  0.
          6    2    1    2  501    0 -0.91207807533E+02 -0.59477777465E+02 -0.10342078800E+03  0.22796990983E+03  0.17151661794E+03 0.  0.
         24    2    5    5    0    0 -0.12880524590E+02 -0.88113151407E+02 -0.50736869188E+02  0.12921347613E+03  0.78689625460E+02 0.  0.
          5    1    5    5  501    0 -0.78327282943E+02  0.28635373942E+02 -0.52683918817E+02  0.98756433694E+02  0.47000000000E+01 0. -1.
        -13    1    6    6    0    0  0.19614771894E+02  0.47968861685E+01 -0.57798706078E+01  0.21003721042E+02  0.00000000000E+00 0.  1.
         14    1    6    6    0    0 -0.32495296484E+02 -0.92910037575E+02 -0.44956998580E+02  0.10820975509E+03  0.00000000000E+00 0. -1.
         -5    1    3    3    0  503  0.30647133523E+02  0.39544757694E+02 -0.25783510650E+03  0.26268625163E+03  0.47000000000E+01 0.  1.
         13    1    4    4    0    0  0.23642472803E+02  0.47142459805E+02 -0.22316620012E+02  0.57266129304E+02  0.00000000000E+00 0. -1.
        -14    1    4    4    0    0  0.36918201207E+02 -0.27209440034E+02 -0.49926658589E+02  0.67793646053E+02  0.00000000000E+00 0.  1.
</event>
<event>
12    1  0.8526130E-002  0.2562928E+03  0.7818608E-02  0.1109956E+00
         21   -1    0    0  503  502  0.00000000000E+00  0.00000000000E+00  0.10787274236E+03  0.10787274236E+03  0.00000000000E+00 0.  1.
         21   -1    0    0  501  503 -0.00000000000E+00 -0.00000000000E+00 -0.60288268427E+03  0.60288268427E+03  0.00000000000E+00 0. -1.
          6    2    1    2  501    0 -0.10347138741E+03 -0.15295539277E+03 -0.26918492069E+03  0.36916655385E+03  0.17239995000E+03 0.  0.
         24    2    3    3    0    0 -0.33926302458E+02 -0.17078229877E+01 -0.86235630589E+02  0.12177035550E+03  0.78978002242E+02 0.  0.
         -6    2    1    2    0  502  0.10347138741E+03  0.15295539277E+03 -0.22582502122E+03  0.34158887278E+03  0.17771982897E+03 0.  0.
        -24    2    5    5    0    0  0.87320835311E+02  0.16066976592E+02 -0.12094368857E+03  0.16832184546E+03  0.76300667352E+02 0.  0.
          5    1    3    3  501    0 -0.69545084950E+02 -0.15124756978E+03 -0.18294929011E+03  0.24739619835E+03  0.47000000000E+01 0. -1.
        -11    1    4    4    0    0 -0.49264662055E+02 -0.15638598863E+02 -0.25574893969E+02  0.57668430734E+02  0.00000000000E+00 0.  1.
         12    1    4    4    0    0  0.15338359597E+02  0.13930775876E+02 -0.60660736620E+02  0.64101924768E+02  0.00000000000E+00 0. -1.
         -5    1    5    5    0  502  0.16150552097E+02  0.13688841618E+03 -0.10488133264E+03  0.17326702731E+03  0.47000000000E+01 0.  1.
         11    1    6    6    0    0 -0.13031510130E+02  0.41670481819E+01 -0.27358745611E+02  0.30588976907E+02  0.00000000000E+00 0. -1.
        -12    1    6    6    0    0  0.10035234544E+03  0.11899928410E+02 -0.93584942963E+02  0.13773286856E+03  0.00000000000E+00 0.  1.
</event>
<event>
12    1  0.8526130E-002  0.1931946E+03  0.7818608E-02  0.1156453E+00
         21   -1    0    0  503  502  0.00000000000E+00  0.00000000000E+00  0.21454556046E+03  0.21454556046E+03  0.00000000000E+00 0. -1.
         21   -1    0    0  501  503 -0.00000000000E+00 -0.00000000000E+00 -0.42476549250E+03  0.42476549250E+03  0.00000000000E+00 0.  1.
          6    2    1    2  501    0 -0.89471060764E+02 -0.10475375394E+02 -0.35279574919E+03  0.40223000398E+03  0.17090737623E+03 0.  0.
         24    2    3    3    0    0 -0.94998050742E+02 -0.57478315773E+02 -0.29982939747E+03  0.33104469343E+03  0.85816869175E+02 0.  0.
         -6    2    1    2    0  502  0.89471060764E+02  0.10475375394E+02  0.14257581715E+03  0.23708104898E+03  0.16662759659E+03 0.  0.
        -24    2    5    5    0    0  0.87695078092E+02 -0.14283814310E+02  0.16489891807E+03  0.20336781087E+03  0.79198227537E+02 0.  0.
          5    1    3    3  501    0  0.55269899785E+01  0.47002940379E+02 -0.52966351719E+02  0.71185310541E+02  0.47000000000E+01 0. -1.
        -11    1    4    4    0    0 -0.64414238397E+02  0.10656615587E+02 -0.15168379023E+03  0.16513851696E+03  0.00000000000E+00 0.  1.
         12    1    4    4    0    0 -0.30583812345E+02 -0.68134931361E+02 -0.14814560724E+03  0.16590617648E+03  0.00000000000E+00 0. -1.
         -5    1    5    5    0  502  0.17759826721E+01  0.24759189704E+02 -0.22323100917E+02  0.33713238109E+02  0.47000000000E+01 0.  1.
         13    1    6    6    0    0 -0.13797166982E+02  0.54952378024E+01  0.13783110404E+02  0.20261628454E+02  0.00000000000E+00 0. -1.
        -14    1    6    6    0    0  0.10149224507E+03 -0.19779052113E+02  0.15111580766E+03  0.18310618241E+03  0.00000000000E+00 0.  1.
</event>
<event>
12    1  0.8526130E-002  0.2166936E+03  0.7818608E-02  0.1136534E+00
         21   -1    0    0  501  502  0.00000000000E+00  0.00000000000E+00  0.14374691389E+03  0.14374691389E+03  0.00000000000E+00 0.  1.
         21   -1    0    0  502  503 -0.00000000000E+00 -0.00000000000E+00 -0.50760578758E+03  0.50760578758E+03  0.00000000000E+00 0. -1.
         -6    2    1    2    0  503  0.13025378507E+03  0.15241498700E+02 -0.37729105639E+03  0.43509154767E+03  0.17250438201E+03 0.  0.
        -24    2    3    3    0    0  0.11715018704E+03  0.67492324834E+02 -0.23486787673E+03  0.28274882478E+03  0.80651089023E+02 0.  0.
          6    2    1    2  501    0 -0.13025378507E+03 -0.15241498700E+02  0.13432182695E+02  0.21626115380E+03  0.17143544355E+03 0.  0.
         24    2    5    5    0    0 -0.13794099652E+03 -0.23490140517E+02  0.57069735926E+02  0.17094604193E+03  0.79913010652E+02 0.  0.
          5    1    5    5  501    0  0.76872114530E+01  0.82486418178E+01 -0.43637553231E+02  0.45315111870E+02  0.47000000000E+01 0. -1.
        -11    1    6    6    0    0 -0.13290384418E+03 -0.38867933110E+02  0.33685970939E+02  0.14250927219E+03  0.00000000000E+00 0.  1.
         12    1    6    6    0    0 -0.50371523461E+01  0.15377792592E+02  0.23383764987E+02  0.28436769749E+02  0.00000000000E+00 0. -1.
         -5    1    3    3    0  503  0.13103598033E+02 -0.52250826135E+02 -0.14242317965E+03  0.15234272289E+03  0.47000000000E+01 0.  1.
         11    1    4    4    0    0  0.19317609386E+02  0.10451082645E+02 -0.11794769819E+03  0.11997522523E+03  0.00000000000E+00 0. -1.
        -12    1    4    4    0    0  0.97832577649E+02  0.57041242189E+02 -0.11692017854E+03  0.16277359955E+03  0.00000000000E+00 0.  1.
</event>
<event>
12    1  0.8526130E-002  0.2371475E+03  0.7818608E-02  0.1121939E+00
         21   -1    0    0  501  502  0.00000000000E+00  0.00000000000E+00  0.42846157302E+03  0.42846157302E+03  0.00000000000E+00 0.  1.
         21   -1    0    0  502  503 -0.00000000000E+00 -0.00000000000E+00 -0.68728035659E+03  0.68728035659E+03  0.00000000000E+00 0.  1.
         -6    2    1    2    0  503 -0.10306317548E+03  0.12137067569E+03 -0.63145780503E+03  0.67404204194E+03  0.17389898133E+03 0.  0.
        -24    2    3    3    0    0 -0.69093852881E+00  0.20540060770E+02 -0.33600501908E+03  0.34546735252E+03  0.77626975425E+02 0.  0.
          6    2    1    2  501    0  0.10306317548E+03 -0.12137067569E+03  0.37263902146E+03  0.44169988767E+03  0.17574439221E+03 0.  0.
         24    2    5    5    0    0  0.14226641250E+03 -0.92756601465E+02  0.31086030741E+03  0.36299564035E+03  0.79298076577E+02 0.  0.
          5    1    5    5  501    0 -0.39203237014E+02 -0.28614074229E+02  0.61778714048E+02  0.78704247317E+02  0.47000000000E+01 0. -1.
        -11    1    6    6    0    0  0.57454881806E+02 -0.33244007334E+02  0.20237365518E+03  0.21298197993E+03  0.00000000000E+00 0.  1.
         12    1    6    6    0    0  0.84811530691E+02 -0.59512594130E+02  0.10848665224E+03  0.15001366042E+03  0.00000000000E+00 0. -1.
         -5    1    3    3    0  503 -0.10237223696E+03  0.10083061492E+03 -0.29545278595E+03  0.32857468942E+03  0.47000000000E+01 0.  1.
         13    1    4    4    0    0 -0.17434579943E+02 -0.15313560726E+02 -0.24669079617E+03  0.24777977851E+03  0.00000000000E+00 0. -1.
        -14    1    4    4    0    0  0.16743641414E+02  0.35853621496E+02 -0.89314222908E+02  0.97687574009E+02  0.00000000000E+00 0.  1.
</event>
<event>
12    1  0.8526130E-002  0.1907398E+03  0.7818608E-02  0.1159085E+00
         21   -1    0    0  503  502  0.00000000000E+00  0.00000000000E+00  0.75208752379E+03  0.75208752379E+03  0.00000000000E+00 0.  1.
         21   -1    0    0  501  503 -0.00000000000E+00 -0.00000000000E+00 -0.37261248813E+03  0.37261248813E+03  0.00000000000E+00 0.  1.
          6    2    1    2  501    0  0.27685743517E+02 -0.58793708619E+02 -0.33562378081E+03  0.38603754742E+03  0.17932781492E+03 0.  0.
         24    2    3    3    0    0 -0.42362346561E+02 -0.45966893861E+02 -0.27179889598E+03  0.29029326287E+03  0.80548214587E+02 0.  0.
         -6    2    1    2    0  502 -0.27685743517E+02  0.58793708619E+02  0.71509881647E+03  0.73866246450E+03  0.17329950542E+03 0.  0.
        -24    2    5    5    0    0  0.25465293929E+02 -0.24339546245E+02  0.36537431695E+03  0.37525431047E+03  0.77951980982E+02 0.  0.
          5    1    3    3  501    0  0.70048090078E+02 -0.12826814758E+02 -0.63824884831E+02  0.95744284551E+02  0.47000000000E+01 0. -1.
        -13    1    4    4    0    0 -0.69143767552E-01 -0.56799562936E+02 -0.17775983701E+03  0.18661391906E+03  0.00000000000E+00 0.  1.
         14    1    4    4    0    0 -0.42293202793E+02  0.10832669075E+02 -0.94039058967E+02  0.10367934381E+03  0.00000000000E+00 0. -1.
         -5    1    5    5    0  502 -0.53151037447E+02  0.83133254863E+02  0.34972449952E+03  0.36340815402E+03  0.47000000000E+01 0.  1.
         11    1    6    6    0    0 -0.22262957809E+01  0.14634588816E+02  0.24902958963E+03  0.24946916461E+03  0.00000000000E+00 0. -1.
        -12    1    6    6    0    0  0.27691589710E+02 -0.38974135061E+02  0.11634472732E+03  0.12578514586E+03  0.00000000000E+00 0.  1.
</event>
<event>
12    1  0.8526130E-002  0.1867193E+03  0.7818608E-02  0.1162435E+00
         21   -1    0    0  503  502  0.00000000000E+00  0.00000000000E+00  0.17195132494E+03  0.17195132494E+03  0.00000000000E+00 0.  1.
         21   -1    0    0  501  503 -0.00000000000E+00 -0.00000000000E+00 -0.20388169209E+03  0.20388169209E+03  0.00000000000E+00 0.  1.
          6    2    1    2  501    0 -0.53207907869E+02 -0.33744460519E+02  0.15527496809E+02  0.18317700358E+03  0.17129781495E+03 0.  0.
         24    2    3    3    0    0  0.37402618963E+02 -0.22833121264E+02  0.20374732931E+02  0.91662465959E+02  0.77888192891E+02 0.  0.
         -6    2    1    2    0  502  0.53207907869E+02  0.33744460519E+02 -0.47457863965E+02  0.19265601346E+03  0.17576780306E+03 0.  0.
        -24    2    5    5    0    0  0.10080335169E+01 -0.43995050935E+02 -0.31595794426E+02  0.97566824934E+02  0.81144380359E+02 0.  0.
          5    1    3    3  501    0 -0.90610526833E+02 -0.10911339255E+02 -0.48472361225E+01  0.91514537617E+02  0.47000000000E+01 0. -1.
        -13    1    4    4    0    0  0.29198600251E+02 -0.49427949057E+02  0.40782901343E+00  0.57409465501E+02  0.00000000000E+00 0.  1.
         14    1    4    4    0    0  0.82040187120E+01  0.26594827793E+02  0.19966903918E+02  0.34253000459E+02  0.00000000000E+00 0. -1.
         -5    1    5    5    0  502  0.52199874352E+02  0.77739511454E+02 -0.15862069539E+02  0.95089188521E+02  0.47000000000E+01 0.  1.
         11    1    6    6    0    0  0.61734370147E+01 -0.35636486489E+02  0.22494087690E+02  0.42591718384E+02  0.00000000000E+00 0. -1.
        -12    1    6    6    0    0 -0.51654034978E+01 -0.83585644459E+01 -0.54089882116E+02  0.54975106550E+02  0.00000000000E+00 0.  1.
</event>
<event>
12    1  0.8526130E-002  0.1761226E+03  0.7818608E-02  0.1172019E+00
         21   -1    0    0  501  502  0.00000000000E+00  0.00000000000E+00  0.57955727152E+03  0.57955727152E+03  0.00000000000E+00 0. -1.
         21   -1    0    0  502  503 -0.00000000000E+00 -0.00000000000E+00 -0.78986093479E+02  0.78986093479E+02  0.00000000000E+00 0. -1.
         -6    2    1    2    0  503  0.41203928125E+02 -0.34413250500E+01  0.62299754773E+02  0.18681656187E+03  0.17120035611E+03 0.  0.
        -24    2    3    3    0    0  0.82103996922E+00 -0.42946881618E+02 -0.14813388121E+02  0.91108707109E+02  0.78969939193E+02 0.  0.
          6    2    1    2  501    0 -0.41203928125E+02  0.34413250500E+01  0.43827142327E+03  0.47172680313E+03  0.16951321461E+03 0.  0.
         24    2    5    5    0    0 -0.73200230192E+02 -0.40758313101E+02  0.25032271622E+03  0.27596118347E+03  0.80458677230E+02 0.  0.
          5    1    5    5  501    0  0.31996302068E+02  0.44199638151E+02  0.18794870705E+03  0.19576561965E+03  0.47000000000E+01 0. -1.
        -11    1    6    6    0    0  0.12121531194E+02 -0.55134346589E+01  0.56737919951E+01  0.14474853914E+02  0.00000000000E+00 0.  1.
         12    1    6    6    0    0 -0.85321761386E+02 -0.35244878442E+02  0.24464892422E+03  0.26148632956E+03  0.00000000000E+00 0. -1.
         -5    1    3    3    0  503  0.40382888156E+02  0.39505556568E+02  0.77113142894E+02  0.95707854759E+02  0.47000000000E+01 0.  1.
         13    1    4    4    0    0  0.32637408348E+02 -0.71488253548E+01 -0.25508556716E+02  0.42035611015E+02  0.00000000000E+00 0. -1.
        -14    1    4    4    0    0 -0.31816368379E+02 -0.35798056263E+02  0.10695168595E+02  0.49073096095E+02  0.00000000000E+00 0.  1.
</event>
<event>
12    1  0.8526130E-002  0.2407455E+03  0.7818608E-02  0.1119614E+00
         21   -1    0    0  501  502  0.00000000000E+00  0.00000000000E+00  0.22991803805E+03  0.22991803805E+03  0.00000000000E+00 0.  1.
         21   -1    0    0  502  503 -0.00000000000E+00 -0.00000000000E+00 -0.28498826701E+03  0.28498826701E+03  0.00000000000E+00 0.  1.
         -6    2    1    2    0  503  0.28388311573E+02 -0.16515674470E+03  0.62453764505E+02  0.24871445930E+03  0.17284606738E+03 0.  0.
        -24    2    3    3    0    0 -0.18975347496E+02 -0.13811650798E+03  0.93070919618E+02  0.18599292560E+03  0.80591182559E+02 0.  0.
          6    2    1    2  501    0 -0.28388311573E+02  0.16515674470E+03 -0.11752399347E+03  0.26619184576E+03  0.17018684778E+03 0.  0.
         24    2    5    5    0    0  0.34448290931E+02  0.14762236036E+03 -0.93697256243E+02  0.19658080745E+03  0.82980672463E+02 0.  0.
          5    1    5    5  501    0 -0.62836602504E+02  0.17534384336E+02 -0.23826737227E+02  0.69611038315E+02  0.47000000000E+01 0. -1.
        -11    1    6    6    0    0  0.31123321733E+02  0.15039887303E+03 -0.10394601926E+03  0.18545419134E+03  0.00000000000E+00 0.  1.
         12    1    6    6    0    0  0.33249691985E+01 -0.27765126722E+01  0.10248763012E+02  0.11126616110E+02  0.00000000000E+00 0. -1.
         -5    1    3    3    0  503  0.47363659069E+02 -0.27040236718E+02 -0.30617155112E+02  0.62721533697E+02  0.47000000000E+01 0.  1.
         11    1    4    4    0    0  0.16237083288E+02 -0.13115750331E+01 -0.92234437991E+00  0.16316060245E+02  0.00000000000E+00 0. -1.
        -12    1    4    4    0    0 -0.35212430784E+02 -0.13680493295E+03  0.93993263997E+02  0.16967686536E+03  0.00000000000E+00 0.  1.
</event>
<event>
12    1  0.8526130E-002  0.1877028E+03  0.7818608E-02  0.1161122E+00
         21   -1    0    0  503  502  0.00000000000E+00  0.00000000000E+00  0.23503347913E+03  0.23503347913E+03  0.00000000000E+00 0.  1.
         21   -1    0    0  501  503 -0.00000000000E+00 -0.00000000000E+00 -0.22306983899E+03  0.22306983899E+03  0.00000000000E+00 0.  1.
          6    2    1    2  501    0 -0.14748303154E+01 -0.70820357142E+02 -0.12692707556E+03  0.22658957049E+03  0.17382362565E+03 0.  0.
         24    2    3    3    0    0  0.51307673817E+02 -0.86053528315E+02 -0.11184551144E+03  0.16942676945E+03  0.78474993785E+02 0.  0.
         -6    2    1    2    0  502  0.14748303154E+01  0.70820357142E+02  0.13889071570E+03  0.23151374763E+03  0.17114405138E+03 0.  0.
        -24    2    5    5    0    0 -0.67319012176E+02  0.47204648795E+02  0.93353437704E+02  0.14557174315E+03  0.75605157264E+02 0.  0.
          5    1    3    3  501    0 -0.52782504132E+02  0.15233171174E+02 -0.15081564127E+02  0.57162801042E+02  0.47000000000E+01 0. -1.
        -11    1    4    4    0    0  0.42620999219E+02 -0.76766559244E+02 -0.12393113268E+03  0.15188344163E+03  0.00000000000E+00 0.  1.
         12    1    4    4    0    0  0.86866745982E+01 -0.92869690712E+01  0.12085621247E+02  0.17543327821E+02  0.00000000000E+00 0. -1.
         -5    1    5    5    0  502  0.68793842491E+02  0.23615708346E+02  0.45537277997E+02  0.85942004473E+02  0.47000000000E+01 0.  1.
         13    1    6    6    0    0 -0.21483025413E+02 -0.13378381058E+01 -0.90314028514E+01  0.23342588313E+02  0.00000000000E+00 0. -1.
        -14    1    6    6    0    0 -0.45835986763E+02  0.48542486901E+02  0.10238484056E+03  0.12222915484E+03  0.00000000000E+00 0.  1.
</event>
<event>
12    1  0.8526130E-002  0.2220782E+03  0.7818608E-02  0.1132700E+00
         21   -1    0    0  503  502  0.00000000000E+00  0.00000000000E+00  0.11357623613E+03  0.11357623613E+03  0.00000000000E+00 0. -1.
         21   -1    0    0  501  503 -0.00000000000E+00 -0.00000000000E+00 -0.49437884217E+03  0.49437884217E+03  0.00000000000E+00 0. -1.
          6    2    1    2  501    0 -0.65876549690E+01  0.14098211380E+03 -0.29896823971E+03  0.37127896486E+03  0.16895771004E+03 0.  0.
         24    2    3    3    0    0 -0.61440928608E+02  0.12338260378E+03 -0.24561159690E+03  0.29261737504E+03  0.79382724924E+02 0.  0.
         -6    2    1    2    0  502  0.65876549690E+01 -0.14098211380E+03 -0.81834366341E+02  0.23667611344E+03  0.17146243189E+03 0.  0.
        -24    2    5    5    0    0 -0.53732040595E+02 -0.93958112816E+02 -0.85841228078E+02  0.15994367387E+03  0.80610193050E+02 0.  0.
          5    1    3    3  501    0  0.54853273639E+02  0.17599510015E+02 -0.53356642801E+02  0.78661589817E+02  0.47000000000E+01 0. -1.
        -11    1    4    4    0    0 -0.20457381500E+02  0.45619145562E+02 -0.26617278149E+02  0.56640007024E+02  0.00000000000E+00 0.  1.
         12    1    4    4    0    0 -0.40983547107E+02  0.77763458220E+02 -0.21899431876E+03  0.23597736801E+03  0.00000000000E+00 0. -1.
         -5    1    5    5    0  502  0.60319695564E+02 -0.47024000981E+02  0.40068617375E+01  0.76732439569E+02  0.47000000000E+01 0.  1.
         13    1    6    6    0    0 -0.16667921481E+01 -0.64598938185E+02 -0.13345341507E+02  0.65984082555E+02  0.00000000000E+00 0. -1.
        -14    1    6    6    0    0 -0.52065248447E+02 -0.29359174631E+02 -0.72495886571E+02  0.93959591318E+02  0.00000000000E+00 0.  1.
</event>
<event>
12    1  0.8526130E-002  0.2397229E+03  0.7818608E-02  0.1120289E+00
         21   -1    0    0  503  502  0.00000000000E+00  0.00000000000E+00  0.56588910179E+02  0.56588910179E+02  0.00000000000E+00 0. -1.
         21   -1    0    0  501  503 -0.00000000000E+00 -0.00000000000E+00 -0.10087678639E+04  0.10087678639E+04  0.00000000000E+00 0.  1.
          6    2    1    2  501    0  0.16104897688E+03  0.34436249998E+02 -0.45652569106E+03  0.51477596727E+03  0.17162739178E+03 0.  0.
         24    2    3    3    0    0  0.12248202845E+03 -0.19719941295E+02 -0.40460532565E+03  0.43028859004E+03  0.77795101356E+02 0.  0.
         -6    2    1    2    0  502 -0.16104897688E+03 -0.34436249998E+02 -0.49565326269E+03  0.55058080684E+03  0.17419655502E+03 0.  0.
        -24    2    5    5    0    0 -0.17038226748E+03 -0.66117548116E+02 -0.36620639237E+03  0.41690434220E+03  0.79375446404E+02 0.  0.
          5    1    3    3  501    0  0.38566948430E+02  0.54156191293E+02 -0.51920365408E+02  0.84487377227E+02  0.47000000000E+01 0. -1.
        -13    1    4    4    0    0  0.59742762283E+02 -0.48311334843E+02 -0.19285893884E+03  0.20759998316E+03  0.00000000000E+00 0.  1.
         14    1    4    4    0    0  0.62739266164E+02  0.28591393548E+02 -0.21174638682E+03  0.22268860688E+03  0.00000000000E+00 0. -1.
         -5    1    5    5    0  502  0.93332906005E+01  0.31681298118E+02 -0.12944687031E+03  0.13367646463E+03  0.47000000000E+01 0.  1.
         11    1    6    6    0    0 -0.22631215675E+02 -0.15498025253E+02 -0.13586534333E+03  0.13860646532E+03  0.00000000000E+00 0. -1.
        -12    1    6    6    0    0 -0.14775105180E+03 -0.50619522863E+02 -0.23034104904E+03  0.27829787688E+03  0.00000000000E+00 0.  1.
</event>
<event>
12    1  0.8526130E-002  0.1968531E+03  0.7818608E-02  0.1152454E+00
         21   -1    0    0  501  502  0.00000000000E+00  0.00000000000E+00  0.47355760002E+03  0.47355760002E+03  0.00000000000E+00 0. -1.
         21   -1    0    0  502  503 -0.00000000000E+00 -0.00000000000E+00 -0.17250795287E+03  0.17250795287E+03  0.00000000000E+00 0. -1.
         -6    2    1    2    0  503  0.93909398893E+02 -0.29455024737E+02 -0.83785968226E+02  0.21380451844E+03  0.17031062783E+03 0.  0.
        -24    2    3    3    0    0  0.13019435874E+02 -0.56825246167E+02 -0.83431922202E+02  0.12827949001E+03  0.78077702346E+02 0.  0.
          6    2    1    2  501    0 -0.93909398893E+02  0.29455024737E+02  0.38483561537E+03  0.43226103445E+03  0.17048336389E+03 0.  0.
         24    2    5    5    0    0 -0.26557668640E+02 -0.12208924454E+02  0.31910033048E+03  0.32923017544E+03  0.75585183092E+02 0.  0.
          5    1    5    5  501    0 -0.67351730253E+02  0.41663949191E+02  0.65735284891E+02  0.10303085902E+03  0.47000000000E+01 0. -1.
        -13    1    6    6    0    0 -0.60382897726E+00  0.41438187444E+01 -0.33260875605E+01  0.53477753955E+01  0.00000000000E+00 0.  1.
         14    1    6    6    0    0 -0.25953839663E+02 -0.16352743198E+02  0.32242641804E+03  0.32388240004E+03  0.00000000000E+00 0. -1.
         -5    1    3    3    0  503  0.80889963019E+02  0.27370221430E+02 -0.35404602319E+00  0.85525028424E+02  0.47000000000E+01 0.  1.
         13    1    4    4    0    0 -0.24920059050E+01 -0.18562883285E+02 -0.84924765394E+02  0.86965547814E+02  0.00000000000E+00 0. -1.
        -14    1    4    4    0    0  0.15511441779E+02 -0.38262362882E+02  0.14928431920E+01  0.41313942201E+02  0.00000000000E+00 0.  1.
</event>
<event>
12    1  0.8526130E-002  0.1765674E+03  0.7818608E-02  0.1171483E+00
         21   -1    0    0  501  502  0.00000000000E+00  0.00000000000E+00  0.46083959079E+03  0.46083959079E+03  0.00000000000E+00 0.  1.
         21   -1    0    0  502  503 -0.00000000000E+00 -0.00000000000E+00 -0.75001144628E+02  0.75001144628E+02  0.00000000000E+00 0.  1.
         -6    2    1    2    0  503 -0.16026511494E+01  0.33806480918E+02  0.10694184664E+03  0.20642820485E+03  0.17329338866E+03 0.  0.
        -24    2    3    3    0    0  0.10549580527E+02 -0.36368885151E+02  0.10408550050E+03  0.13499636706E+03  0.77176669065E+02 0.  0.
          6    2    1    2  501    0  0.16026511494E+01 -0.33806480918E+02  0.27889659952E+03  0.32941253056E+03  0.17199957971E+03 0.  0.
         24    2    5    5    0    0  0.46843128948E+02  0.27743589105E+00  0.77911497310E+02  0.12054531071E+03  0.79161953114E+02 0.  0.
          5    1    5    5  501    0 -0.45240477798E+02 -0.34083916809E+02  0.20098510221E+03  0.20886721985E+03  0.47000000000E+01 0. -1.
        -13    1    6    6    0    0  0.61480859997E+02 -0.21986261995E+02  0.57027237365E+02  0.86691393252E+02  0.00000000000E+00 0.  1.
         14    1    6    6    0    0 -0.14637731049E+02  0.22263697886E+02  0.20884259945E+02  0.33853917458E+02  0.00000000000E+00 0. -1.
         -5    1    3    3    0  503 -0.12152231677E+02  0.70175366069E+02  0.28563461341E+01  0.71431837796E+02  0.47000000000E+01 0.  1.
         11    1    4    4    0    0  0.40952172861E+01 -0.50343577197E+01  0.10277237126E+03  0.10297706472E+03  0.00000000000E+00 0. -1.
        -12    1    4    4    0    0  0.64543632411E+01 -0.31334527431E+02  0.13131292385E+01  0.32019302344E+02  0.00000000000E+00 0.  1.
</event>
<event>
12    1  0.8526130E-002  0.1985690E+03  0.7818608E-02  0.1151105E+00
         21   -1    0    0  501  502  0.00000000000E+00  0.00000000000E+00  0.28254307218E+03  0.28254307218E+03  0.00000000000E+00 0. -1.
         21   -1    0    0  502  503 -0.00000000000E+00 -0.00000000000E+00 -0.15797644973E+03  0.15797644973E+03  0.00000000000E+00 0. -1.
         -6    2    1    2    0  503  0.49401990598E+02  0.83697227604E+02 -0.13855525893E+02  0.19905176841E+03  0.17315844861E+03 0.  0.
        -24    2    3    3    0    0  0.50799852042E+01  0.10815685501E+03  0.23532541533E+02  0.13594336072E+03  0.78759794800E+02 0.  0.
          6    2    1    2  501    0 -0.49401990598E+02 -0.83697227604E+02  0.13842214835E+03  0.24146775350E+03  0.17233746617E+03 0.  0.
         24    2    5    5    0    0  0.21613827372E+02 -0.98842374027E+01  0.12970526353E+02  0.79443670769E+02  0.74687392434E+02 0.  0.
          5    1    5    5  501    0 -0.71015817971E+02 -0.73812990202E+02  0.12545162200E+03  0.16202408273E+03  0.47000000000E+01 0. -1.
        -11    1    6    6    0    0  0.29772474979E+02 -0.16892318991E+02 -0.23433895328E+02  0.41483709544E+02  0.00000000000E+00 0.  1.
         12    1    6    6    0    0 -0.81586476071E+01  0.70080815880E+01  0.36404421681E+02  0.37959961225E+02  0.00000000000E+00 0. -1.
         -5    1    3    3    0  503  0.44322005394E+02 -0.24459627407E+02 -0.37388067425E+02  0.63108407688E+02  0.47000000000E+01 0.  1.
         11    1    4    4    0    0  0.41442227831E+02  0.63139471085E+02  0.75105123367E+01  0.75897686737E+02  0.00000000000E+00 0. -1.
        -12    1    4    4    0    0 -0.36362242627E+02  0.45017383927E+02  0.16022029196E+02  0.60045673983E+02  0.00000000000E+00 0.  1.
</event>
<event>
12    1  0.8526130E-002  0.2173893E+03  0.7818608E-02  0.1136029E+00
         21   -1    0    0  501  502  0.00000000000E+00  0.00000000000E+00  0.10503363184E+04  0.10503363184E+04  0.00000000000E+00 0.  1.
         21   -1    0    0  502  503 -0.00000000000E+00 -0.00000000000E+00 -0.46239413172E+02  0.46239413172E+02  0.00000000000E+00 0.  1.
         -6    2    1    2    0  503  0.52780986033E+02  0.12174971655E+03  0.59794890201E+03  0.63590849259E+03  0.17096167868E+03 0.  0.
        -24    2    3    3    0    0  0.15772697184E+02 -0.46355334175E+01  0.28917252714E+03  0.30018869198E+03  0.78881139635E+02 0.  0.
          6    2    1    2  501    0 -0.52780986033E+02 -0.12174971655E+03  0.40614800320E+03  0.46066723896E+03  0.17218965874E+03 0.  0.
         24    2    5    5    0    0  0.38775875142E+02 -0.53875166219E+02  0.18673028321E+03  0.21337017213E+03  0.79072938876E+02 0.  0.
          5    1    5    5  501    0 -0.91556861175E+02 -0.67874550331E+02  0.21941772000E+03  0.24729706682E+03  0.47000000000E+01 0. -1.
        -11    1    6    6    0    0  0.28752452524E+02 -0.74463903139E+02  0.15350154796E+03  0.17301532193E+03  0.00000000000E+00 0.  1.
         12    1    6    6    0    0  0.10023422617E+02  0.20588736920E+02  0.33228735250E+02  0.40354850207E+02  0.00000000000E+00 0. -1.
         -5    1    3    3    0  503  0.37008288849E+02  0.12638524997E+03  0.30877637486E+03  0.33571980062E+03  0.47000000000E+01 0.  1.
         11    1    4    4    0    0  0.80806596998E+01 -0.33687656898E+01  0.29182337613E+03  0.29195466857E+03  0.00000000000E+00 0. -1.
        -12    1    4    4    0    0  0.76920374839E+01 -0.12667677277E+01 -0.26508489868E+01  0.82340234079E+01  0.00000000000E+00 0.  1.
</event>
<event>
12    1  0.8526130E-002  0.1875157E+03  0.7818608E-02  0.1161384E+00
         21   -1    0    0  503  502  0.00000000000E+00  0.00000000000E+00  0.16296360170E+03  0.16296360170E+03  0.00000000000E+00 0. -1.
         21   -1    0    0  501  503 -0.00000000000E+00 -0.00000000000E+00 -0.21249276078E+03  0.21249276078E+03  0.00000000000E+00 0. -1.
          6    2    1    2  501    0 -0.60146332419E+02 -0.28822103297E+02 -0.23288789450E+02  0.18611358846E+03  0.17218479942E+03 0.  0.
         24    2    3    3    0    0 -0.92904874924E+02  0.21902062452E+02 -0.17964114021E+02  0.12531469648E+03  0.79183632373E+02 0.  0.
         -6    2    1    2    0  502  0.60146332419E+02  0.28822103297E+02 -0.26240369633E+02  0.18934277402E+03  0.17525362802E+03 0.  0.
        -24    2    5    5    0    0 -0.52143646460E+01 -0.37716359294E+02 -0.11371257810E+02  0.94777620763E+02  0.86045212163E+02 0.  0.
          5    1    3    3  501    0  0.32758542505E+02 -0.50724165749E+02 -0.53246754284E+01  0.60798891983E+02  0.47000000000E+01 0. -1.
        -11    1    4    4    0    0 -0.24261539525E+02 -0.69525717197E+01 -0.40321984063E+02  0.47569138656E+02  0.00000000000E+00 0.  1.
         12    1    4    4    0    0 -0.68643335399E+02  0.28854634172E+02  0.22357870042E+02  0.77745557819E+02  0.00000000000E+00 0. -1.
         -5    1    5    5    0  502  0.65360697065E+02  0.66538462591E+02 -0.14869111822E+02  0.94565153260E+02  0.47000000000E+01 0.  1.
         13    1    6    6    0    0 -0.31708453421E+02  0.13249815395E+02  0.57409972704E+01  0.34841680155E+02  0.00000000000E+00 0. -1.
        -14    1    6    6    0    0  0.26494088775E+02 -0.50966174690E+02 -0.17112255081E+02  0.59935940607E+02  0.00000000000E+00 0.  1.
</event>
<event>
12    1  0.8526130E-002  0.1970235E+03  0.7818608E-02  0.1153170E+00
         21   -1    0    0  503  502  0.00000000000E+00  0.00000000000E+00  0.31724081913E+03  0.31724081913E+03  0.00000000000E+00 0.  1.
         21   -1    0    0  501  503 -0.00000000000E+00 -0.00000000000E+00 -0.48073167388E+03  0.48073167388E+03  0.00000000000E+00 0.  1.
          6    2    1    2  501    0  0.87668984690E+02  0.37772084013E+02 -0.42723156569E+03  0.46876523092E+03  0.16763487044E+03 0.  0.
         24    2    3    3    0    0  0.10517642447E+03  0.27584320575E+02 -0.20647381434E+03  0.24703030865E+03  0.81052836945E+02 0.  0.
         -6    2    1    2    0  502 -0.87668984690E+02 -0.37772084013E+02  0.26374071094E+03  0.32920726208E+03  0.17235335098E+03 0.  0.
        -24    2    5    5    0    0 -0.51640692139E+01 -0.72106987349E+02  0.14148488857E+03  0.17769976138E+03  0.79581067265E+02 0.  0.
          5    1    3    3  501    0 -0.17507439785E+02  0.10187763438E+02 -0.22075775136E+03  0.22173492227E+03  0.47000000000E+01 0. -1.
        -11    1    4    4    0    0  0.75571189421E+02  0.53058002829E+02 -0.11439915563E+03  0.14701470384E+03  0.00000000000E+00 0.  1.
         12    1    4    4    0    0  0.29605235053E+02 -0.25473682254E+02 -0.92074658705E+02  0.10001560481E+03  0.00000000000E+00 0. -1.
         -5    1    5    5    0  502 -0.82504915476E+02  0.34334903336E+02  0.12225582237E+03  0.15150750070E+03  0.47000000000E+01 0.  1.
         11    1    6    6    0    0  0.16224221916E+02 -0.43097398603E+02  0.13289643427E+03  0.14064875891E+03  0.00000000000E+00 0. -1.
        -12    1    6    6    0    0 -0.21388291130E+02 -0.29009588746E+02  0.85884543010E+01  0.37051002469E+02  0.00000000000E+00 0.  1.
</event>
<event>
12    1  0.8526130E-002  0.1856197E+03  0.7818608E-02  0.1162653E+00
         21   -1    0    0  501  502  0.00000000000E+00  0.00000000000E+00  0.32570859013E+02  0.32570859013E+02  0.00000000000E+00 0.  1.
         21   -1    0    0  502  503 -0.00000000000E+00 -0.00000000000E+00 -0.16285722989E+04  0.16285722989E+04  0.00000000000E+00 0.  1.
         -6    2    1    2    0  503 -0.68882660951E+02  0.24158928076E+02 -0.12926645530E+04  0.13059235522E+04  0.17066400601E+03 0.  0.
        -24    2    3    3    0    0 -0.12224069607E+01  0.41716090698E+02 -0.10129223055E+04  0.10175418972E+04  0.87396733839E+02 0.  0.
          6    2    1    2  501    0  0.68882660951E+02 -0.24158928076E+02 -0.30333688685E+03  0.35521960563E+03  0.16982116038E+03 0.  0.
         24    2    5    5    0    0  0.39755706641E+02  0.38508695556E+02 -0.11322145167E+03  0.15287934959E+03  0.86542258866E+02 0.  0.
          5    1    5    5  501    0  0.29126954311E+02 -0.62667623632E+02 -0.19011543518E+03  0.20234025604E+03  0.47000000000E+01 0. -1.
        -11    1    6    6    0    0 -0.26909125034E+02  0.17580916442E+02 -0.44319311076E+02  0.54748433469E+02  0.00000000000E+00 0.  1.
         12    1    6    6    0    0  0.66664831675E+02  0.20927779114E+02 -0.68902140590E+02  0.98130916121E+02  0.00000000000E+00 0. -1.
         -5    1    3    3    0  503 -0.67660253991E+02 -0.17557162622E+02 -0.27974224755E+03  0.28838165509E+03  0.47000000000E+01 0.  1.
         13    1    4    4    0    0 -0.13475645788E+02  0.53103796410E+02 -0.33793108879E+03  0.34234343428E+03  0.00000000000E+00 0. -1.
        -14    1    4    4    0    0  0.12253238827E+02 -0.11387705712E+02 -0.67499121666E+03  0.67519846288E+03  0.00000000000E+00 0.  1.
</event>
<event>
12    1  0.8526130E-002  0.1877503E+03  0.7818608E-02  0.1160890E+00
         21   -1    0    0  501  502  0.00000000000E+00  0.00000000000E+00  0.86500233625E+02  0.86500233625E+02  0.00000000000E+00 0.  1.
         21   -1    0    0  502  503 -0.00000000000E+00 -0.00000000000E+00 -0.40570210991E+03  0.40570210991E+03  0.00000000000E+00 0.  1.
         -6    2    1    2    0  503 -0.71999347965E+02  0.96787809140E+00 -0.17526827513E+03  0.25562880328E+03  0.17158751093E+03 0.  0.
        -24    2    3    3    0    0 -0.58985450704E+02  0.47164647618E+02 -0.17873761214E+03  0.20727976673E+03  0.72897052905E+02 0.  0.
          6    2    1    2  501    0  0.71999347965E+02 -0.96787809140E+00 -0.14393360116E+03  0.23657354026E+03  0.17339352788E+03 0.  0.
         24    2    5    5    0    0  0.73796139292E+02  0.27355505533E+02 -0.16623568424E+03  0.20017415251E+03  0.79001232651E+02 0.  0.
          5    1    5    5  501    0 -0.17967913270E+01 -0.28323383624E+02  0.22302083078E+02  0.36399387750E+02  0.47000000000E+01 0. -1.
        -11    1    6    6    0    0  0.26747871626E+01  0.39277237076E+02 -0.61018445436E+02  0.72616158822E+02  0.00000000000E+00 0.  1.
         12    1    6    6    0    0  0.71121352130E+02 -0.11921731543E+02 -0.10521723880E+03  0.12755799369E+03  0.00000000000E+00 0. -1.
         -5    1    3    3    0  503 -0.13013897261E+02 -0.46196769527E+02  0.34693370073E+01  0.48349036556E+02  0.47000000000E+01 0.  1.
         13    1    4    4    0    0 -0.36995106019E+02  0.66025386252E+02 -0.12187935553E+03  0.14346625668E+03  0.00000000000E+00 0. -1.
        -14    1    4    4    0    0 -0.21990344685E+02 -0.18860738633E+02 -0.56858256602E+02  0.63813510051E+02  0.00000000000E+00 0.  1.
</event>
<event>
12    1  0.8526130E-002  0.3304683E+03  0.7818608E-02  0.1070972E+00
         21   -1    0    0  503  502  0.00000000000E+00  0.00000000000E+00  0.13433328119E+04  0.13433328119E+04  0.00000000000E+00 0. -1.
         21   -1    0    0  501  503 -0.00000000000E+00 -0.00000000000E+00 -0.27769078934E+03  0.27769078934E+03  0.00000000000E+00 0.  1.
          6    2    1    2  501    0 -0.11717823342E+03 -0.25806800185E+03 -0.14905352589E+03  0.36217706820E+03  0.16919055287E+03 0.  0.
         24    2    3    3    0    0 -0.12880461359E+03 -0.16894419609E+03 -0.14756966943E+03  0.27216308430E+03  0.84635496354E+02 0.  0.
         -6    2    1    2    0  502  0.11717823342E+03  0.25806800185E+03  0.12146955484E+04  0.12588465330E+04  0.16993965503E+03 0.  0.
        -24    2    5    5    0    0  0.12529527927E+03  0.23738280389E+03  0.11991417183E+04  0.12313188110E+04  0.78457957683E+02 0.  0.
          5    1    3    3  501    0  0.11626380166E+02 -0.89123805759E+02 -0.14838564677E+01  0.90013983906E+02  0.47000000000E+01 0. -1.
        -13    1    4    4    0    0 -0.10374234488E+03 -0.11453302948E+03 -0.14545469142E+03  0.21222006555E+03  0.00000000000E+00 0.  1.
         14    1    4    4    0    0 -0.25062268711E+02 -0.54411166610E+02 -0.21149780026E+01  0.59943018749E+02  0.00000000000E+00 0. -1.
         -5    1    5    5    0  502 -0.81170458413E+01  0.20685197965E+02  0.15553830095E+02  0.27527722003E+02  0.47000000000E+01 0.  1.
         11    1    6    6    0    0 -0.85885415067E+00  0.64561270326E+02  0.23406278862E+03  0.24280503346E+03  0.00000000000E+00 0. -1.
        -12    1    6    6    0    0  0.12615413342E+03  0.17282153356E+03  0.96507892973E+03  0.98851377757E+03  0.00000000000E+00 0.  1.
</event>
<event>
12    1  0.8526130E-002  0.1845127E+03  0.7818608E-02  0.1163770E+00
         21   -1    0    0  503  502  0.00000000000E+00  0.00000000000E+00  0.15887391291E+03  0.15887391291E+03  0.00000000000E+00 0. -1.
         21   -1    0    0  501  503 -0.00000000000E+00 -0.00000000000E+00 -0.46971400915E+03  0.46971400915E+03  0.00000000000E+00 0. -1.
          6    2    1    2  501    0  0.51264012880E+02 -0.39942596191E+02 -0.38756117907E+03  0.42876037979E+03  0.17148873358E+03 0.  0.
         24    2    3    3    0    0  0.92809076311E+02 -0.44584534199E+01 -0.21148853483E+03  0.24434567665E+03  0.79649274197E+02 0.  0.
         -6    2    1    2    0  502 -0.51264012880E+02  0.39942596191E+02  0.76721082841E+02  0.19982754227E+03  0.17268906187E+03 0.  0.
        -24    2    5    5    0    0 -0.67902912456E+02  0.80189263581E+02  0.29573551953E+02  0.13547206943E+03  0.80230686822E+02 0.  0.
          5    1    3    3  501    0 -0.41545063430E+02 -0.35484142771E+02 -0.17607264424E+03  0.18441470314E+03  0.47000000000E+01 0. -1.
        -11    1    4    4    0    0  0.45499184321E+02  0.35830889539E+02 -0.78461422313E+02  0.97520373309E+02  0.00000000000E+00 0.  1.
         12    1    4    4    0    0  0.47309891989E+02 -0.40289342959E+02 -0.13302711252E+03  0.14682530334E+03  0.00000000000E+00 0. -1.
         -5    1    5    5    0  502  0.16638899575E+02 -0.40246667390E+02  0.47147530888E+02  0.64355472836E+02  0.47000000000E+01 0.  1.
         13    1    6    6    0    0 -0.85495103906E+02  0.56935877425E+02  0.26955192342E+02  0.10619646569E+03  0.00000000000E+00 0. -1.
        -14    1    6    6    0    0  0.17592191450E+02  0.23253386156E+02  0.26183596116E+01  0.29275603748E+02  0.00000000000E+00 0.  1.
</event>
<event>
12    1  0.8526130E-002  0.2242409E+03  0.7818608E-02  0.1132306E+00
         21   -1    0    0  503  502  0.00000000000E+00  0.00000000000E+00  0.59026273359E+02  0.59026273359E+02  0.00000000000E+00 0.  1.
         21   -1    0    0  501  503 -0.00000000000E+00 -0.00000000000E+00 -0.83855542726E+03  0.83855542726E+03  0.00000000000E+00 0.  1.
          6    2    1    2  501    0  0.10202017562E+03  0.10075275228E+03 -0.46274361541E+03  0.51421360388E+03  0.17240865259E+03 0.  0.
         24    2    3    3    0    0  0.90687643410E+02 -0.20811550958E+01 -0.23554072668E+03  0.26452082978E+03  0.79140732787E+02 0.  0.
         -6    2    1    2    0  502 -0.10202017562E+03 -0.10075275228E+03 -0.31678553849E+03  0.38336809674E+03  0.16142734241E+03 0.  0.
        -24    2    5    5    0    0 -0.94327580646E+02 -0.12330521678E+03 -0.20719351552E+03  0.27111707817E+03  0.80457741984E+02 0.  0.
          5    1    3    3  501    0  0.11332532206E+02  0.10283390738E+03 -0.22720288873E+03  0.24969277410E+03  0.47000000000E+01 0. -1.
        -13    1    4    4    0    0  0.83476627140E+02  0.25217918633E+02 -0.14038323880E+03  0.16526265287E+03  0.00000000000E+00 0.  1.
         14    1    4    4    0    0  0.72110162700E+01 -0.27299073728E+02 -0.95157487885E+02  0.99258176906E+02  0.00000000000E+00 0. -1.
         -5    1    5    5    0  502 -0.76925949702E+01  0.22552464495E+02 -0.10959202297E+03  0.11225101857E+03  0.47000000000E+01 0.  1.
         11    1    6    6    0    0 -0.51083480082E+00  0.15056237536E+01  0.63688052315E+01  0.65642619660E+01  0.00000000000E+00 0. -1.
        -12    1    6    6    0    0 -0.93816745845E+02 -0.12481084053E+03 -0.21356232075E+03  0.26455281620E+03  0.00000000000E+00 0.  1.
</event>
<event>
12    1  0.8526130E-002  0.1830358E+03  0.7818608E-02  0.1165106E+00
         21   -1    0    0  503  502  0.00000000000E+00  0.00000000000E+00  0.26127956157E+03  0.26127956157E+03  0.00000000000E+00 0. -1.
         21   -1    0    0  501  503 -0.00000000000E+00 -0.00000000000E+00 -0.19938876060E+03  0.19938876060E+03  0.00000000000E+00 0.  1.
          6    2    1    2  501    0  0.33161177689E+02  0.51290547136E+02 -0.10730490467E+03  0.21141082143E+03  0.17160946630E+03 0.  0.
         24    2    3    3    0    0 -0.96065972294E+01  0.81157190769E+02 -0.10787581087E+03  0.15903224846E+03  0.83518196547E+02 0.  0.
         -6    2    1    2    0  502 -0.33161177689E+02 -0.51290547136E+02  0.16919570563E+03  0.24925750073E+03  0.17254486644E+03 0.  0.
        -24    2    5    5    0    0 -0.71463085381E+02 -0.31367924901E+02  0.48611019078E+02  0.12109079819E+03  0.78797404434E+02 0.  0.
          5    1    3    3  501    0  0.42767774918E+02 -0.29866643633E+02  0.57090620376E+00  0.52378572978E+02  0.47000000000E+01 0. -1.
        -11    1    4    4    0    0  0.22309245867E+02  0.81730475708E+02 -0.74025054772E+02  0.11250458588E+03  0.00000000000E+00 0.  1.
         12    1    4    4    0    0 -0.31915843097E+02 -0.57328493856E+00 -0.33850756098E+02  0.46527662574E+02  0.00000000000E+00 0. -1.
         -5    1    5    5    0  502  0.38301907692E+02 -0.19922622236E+02  0.12058468655E+03  0.12816670254E+03  0.47000000000E+01 0.  1.
         11    1    6    6    0    0  0.17157759921E+02 -0.48194011952E+01  0.12558131929E+02  0.21801881362E+02  0.00000000000E+00 0. -1.
        -12    1    6    6    0    0 -0.88620845301E+02 -0.26548523705E+02  0.36052887149E+02  0.99288916827E+02  0.00000000000E+00 0.  1.
</event>
<event>
12    1  0.8526130E-002  0.2234432E+03  0.7818608E-02  0.1131517E+00
         21   -1    0    0  501  502  0.00000000000E+00  0.00000000000E+00  0.29160880198E+03  0.29160880198E+03  0.00000000000E+00 0.  1.
         21   -1    0    0  502  503 -0.00000000000E+00 -0.00000000000E+00 -0.27991211213E+03  0.27991211213E+03  0.00000000000E+00 0. -1.
         -6    2    1    2    0  503  0.10056972559E+03  0.10015217627E+03 -0.17282059056E+03  0.28247799115E+03  0.17257500063E+03 0.  0.
        -24    2    3    3    0    0  0.73931799003E+02  0.11476185940E+03 -0.64023181817E+02  0.16942053618E+03  0.77253834817E+02 0.  0.
          6    2    1    2  501    0 -0.10056972559E+03 -0.10015217627E+03  0.18451728041E+03  0.28904292296E+03  0.17133142276E+03 0.  0.
         24    2    5    5    0    0 -0.83701186801E+02 -0.17479854875E+01  0.13344519817E+03  0.17680041786E+03  0.80260966338E+02 0.  0.
          5    1    5    5  501    0 -0.16868538793E+02 -0.98404190786E+02  0.51072082238E+02  0.11224250509E+03  0.47000000000E+01 0. -1.
        -11    1    6    6    0    0 -0.63832267246E+02 -0.31217920358E+02  0.52351536029E+02  0.88259844877E+02  0.00000000000E+00 0.  1.
         12    1    6    6    0    0 -0.19868919555E+02  0.29469934871E+02  0.81093662141E+02  0.88540572987E+02  0.00000000000E+00 0. -1.
         -5    1    3    3    0  503  0.26637926590E+02 -0.14609683123E+02 -0.10879740874E+03  0.11305745496E+03  0.47000000000E+01 0.  1.
         11    1    4    4    0    0 -0.13503317493E+02  0.29768279327E+02 -0.25767087968E+02  0.41622504246E+02  0.00000000000E+00 0. -1.
        -12    1    4    4    0    0  0.87435116496E+02  0.84993580070E+02 -0.38256093849E+02  0.12779803194E+03  0.00000000000E+00 0.  1.
</event>
<event>
12    1  0.8526130E-002  0.1808291E+03  0.7818608E-02  0.1167010E+00
         21   -1    0    0  501  502  0.00000000000E+00  0.00000000000E+00  0.50164785488E+03  0.50164785488E+03  0.00000000000E+00 0.  1.
         21   -1    0    0  502  503 -0.00000000000E+00 -0.00000000000E+00 -0.29413259589E+03  0.29413259589E+03  0.00000000000E+00 0.  1.
         -6    2    1    2    0  503 -0.50445079745E+01 -0.56356842330E+02 -0.24729608095E+03  0.30633943788E+03  0.17171767181E+03 0.  0.
        -24    2    3    3    0    0 -0.45003677011E+02 -0.23272523568E+02 -0.23403452339E+03  0.25258754259E+03  0.80382630205E+02 0.  0.
          6    2    1    2  501    0  0.50445079745E+01  0.56356842330E+02  0.45481133994E+03  0.48944101290E+03  0.17174868102E+03 0.  0.
         24    2    5    5    0    0  0.21894153464E+02  0.40625681651E+02  0.11083152393E+03  0.14465762613E+03  0.80699455610E+02 0.  0.
          5    1    5    5  501    0 -0.16849645490E+02  0.15731160679E+02  0.34397981601E+03  0.34478338677E+03  0.47000000000E+01 0. -1.
        -13    1    6    6    0    0 -0.24422539251E+02  0.11643967328E+02  0.73933223656E+02  0.78728419004E+02  0.00000000000E+00 0.  1.
         14    1    6    6    0    0  0.46316692716E+02  0.28981714323E+02  0.36898300269E+02  0.65929207124E+02  0.00000000000E+00 0. -1.
         -5    1    3    3    0  503  0.39959169037E+02 -0.33084318762E+02 -0.13261557561E+02  0.53751895287E+02  0.47000000000E+01 0.  1.
         13    1    4    4    0    0 -0.34986554922E+02  0.20384701606E+02 -0.16788989832E+03  0.17270383042E+03  0.00000000000E+00 0. -1.
        -14    1    4    4    0    0 -0.10017122089E+02 -0.43657225174E+02 -0.66144625064E+02  0.79883712168E+02  0.00000000000E+00 0.  1.
</event>
<event>
12    1  0.8526130E-002  0.2100141E+03  0.7818608E-02  0.1141914E+00
         21   -1    0    0  501  502  0.00000000000E+00  0.00000000000E+00  0.89845585776E+03  0.89845585776E+03  0.00000000000E+00 0.  1.
         21   -1    0    0  502  503 -0.00000000000E+00 -0.00000000000E+00 -0.68681183477E+02  0.68681183477E+02  0.00000000000E+00 0.  1.
         -6    2    1    2    0  503  0.89480245494E+02 -0.76772577919E+02  0.15513641309E+03  0.26110002890E+03  0.17379636179E+03 0.  0.
        -24    2    3    3    0    0  0.10331177247E+03 -0.10338649522E+02  0.13885684395E+03  0.19115796465E+03  0.80498039292E+02 0.  0.
          6    2    1    2  501    0 -0.89480245494E+02  0.76772577919E+02  0.67463826119E+03  0.70603701234E+03  0.17161216820E+03 0.  0.
         24    2    5    5    0    0 -0.19111531749E+02  0.25236137925E+02  0.52965383213E+03  0.53677291339E+03  0.81177985675E+02 0.  0.
          5    1    5    5  501    0 -0.70368713745E+02  0.51536439994E+02  0.14498442906E+03  0.16926409894E+03  0.47000000000E+01 0. -1.
        -13    1    6    6    0    0 -0.27363076243E+02  0.34233762929E+02  0.13510779989E+03  0.14203804440E+03  0.00000000000E+00 0.  1.
         14    1    6    6    0    0  0.82515444933E+01 -0.89976250035E+01  0.39454603224E+03  0.39473486899E+03  0.00000000000E+00 0. -1.
         -5    1    3    3    0  503 -0.13831526979E+02 -0.66433928397E+02  0.16279569141E+02  0.69942064255E+02  0.47000000000E+01 0.  1.
         11    1    4    4    0    0  0.24648616757E+02 -0.40266301497E+02  0.49339108324E+02  0.68288190447E+02  0.00000000000E+00 0. -1.
        -12    1    4    4    0    0  0.78663155716E+02  0.29927651974E+02  0.89517735627E+02  0.12286977420E+03  0.00000000000E+00 0.  1.
</event>
<event>
12    1  0.8526130E-002  0.1808804E+03  0.7818608E-02  0.1167063E+00
         21   -1    0    0  503  502  0.00000000000E+00  0.00000000000E+00  0.45662717503E+02  0.45662717503E+02  0.00000000000E+00 0. -1.
         21   -1    0    0  501  503 -0.00000000000E+00 -0.00000000000E+00 -0.71674024244E+03  0.71674024244E+03  0.00000000000E+00 0. -1.
          6    2    1    2  501    0 -0.29740818471E+02  0.48347174097E+02 -0.31567659073E+03  0.36382609913E+03  0.17174328210E+03 0.  0.
         24    2    3    3    0    0 -0.56036169314E+02  0.76664972715E+02 -0.15494304628E+03  0.19844561206E+03  0.79722914145E+02 0.  0.
         -6    2    1    2    0  502  0.29740818471E+02 -0.48347174097E+02 -0.35540093421E+03  0.39857686081E+03  0.17126507062E+03 0.  0.
        -24    2    5    5    0    0 -0.49781270607E+02 -0.35607732468E+02 -0.18555016591E+03  0.21054114741E+03  0.78438671384E+02 0.  0.
          5    1    3    3  501    0  0.26295350842E+02 -0.28317798619E+02 -0.16073354444E+03  0.16538048707E+03  0.47000000000E+01 0. -1.
        -13    1    4    4    0    0 -0.26815430599E+02 -0.79744649122E+01 -0.68473203554E+02  0.73967824179E+02  0.00000000000E+00 0.  1.
         14    1    4    4    0    0 -0.29220738714E+02  0.84639437627E+02 -0.86469842729E+02  0.12447778788E+03  0.00000000000E+00 0. -1.
         -5    1    5    5    0  502  0.79522089078E+02 -0.12739441629E+02 -0.16985076829E+03  0.18803571340E+03  0.47000000000E+01 0.  1.
         11    1    6    6    0    0 -0.96974963796E+01 -0.47841120893E+02 -0.14175579367E+03  0.14992504568E+03  0.00000000000E+00 0. -1.
        -12    1    6    6    0    0 -0.40083774227E+02  0.12233388425E+02 -0.43794372248E+02  0.60616101733E+02  0.00000000000E+00 0.  1.
</event>
<event>
12    1  0.8526130E-002  0.2320519E+03  0.7818608E-02  0.1125595E+00
         21   -1    0    0  501  502  0.00000000000E+00  0.00000000000E+00  0.34169498849E+03  0.34169498849E+03  0.00000000000E+00 0. -1.
         21   -1    0    0  502  503 -0.00000000000E+00 -0.00000000000E+00 -0.22727634227E+03  0.22727634227E+03  0.00000000000E+00 0.  1.
         -6    2    1    2    0  503 -0.14872016936E+03  0.47697027537E+02 -0.10182976646E+03  0.25341148591E+03  0.17162571090E+03 0.  0.
        -24    2    3    3    0    0 -0.15836559160E+03  0.23622872425E+02 -0.35424231236E+02  0.18196651252E+03  0.78862125353E+02 0.  0.
          6    2    1    2  501    0  0.14872016936E+03 -0.47697027537E+02  0.21624841269E+03  0.31555984485E+03  0.16858809116E+03 0.  0.
         24    2    5    5    0    0  0.13616846858E+03 -0.30607040811E+02  0.23640117853E+03  0.28593153390E+03  0.79954249956E+02 0.  0.
          5    1    5    5  501    0  0.12551700781E+02 -0.17089986726E+02 -0.20152765841E+02  0.29628310951E+02  0.47000000000E+01 0. -1.
        -13    1    6    6    0    0  0.43178096895E+02 -0.25899289396E+02  0.27849210966E+02  0.57538680851E+02  0.00000000000E+00 0.  1.
         14    1    6    6    0    0  0.92990371685E+02 -0.47077514160E+01  0.20855196756E+03  0.22839285305E+03  0.00000000000E+00 0. -1.
         -5    1    3    3    0  503  0.96454222362E+01  0.24074155112E+02 -0.66405535228E+02  0.71444973395E+02  0.47000000000E+01 0.  1.
         13    1    4    4    0    0 -0.24270314132E+01  0.18206611699E+02  0.79547007176E+01  0.20016204799E+02  0.00000000000E+00 0. -1.
        -14    1    4    4    0    0 -0.15593856018E+03  0.54162607261E+01 -0.43378931954E+02  0.16195030772E+03  0.00000000000E+00 0.  1.
</event>
<event>
12    1  0.8526130E-002  0.1941176E+03  0.7818608E-02  0.1154830E+00
         21   -1    0    0  503  502  0.00000000000E+00  0.00000000000E+00  0.56705145504E+03  0.56705145504E+03  0.00000000000E+00 0. -1.
         21   -1    0    0  501  503 -0.00000000000E+00 -0.00000000000E+00 -0.97080378059E+02  0.97080378059E+02  0.00000000000E+00 0. -1.
          6    2    1    2  501    0  0.28035723334E+02 -0.82283496753E+02  0.48259275913E+02  0.19988785575E+03  0.17340594438E+03 0.  0.
         24    2    3    3    0    0  0.56833374119E+02 -0.10111025521E+03  0.70921750902E+02  0.15842185405E+03  0.81328180634E+02 0.  0.
         -6    2    1    2    0  502 -0.28035723334E+02  0.82283496753E+02  0.42171180106E+03  0.46424397734E+03  0.17356569858E+03 0.  0.
        -24    2    5    5    0    0 -0.30220756073E+01 -0.19606015999E+02  0.12691962575E+03  0.15130361241E+03  0.79941621963E+02 0.  0.
          5    1    3    3  501    0 -0.28797650786E+02  0.18826758461E+02 -0.22662474988E+02  0.41466001706E+02  0.47000000000E+01 0. -1.
        -11    1    4    4    0    0 -0.18395844930E+02 -0.32141379649E+02  0.61416345853E+01  0.37539247087E+02  0.00000000000E+00 0.  1.
         12    1    4    4    0    0  0.75229219049E+02 -0.68968875565E+02  0.64780116316E+02  0.12088260696E+03  0.00000000000E+00 0. -1.
         -5    1    5    5    0  502 -0.25013647726E+02  0.10188951275E+03  0.29479217531E+03  0.31294036493E+03  0.47000000000E+01 0.  1.
         11    1    6    6    0    0 -0.14441699186E+02  0.16075193135E+02  0.10643177771E+03  0.10860339689E+03  0.00000000000E+00 0. -1.
        -12    1    6    6    0    0  0.11419623579E+02 -0.35681209134E+02  0.20487848047E+02  0.42700215521E+02  0.00000000000E+00 0.  1.
</event>
<event>
12    1  0.8526130E-002  0.2084681E+03  0.7818608E-02  0.1142830E+00
         21   -1    0    0  501  502  0.00000000000E+00  0.00000000000E+00  0.65424808053E+03  0.65424808053E+03  0.00000000000E+00 0. -1.
         21   -1    0    0  502  503 -0.00000000000E+00 -0.00000000000E+00 -0.77774332495E+02  0.77774332495E+02  0.00000000000E+00 0. -1.
         -6    2    1    2    0  503 -0.31532462089E+02 -0.11296892327E+03  0.14811303396E+03  0.25572726185E+03  0.17234467742E+03 0.  0.
        -24    2    3    3    0    0 -0.52456733010E+02 -0.54532639298E+02  0.15767663644E+03  0.19274967147E+03  0.81024666517E+02 0.  0.
          6    2    1    2  501    0  0.31532462089E+02  0.11296892327E+03  0.42836071407E+03  0.47629515117E+03  0.17206945073E+03 0.  0.
         24    2    5    5    0    0 -0.29552606069E+02  0.11809880900E+03  0.28254290492E+03  0.31804653428E+03  0.80637582034E+02 0.  0.
          5    1    5    5  501    0  0.61085068158E+02 -0.51298857291E+01  0.14581780916E+03  0.15824861689E+03  0.47000000000E+01 0. -1.
        -13    1    6    6    0    0 -0.41279279522E+02  0.29499318086E+02  0.62199677594E+02  0.80268228947E+02  0.00000000000E+00 0.  1.
         14    1    6    6    0    0  0.11726673453E+02  0.88599490915E+02  0.22034322732E+03  0.23777830534E+03  0.00000000000E+00 0. -1.
         -5    1    3    3    0  503  0.20924270921E+02 -0.58436283974E+02 -0.95636024849E+01  0.62977590385E+02  0.47000000000E+01 0.  1.
         13    1    4    4    0    0 -0.30794820782E+02 -0.65353046561E+02  0.65742451733E+02  0.97680149681E+02  0.00000000000E+00 0. -1.
        -14    1    4    4    0    0 -0.21661912228E+02  0.10820407262E+02  0.91934184709E+02  0.95069521787E+02  0.00000000000E+00 0.  1.
</event>
<event>
12    1  0.8526130E-002  0.1770050E+03  0.7818608E-02  0.1170899E+00
         21   -1    0    0  501  502  0.00000000000E+00  0.00000000000E+00  0.51268021832E+03  0.51268021832E+03  0.00000000000E+00 0. -1.
         21   -1    0    0  502  503 -0.00000000000E+00 -0.00000000000E+00 -0.90764427599E+02  0.90764427599E+02  0.00000000000E+00 0. -1.
         -6    2    1    2    0  503 -0.39982485229E+02  0.75522492587E+01  0.38435166955E+03  0.42315123642E+03  0.17226470157E+03 0.  0.
        -24    2    3    3    0    0 -0.86042478782E+01  0.48264552590E+02  0.97298607177E+02  0.13149452719E+03  0.73622629704E+02 0.  0.
          6    2    1    2  501    0  0.39982485229E+02 -0.75522492587E+01  0.37564121171E+02  0.18029340950E+03  0.17157801349E+03 0.  0.
         24    2    5    5    0    0  0.56408635109E+02 -0.49160773814E+02  0.65135041134E+02  0.12753610343E+03  0.80150909526E+02 0.  0.
          5    1    5    5  501    0 -0.16426149880E+02  0.41608524555E+02 -0.27570919964E+02  0.52757306065E+02  0.47000000000E+01 0. -1.
        -11    1    6    6    0    0  0.27688842277E+02  0.19871579850E+02  0.27707040001E+02  0.43923020593E+02  0.00000000000E+00 0.  1.
         12    1    6    6    0    0  0.28719792831E+02 -0.69032353664E+02  0.37428001133E+02  0.83613082837E+02  0.00000000000E+00 0. -1.
         -5    1    3    3    0  503 -0.31378237351E+02 -0.40712303332E+02  0.28705306238E+03  0.29165670923E+03  0.47000000000E+01 0.  1.
         11    1    4    4    0    0 -0.25442380861E+02  0.11251128883E+02  0.84350234723E+02  0.88819281368E+02  0.00000000000E+00 0. -1.
        -12    1    4    4    0    0  0.16838132982E+02  0.37013423708E+02  0.12948372454E+02  0.42675245824E+02  0.00000000000E+00 0.  1.
</event>
<event>
12    1  0.8526130E-002  0.1913260E+03  0.7818608E-02  0.1158326E+00
         21   -1    0    0  501  502  0.00000000000E+00  0.00000000000E+00  0.23603869596E+03  0.23603869596E+03  0.00000000000E+00 0.  1.
         21   -1    0    0  502  503 -0.00000000000E+00 -0.00000000000E+00 -0.15321251729E+03  0.15321251729E+03  0.00000000000E+00 0.  1.
         -6    2    1    2    0  503 -0.40028006032E+02  0.73172156283E+02  0.62480120918E+02  0.19684638265E+03  0.16699798540E+03 0.  0.
        -24    2    3    3    0    0 -0.69325093942E+02  0.92939307072E+02  0.55983070050E+02  0.16060605593E+03  0.96002695904E+02 0.  0.
          6    2    1    2  501    0  0.40028006032E+02 -0.73172156283E+02  0.20346057757E+02  0.19240483060E+03  0.17218957881E+03 0.  0.
         24    2    5    5    0    0  0.65539303473E+02 -0.10565192415E+03  0.28746823271E+02  0.14999699549E+03  0.78835204272E+02 0.  0.
          5    1    5    5  501    0 -0.25511297441E+02  0.32479767862E+02 -0.84007655136E+01  0.42407835110E+02  0.47000000000E+01 0. -1.
        -11    1    6    6    0    0  0.33686357607E+02 -0.64486093665E+02 -0.23294780137E+02  0.76392890681E+02  0.00000000000E+00 0.  1.
         12    1    6    6    0    0  0.31852945866E+02 -0.41165830481E+02  0.52041603408E+02  0.73604104810E+02  0.00000000000E+00 0. -1.
         -5    1    3    3    0  503  0.29297087910E+02 -0.19767150789E+02  0.64970508680E+01  0.36240326714E+02  0.47000000000E+01 0.  1.
         13    1    4    4    0    0 -0.89729402046E+02  0.52053219295E+02  0.29749575659E+02  0.10791635873E+03  0.00000000000E+00 0. -1.
        -14    1    4    4    0    0  0.20404308103E+02  0.40886087778E+02  0.26233494391E+02  0.52689697199E+02  0.00000000000E+00 0.  1.
</event>
<event>
12    1  0.8526130E-002  0.2766492E+03  0.7818608E-02  0.1097552E+00
         21   -1    0    0  503  502  0.00000000000E+00  0.00000000000E+00  0.10927817364E+04  0.10927817364E+04  0.00000000000E+00 0.  1.
         21   -1    0    0  501  503 -0.00000000000E+00 -0.00000000000E+00 -0.30941211484E+03  0.30941211484E+03  0.00000000000E+00 0. -1.
          6    2    1    2  501    0 -0.10040333453E+03 -0.19165203472E+03 -0.22500233501E+03  0.35659619069E+03  0.17240493164E+03 0.  0.
         24    2    3    3    0    0 -0.86247954822E+02 -0.10928439346E+03 -0.22215134031E+03  0.27284046687E+03  0.75557355665E+02 0.  0.
         -6    2    1    2    0  502  0.10040333453E+03  0.19165203472E+03  0.10083719565E+04  0.10455976605E+04  0.17218923585E+03 0.  0.
        -24    2    5    5    0    0  0.11559134831E+03  0.20518184325E+03  0.97377706582E+03  0.10051918695E+04  0.81902210286E+02 0.  0.
          5    1    3    3  501    0 -0.14155379708E+02 -0.82367641264E+02 -0.28509947057E+01  0.83755723822E+02  0.47000000000E+01 0. -1.
        -13    1    4    4    0    0 -0.94260099691E+01 -0.35924900361E+02 -0.11943856638E+03  0.12508005144E+03  0.00000000000E+00 0.  1.
         14    1    4    4    0    0 -0.76821944853E+02 -0.73359493098E+02 -0.10271277393E+03  0.14776041542E+03  0.00000000000E+00 0. -1.
         -5    1    5    5    0  502 -0.15188013779E+02 -0.13529808523E+02  0.34594890712E+02  0.40405790979E+02  0.47000000000E+01 0.  1.
         13    1    6    6    0    0  0.92502225008E+02  0.10392429241E+03  0.44242967846E+03  0.46378975901E+03  0.00000000000E+00 0. -1.
        -14    1    6    6    0    0  0.23089123301E+02  0.10125755084E+03  0.53134738736E+03  0.54140211051E+03  0.00000000000E+00 0.  1.
</event>
<event>
12    1  0.8526130E-002  0.2092467E+03  0.7818608E-02  0.1143355E+00
         21   -1    0    0  503  502  0.00000000000E+00  0.00000000000E+00  0.29032822718E+03  0.29032822718E+03  0.00000000000E+00 0. -1.
         21   -1    0    0  501  503 -0.00000000000E+00 -0.00000000000E+00 -0.43515628121E+03  0.43515628121E+03  0.00000000000E+00 0. -1.
          6    2    1    2  501    0 -0.93345935946E+02 -0.72075884728E+02 -0.36744782324E+03  0.41996239456E+03  0.16565661208E+03 0.  0.
         24    2    3    3    0    0 -0.20459624910E+01 -0.34986888249E+02 -0.89717992913E+02  0.12522992695E+03  0.80030919269E+02 0.  0.
         -6    2    1    2    0  502  0.93345935946E+02  0.72075884728E+02  0.22261976921E+03  0.30552211383E+03  0.17284618444E+03 0.  0.
        -24    2    5    5    0    0  0.83045529945E+01  0.33666307349E+01  0.15899723460E+03  0.17894045912E+03  0.81604335021E+02 0.  0.
          5    1    3    3  501    0 -0.91299973455E+02 -0.37088996479E+02 -0.27772983033E+03  0.29473246761E+03  0.47000000000E+01 0. -1.
        -13    1    4    4    0    0 -0.11892978114E+01 -0.60164530515E+02 -0.74615972503E+02  0.95857855776E+02  0.00000000000E+00 0.  1.
         14    1    4    4    0    0 -0.85666467956E+00  0.25177642266E+02 -0.15102020410E+02  0.29372071172E+02  0.00000000000E+00 0. -1.
         -5    1    5    5    0  502  0.85041382952E+02  0.68709253993E+02  0.63622534609E+02  0.12658165471E+03  0.47000000000E+01 0.  1.
         13    1    6    6    0    0  0.29570092152E+02 -0.27361251319E+02  0.53167147703E+02  0.66706626496E+02  0.00000000000E+00 0. -1.
        -14    1    6    6    0    0 -0.21265539157E+02  0.30727882054E+02  0.10583008690E+03  0.11223383262E+03  0.00000000000E+00 0.  1.
</event>
<event>
12    1  0.8526130E-002  0.1770280E+03  0.7818608E-02  0.1170824E+00
         21   -1    0    0  503  502  0.00000000000E+00  0.00000000000E+00  0.13139679657E+03  0.13139679657E+03  0.00000000000E+00 0. -1.
         21   -1    0    0  501  503 -0.00000000000E+00 -0.00000000000E+00 -0.33794964591E+03  0.33794964591E+03  0.00000000000E+00 0. -1.
          6    2    1    2  501    0 -0.40130302644E+02 -0.84458479676E+01 -0.23087617883E+03  0.29065525900E+03  0.17174078169E+03 0.  0.
         24    2    3    3    0    0 -0.83566181456E+02 -0.24367996242E+02 -0.20777302774E+03  0.23873189273E+03  0.79032775669E+02 0.  0.
         -6    2    1    2    0  502  0.40130302644E+02  0.84458479676E+01  0.24323329490E+02  0.17869118348E+03  0.17221248839E+03 0.  0.
        -24    2    5    5    0    0 -0.22918201851E+02 -0.39278462426E+02 -0.36754143081E+01  0.94674855452E+02  0.82956482554E+02 0.  0.
          5    1    3    3  501    0  0.43435878813E+02  0.15922148274E+02 -0.23103151096E+02  0.51923366267E+02  0.47000000000E+01 0. -1.
        -11    1    4    4    0    0 -0.34677390051E+02 -0.10233466494E+02 -0.14641606930E+02  0.39007971887E+02  0.00000000000E+00 0.  1.
         12    1    4    4    0    0 -0.48888791405E+02 -0.14134529748E+02 -0.19313142081E+03  0.19972392085E+03  0.00000000000E+00 0. -1.
         -5    1    5    5    0  502  0.63048504494E+02  0.47724310394E+02  0.27998743798E+02  0.84016328031E+02  0.47000000000E+01 0.  1.
         11    1    6    6    0    0 -0.19621727748E+02 -0.42977248970E+02  0.33024099827E+02  0.57642408852E+02  0.00000000000E+00 0. -1.
        -12    1    6    6    0    0 -0.32964741023E+01  0.36987865437E+01 -0.36699514135E+02  0.37032446600E+02  0.00000000000E+00 0.  1.
</event>
<event>
12    1  0.8526130E-002  0.1992195E+03  0.7818608E-02  0.1150551E+00
         21   -1    0    0  501  502  0.00000000000E+00  0.00000000000E+00  0.15095863837E+04  0.15095863837E+04  0.00000000000E+00 0.  1.
         21   -1    0    0  502  503 -0.00000000000E+00 -0.00000000000E+00 -0.41831941476E+02  0.41831941476E+02  0.00000000000E+00 0. -1.
         -6    2    1    2    0  503 -0.46488056769E+02 -0.87615944935E+02  0.25881488923E+03  0.32617415817E+03  0.17194982216E+03 0.  0.
        -24    2    3    3    0    0 -0.58205072114E+01  0.11580910488E+02  0.65799522099E+02  0.10533284034E+03  0.81224592048E+02 0.  0.
          6    2    1    2  501    0  0.46488056769E+02  0.87615944935E+02  0.12089395530E+04  0.12252441670E+04  0.17277364601E+03 0.  0.
         24    2    5    5    0    0  0.77564004762E+02  0.34429651937E+02  0.10144312254E+04  0.10211606650E+04  0.80602833735E+02 0.  0.
          5    1    5    5  501    0 -0.31075947993E+02  0.53186292998E+02  0.19450832753E+03  0.20408350199E+03  0.47000000000E+01 0. -1.
        -11    1    6    6    0    0  0.44543851735E+02  0.56296579979E+02  0.79061637182E+03  0.79386882231E+03  0.00000000000E+00 0.  1.
         12    1    6    6    0    0  0.33020153027E+02 -0.21866928042E+02  0.22381485363E+03  0.22729184269E+03  0.00000000000E+00 0. -1.
         -5    1    3    3    0  503 -0.40667549557E+02 -0.99196855424E+02  0.19301536713E+03  0.22084131783E+03  0.47000000000E+01 0.  1.
         13    1    4    4    0    0 -0.36189849634E+02  0.29298448554E+02  0.43340648950E+02  0.63612232751E+02  0.00000000000E+00 0. -1.
        -14    1    4    4    0    0  0.30369342423E+02 -0.17717538066E+02  0.22458873149E+02  0.41720607587E+02  0.00000000000E+00 0.  1.
</event>
<event>
12    1  0.8526130E-002  0.1971933E+03  0.7818608E-02  0.1152905E+00
         21   -1    0    0  501  502  0.00000000000E+00  0.00000000000E+00  0.27726607404E+03  0.27726607404E+03  0.00000000000E+00 0. -1.
         21   -1    0    0  502  503 -0.00000000000E+00 -0.00000000000E+00 -0.29565322910E+03  0.29565322910E+03  0.00000000000E+00 0. -1.
         -6    2    1    2    0  503 -0.46589517351E+02  0.21658690045E+02 -0.21860063700E+03  0.29440015602E+03  0.19038259213E+03 0.  0.
        -24    2    3    3    0    0  0.42491610701E+02  0.49656667580E+02 -0.12569167180E+03  0.16259158295E+03  0.79789127522E+02 0.  0.
          6    2    1    2  501    0  0.46589517351E+02 -0.21658690045E+02  0.20021348194E+03  0.27851914712E+03  0.18667564109E+03 0.  0.
         24    2    5    5    0    0  0.51888180785E+02 -0.64121210705E+02  0.20552112140E+03  0.23514400986E+03  0.79056062791E+02 0.  0.
          5    1    5    5  501    0 -0.52986634341E+01  0.42462520660E+02 -0.53076394639E+01  0.43375137252E+02  0.47000000000E+01 0. -1.
        -11    1    6    6    0    0  0.23875941885E+02 -0.79003317174E+02  0.14808703138E+03  0.16953275079E+03  0.00000000000E+00 0.  1.
         12    1    6    6    0    0  0.28012238900E+02  0.14882106469E+02  0.57434090021E+02  0.65611259077E+02  0.00000000000E+00 0. -1.
         -5    1    3    3    0  503 -0.89081128052E+02 -0.27997977535E+02 -0.92908965198E+02  0.13180857307E+03  0.47000000000E+01 0.  1.
         11    1    4    4    0    0  0.60919213257E+02  0.30693977829E+02 -0.56687070107E+02  0.88694389541E+02  0.00000000000E+00 0. -1.
        -12    1    4    4    0    0 -0.18427602556E+02  0.18962689751E+02 -0.69004601697E+02  0.73897193410E+02  0.00000000000E+00 0.  1.
</event>
<event>
12    1  0.8526130E-002  0.1775343E+03  0.7818608E-02  0.1171007E+00
         21   -1    0    0  501  502  0.00000000000E+00  0.00000000000E+00  0.44645429533E+03  0.44645429533E+03  0.00000000000E+00 0.  1.
         21   -1    0    0  502  503 -0.00000000000E+00 -0.00000000000E+00 -0.69330594667E+02  0.69330594667E+02  0.00000000000E+00 0.  1.
         -6    2    1    2    0  503  0.89511043364E+01 -0.13287314403E+02  0.18664160240E+03  0.25539697703E+03  0.17359681200E+03 0.  0.
        -24    2    3    3    0    0  0.51129642468E+02 -0.50499511250E+02  0.16033059138E+03  0.19312229538E+03  0.80161595956E+02 0.  0.
          6    2    1    2  501    0 -0.89511043364E+01  0.13287314403E+02  0.19048209826E+03  0.26038791297E+03  0.17680995580E+03 0.  0.
         24    2    5    5    0    0  0.16898372221E+02  0.59031284386E+02  0.55748247338E+02  0.11569511145E+03  0.80667491662E+02 0.  0.
          5    1    5    5  501    0 -0.25849476558E+02 -0.45743969983E+02  0.13473385093E+03  0.14469280153E+03  0.47000000000E+01 0. -1.
        -11    1    6    6    0    0  0.42431332395E+02  0.65693619796E+01  0.21157749305E+02  0.47866740450E+02  0.00000000000E+00 0.  1.
         12    1    6    6    0    0 -0.25532960173E+02  0.52461922407E+02  0.34590498033E+02  0.67828370996E+02  0.00000000000E+00 0. -1.
         -5    1    3    3    0  503 -0.42178538132E+02  0.37212196847E+02  0.26311011022E+02  0.62274681646E+02  0.47000000000E+01 0.  1.
         11    1    4    4    0    0  0.10050588823E+02 -0.84760548609E+01 -0.76138965795E+01  0.15193066275E+02  0.00000000000E+00 0. -1.
        -12    1    4    4    0    0  0.41079053645E+02 -0.42023456389E+02  0.16794448796E+03  0.17792922911E+03  0.00000000000E+00 0.  1.
</event>
<event>
12    1  0.8526130E-002  0.2877247E+03  0.7818608E-02  0.1091623E+00
         21   -1    0    0  501  502  0.00000000000E+00  0.00000000000E+00  0.12679515684E+04  0.12679515684E+04  0.00000000000E+00 0. -1.
         21   -1    0    0  502  503 -0.00000000000E+00 -0.00000000000E+00 -0.67916086963E+02  0.67916086963E+02  0.00000000000E+00 0. -1.
         -6    2    1    2    0  503  0.23033363851E+03  0.15203286428E+02  0.46590956286E+03  0.54759219668E+03  0.17175787653E+03 0.  0.
        -24    2    3    3    0    0  0.78568027624E+02  0.13151914104E+02  0.30672505303E+03  0.32759490818E+03  0.83019623587E+02 0.  0.
          6    2    1    2  501    0 -0.23033363851E+03 -0.15203286428E+02  0.73412591854E+03  0.78827545865E+03  0.17074135260E+03 0.  0.
         24    2    5    5    0    0 -0.47206140093E+02 -0.35254002877E+02  0.19484159686E+03  0.21837425536E+03  0.79074668217E+02 0.  0.
          5    1    5    5  501    0 -0.18312749842E+03  0.20050716449E+02  0.53928432168E+03  0.56990120329E+03  0.47000000000E+01 0. -1.
        -11    1    6    6    0    0 -0.34792808457E+02 -0.60400367599E+02  0.12515794576E+03  0.14325939869E+03  0.00000000000E+00 0.  1.
         12    1    6    6    0    0 -0.12413331636E+02  0.25146364722E+02  0.69683651107E+02  0.75114856670E+02  0.00000000000E+00 0. -1.
         -5    1    3    3    0  503  0.15176561088E+03  0.20513723236E+01  0.15918450983E+03  0.21999728849E+03  0.47000000000E+01 0.  1.
         13    1    4    4    0    0  0.91770617559E+02  0.75133481656E+01  0.20331874736E+03  0.22319679585E+03  0.00000000000E+00 0. -1.
        -14    1    4    4    0    0 -0.13202589935E+02  0.56385659389E+01  0.10340630567E+03  0.10439811233E+03  0.00000000000E+00 0.  1.
</event>
<event>
12    1  0.8526130E-002  0.1893337E+03  0.7818608E-02  0.1160529E+00
         21   -1    0    0  503  502  0.00000000000E+00  0.00000000000E+00  0.39248156711E+02  0.39248156711E+02  0.00000000000E+00 0. -1.
         21   -1    0    0  501  503 -0.00000000000E+00 -0.00000000000E+00 -0.88648450169E+03  0.88648450169E+03  0.00000000000E+00 0. -1.
          6    2    1    2  501    0 -0.59201310039E+02 -0.28524954780E+02 -0.40168970063E+03  0.44407417497E+03  0.17756347916E+03 0.  0.
         24    2    3    3    0    0 -0.66339892161E+02  0.36701336046E+02 -0.32381470265E+03  0.34213285029E+03  0.80317845037E+02 0.  0.
         -6    2    1    2    0  502  0.59201310039E+02  0.28524954780E+02 -0.44554664435E+03  0.48165848342E+03  0.17077650368E+03 0.  0.
        -24    2    5    5    0    0  0.52451782578E+01 -0.75864224132E+01 -0.38567036347E+03  0.39321327591E+03  0.76091953559E+02 0.  0.
          5    1    3    3  501    0  0.71385821217E+01 -0.65226290825E+02 -0.77874997977E+02  0.10194132469E+03  0.47000000000E+01 0. -1.
        -11    1    4    4    0    0 -0.37268341840E+02  0.33345924482E+02 -0.66737252898E+02  0.83395089229E+02  0.00000000000E+00 0.  1.
         12    1    4    4    0    0 -0.29071550321E+02  0.33554115639E+01 -0.25707744975E+03  0.25873776106E+03  0.00000000000E+00 0. -1.
         -5    1    5    5    0  502  0.53956131782E+02  0.36111377193E+02 -0.59876280877E+02  0.88445207509E+02  0.47000000000E+01 0.  1.
         13    1    6    6    0    0 -0.28445193091E+02 -0.25750956302E+02 -0.19505284710E+03  0.19879098048E+03  0.00000000000E+00 0. -1.
        -14    1    6    6    0    0  0.33690371349E+02  0.18164533889E+02 -0.19061751637E+03  0.19442229543E+03  0.00000000000E+00 0.  1.
</event>
<event>
12    1  0.8526130E-002  0.1753188E+03  0.7818608E-02  0.1172459E+00
         21   -1    0    0  503  502  0.00000000000E+00  0.00000000000E+00  0.39961211634E+03  0.39961211634E+03  0.00000000000E+00 0.  1.
         21   -1    0    0  501  503 -0.00000000000E+00 -0.00000000000E+00 -0.96898639253E+02  0.96898639253E+02  0.00000000000E+00 0.  1.
          6    2    1    2  501    0 -0.12603214496E+02  0.28904445110E+02  0.26426051487E+03  0.31702455882E+03  0.17226910115E+03 0.  0.
         24    2    3    3    0    0 -0.34590144708E+02 -0.29315112776E+02  0.22580535884E+03  0.24371813996E+03  0.79715856110E+02 0.  0.
         -6    2    1    2    0  502  0.12603214496E+02 -0.28904445110E+02  0.38452962222E+02  0.17948619678E+03  0.17245972448E+03 0.  0.
        -24    2    5    5    0    0  0.40586879119E+02 -0.84997373442E+02  0.45363356878E+02  0.11624581689E+03  0.50827232352E+02 0.  0.
          5    1    3    3  501    0  0.21986930212E+02  0.58219557886E+02  0.38455156028E+02  0.73306418858E+02  0.47000000000E+01 0. -1.
        -13    1    4    4    0    0 -0.26728871985E+02  0.23744571810E+02  0.11813690870E+03  0.12342838606E+03  0.00000000000E+00 0.  1.
         14    1    4    4    0    0 -0.78612727227E+01 -0.53059684587E+02  0.10766845014E+03  0.12028975390E+03  0.00000000000E+00 0. -1.
         -5    1    5    5    0  502 -0.27983664623E+02  0.56092928332E+02 -0.69103946558E+01  0.63240379892E+02  0.47000000000E+01 0.  1.
         13    1    6    6    0    0 -0.35992711286E+01 -0.77344162494E+00  0.16421249032E+02  0.16828855706E+02  0.00000000000E+00 0. -1.
        -14    1    6    6    0    0  0.44186150247E+02 -0.84223931817E+02  0.28942107846E+02  0.99416961184E+02  0.00000000000E+00 0.  1.
</event>
<event>
12    1  0.8526130E-002  0.2233461E+03  0.7818608E-02  0.1131539E+00
         21   -1    0    0  501  502  0.00000000000E+00  0.00000000000E+00  0.71545132735E+02  0.71545132735E+02  0.00000000000E+00 0.  1.
         21   -1    0    0  502  503 -0.00000000000E+00 -0.00000000000E+00 -0.74293344354E+03  0.74293344354E+03  0.00000000000E+00 0. -1.
         -6    2    1    2    0  503 -0.14177708688E+03 -0.65612095764E+01 -0.23185670780E+03  0.32145576362E+03  0.17155897872E+03 0.  0.
        -24    2    3    3    0    0 -0.61931329808E+02 -0.71205792460E+01 -0.21797772305E+03  0.24027464491E+03  0.79570251860E+02 0.  0.
          6    2    1    2  501    0  0.14177708688E+03  0.65612095764E+01 -0.43953160300E+03  0.49302281265E+03  0.17245194090E+03 0.  0.
         24    2    5    5    0    0  0.10415594363E+03  0.62872693638E+01 -0.13692223237E+03  0.18804749126E+03  0.75671466900E+02 0.  0.
          5    1    5    5  501    0  0.37621143254E+02  0.27394021259E+00 -0.30260937063E+03  0.30497532139E+03  0.47000000000E+01 0. -1.
        -13    1    6    6    0    0  0.80519309468E+02  0.45654667271E+01 -0.14246515457E+03  0.16370865265E+03  0.00000000000E+00 0.  1.
         14    1    6    6    0    0  0.23636634161E+02  0.17218026367E+01  0.55429221983E+01  0.24338838618E+02  0.00000000000E+00 0. -1.
         -5    1    3    3    0  503 -0.79845757075E+02  0.55936966956E+00 -0.13878984750E+02  0.81181118710E+02  0.47000000000E+01 0.  1.
         13    1    4    4    0    0 -0.64950032486E+02  0.21889404513E+02 -0.12166509928E+03  0.13964257636E+03  0.00000000000E+00 0. -1.
        -14    1    4    4    0    0  0.30187026778E+01 -0.29009983759E+02 -0.96312623770E+02  0.10063206855E+03  0.00000000000E+00 0.  1.
</event>
<event>
12    1  0.8526130E-002  0.1961438E+03  0.7818608E-02  0.1153120E+00
         21   -1    0    0  503  502  0.00000000000E+00  0.00000000000E+00  0.21663371895E+03  0.21663371895E+03  0.00000000000E+00 0.  1.
         21   -1    0    0  501  503 -0.00000000000E+00 -0.00000000000E+00 -0.33558468889E+03  0.33558468889E+03  0.00000000000E+00 0. -1.
          6    2    1    2  501    0  0.89060991648E+02  0.31122445182E+02 -0.24911114204E+03  0.31681647928E+03  0.17151050588E+03 0.  0.
         24    2    3    3    0    0  0.10421822790E+03  0.49662794970E+02 -0.11640906415E+03  0.18188902523E+03  0.78770013650E+02 0.  0.
         -6    2    1    2    0  502 -0.89060991648E+02 -0.31122445182E+02  0.13016017211E+03  0.23540192855E+03  0.17196491135E+03 0.  0.
        -24    2    5    5    0    0  0.76455769974E+00 -0.41672541319E+02  0.10953837336E+03  0.14251876308E+03  0.81091043548E+02 0.  0.
          5    1    3    3  501    0 -0.15157236256E+02 -0.18540349788E+02 -0.13270207789E+03  0.13492745405E+03  0.47000000000E+01 0. -1.
        -11    1    4    4    0    0  0.42934159671E+02  0.54557374355E+02 -0.93108790485E+02  0.11614256769E+03  0.00000000000E+00 0.  1.
         12    1    4    4    0    0  0.61284068233E+02 -0.48945793856E+01 -0.23300273668E+02  0.65746457543E+02  0.00000000000E+00 0. -1.
         -5    1    5    5    0  502 -0.89825549347E+02  0.10550096137E+02  0.20621798749E+02  0.92883165470E+02  0.47000000000E+01 0.  1.
         11    1    6    6    0    0  0.26162966287E+01  0.19881291190E+02  0.41808731211E+01  0.20483907037E+02  0.00000000000E+00 0. -1.
        -12    1    6    6    0    0 -0.18517389290E+01 -0.61553832509E+02  0.10535750024E+03  0.12203485604E+03  0.00000000000E+00 0.  1.
</event>
<event>
12    1  0.8526130E-002  0.1792750E+03  0.7818608E-02  0.1171170E+00
         21   -1    0    0  503  502  0.00000000000E+00  0.00000000000E+00  0.11033326445E+03  0.11033326445E+03  0.00000000000E+00 0.  1.
         21   -1    0    0  501  503 -0.00000000000E+00 -0.00000000000E+00 -0.12878526033E+04  0.12878526033E+04  0.00000000000E+00 0.  1.
          6    2    1    2  501    0 -0.51001508449E+02  0.88974520108E+01 -0.12050597635E+04  0.12168077728E+04  0.16053598909E+03 0.  0.
         24    2    3    3    0    0 -0.10955395941E+02 -0.51049807590E+02 -0.65872255521E+03  0.66571449555E+03  0.80834901373E+02 0.  0.
         -6    2    1    2    0  502  0.51001508449E+02 -0.88974520108E+01  0.27540424590E+02  0.18137809502E+03  0.17163688371E+03 0.  0.
        -24    2    5    5    0    0 -0.31954244107E+02  0.24225133441E+02  0.28902798604E+02  0.91920235599E+02  0.77498562171E+02 0.  0.
          5    1    3    3  501    0 -0.40046112508E+02  0.59947259601E+02 -0.54633720825E+03  0.55109327721E+03  0.47000000000E+01 0. -1.
        -11    1    4    4    0    0 -0.29146931329E+02 -0.22698798013E+02 -0.56349325376E+03  0.56470295383E+03  0.00000000000E+00 0.  1.
         12    1    4    4    0    0  0.18191535389E+02 -0.28351009577E+02 -0.95229301459E+02  0.10101154172E+03  0.00000000000E+00 0. -1.
         -5    1    5    5    0  502  0.82955752556E+02 -0.33122585452E+02 -0.13623740144E+01  0.89457859421E+02  0.47000000000E+01 0.  1.
         11    1    6    6    0    0 -0.22106699001E+02 -0.68358927224E+01 -0.21707334397E+02  0.31727652555E+02  0.00000000000E+00 0. -1.
        -12    1    6    6    0    0 -0.98475451062E+01  0.31061026164E+02  0.50610133002E+02  0.60192583043E+02  0.00000000000E+00 0.  1.
</event>
<event>
12    1  0.8526130E-002  0.2946333E+03  0.7818608E-02  0.1088100E+00
         21   -1    0    0  503  502  0.00000000000E+00  0.00000000000E+00  0.20411032946E+03  0.20411032946E+03  0.00000000000E+00 0.  1.
         21   -1    0    0  501  503 -0.00000000000E+00 -0.00000000000E+00 -0.51243438417E+03  0.51243438417E+03  0.00000000000E+00 0.  1.
          6    2    1    2  501    0  0.20860401238E+03 -0.11582948279E+03 -0.30303317570E+03  0.42186388795E+03  0.17090328061E+03 0.  0.
         24    2    3    3    0    0  0.14838875700E+03 -0.13891599438E+02 -0.21672783279E+03  0.27527633303E+03  0.81202871168E+02 0.  0.
         -6    2    1    2    0  502 -0.20860401238E+03  0.11582948279E+03 -0.52908790081E+01  0.29468082567E+03  0.17284875630E+03 0.  0.
        -24    2    5    5    0    0 -0.85262943263E+02  0.10441971044E+03  0.41587326849E+02  0.16215589058E+03  0.79948618961E+02 0.  0.
          5    1    3    3  501    0  0.60215255376E+02 -0.10193788335E+03 -0.86305342916E+02  0.14658755492E+03  0.47000000000E+01 0. -1.
        -11    1    4    4    0    0  0.50752542344E+02 -0.41467100740E+02 -0.10982759214E+03  0.12789621180E+03  0.00000000000E+00 0.  1.
         12    1    4    4    0    0  0.97636214656E+02  0.27575501302E+02 -0.10690024065E+03  0.14738012123E+03  0.00000000000E+00 0. -1.
         -5    1    5    5    0  502 -0.12334106911E+03  0.11409772346E+02 -0.46878205857E+02  0.13252493509E+03  0.47000000000E+01 0.  1.
         11    1    6    6    0    0  0.13626617974E+02  0.97010464256E+01 -0.50917230286E+01  0.17484869532E+02  0.00000000000E+00 0. -1.
        -12    1    6    6    0    0 -0.98889561236E+02  0.94718664014E+02  0.46679049878E+02  0.14467102105E+03  0.00000000000E+00 0.  1.
</event>
<event>
12    1  0.8526130E-002  0.2916761E+03  0.7818608E-02  0.1089692E+00
         21   -1    0    0  503  502  0.00000000000E+00  0.00000000000E+00  0.27562133808E+03  0.27562133808E+03  0.00000000000E+00 0. -1.
         21   -1    0    0  501  503 -0.00000000000E+00 -0.00000000000E+00 -0.34972966529E+03  0.34972966529E+03  0.00000000000E+00 0.  1.
          6    2    1    2  501    0 -0.22638807518E+03  0.66891189872E+02  0.72432685661E+02  0.29893221620E+03  0.16848734096E+03 0.  0.
         24    2    3    3    0    0 -0.19642869633E+03  0.46651598541E+02 -0.59311307553E+00  0.21731075628E+03  0.80392839375E+02 0.  0.
         -6    2    1    2    0  502  0.22638807518E+03 -0.66891189872E+02 -0.14654101287E+03  0.32641878718E+03  0.17131539423E+03 0.  0.
        -24    2    5    5    0    0  0.24095545961E+03 -0.84062343296E+02 -0.13059510102E+03  0.29842915867E+03  0.82938961048E+02 0.  0.
          5    1    3    3  501    0 -0.29959378851E+02  0.20239591330E+02  0.73025798736E+02  0.81621459920E+02  0.47000000000E+01 0. -1.
        -13    1    4    4    0    0 -0.94015565886E+02  0.63126875894E+02 -0.63552379120E+01  0.11342097750E+03  0.00000000000E+00 0.  1.
         14    1    4    4    0    0 -0.10241313045E+03 -0.16475277352E+02  0.57621248364E+01  0.10388977878E+03  0.00000000000E+00 0. -1.
         -5    1    5    5    0  502 -0.14567384426E+02  0.17171153424E+02 -0.15945911854E+02  0.27989628504E+02  0.47000000000E+01 0.  1.
         11    1    6    6    0    0  0.93603514467E+02 -0.62549881178E+02 -0.89858000365E+02  0.14404362459E+03  0.00000000000E+00 0. -1.
        -12    1    6    6    0    0  0.14735194514E+03 -0.21512462118E+02 -0.40737100653E+02  0.15438553408E+03  0.00000000000E+00 0.  1.
</event>
<event>
12    1  0.8526130E-002  0.2499558E+03  0.7818608E-02  0.1113559E+00
         21   -1    0    0  501  502  0.00000000000E+00  0.00000000000E+00  0.39050442417E+03  0.39050442417E+03  0.00000000000E+00 0. -1.
         21   -1    0    0  502  503 -0.00000000000E+00 -0.00000000000E+00 -0.25239553831E+03  0.25239553831E+03  0.00000000000E+00 0.  1.
         -6    2    1    2    0  503 -0.15848103570E+03  0.85137592023E+02 -0.12627787877E+03  0.28004286526E+03  0.17353171315E+03 0.  0.
        -24    2    3    3    0    0 -0.70631812338E+02  0.91451701146E+02 -0.12962895889E+03  0.19177807185E+03  0.81381172901E+02 0.  0.
          6    2    1    2  501    0  0.15848103570E+03 -0.85137592023E+02  0.26438676463E+03  0.36285709722E+03  0.17146505020E+03 0.  0.
         24    2    5    5    0    0  0.10679587386E+03 -0.11423197881E+02  0.60959438539E+02  0.14034881679E+03  0.66677500736E+02 0.  0.
          5    1    5    5  501    0  0.51685161833E+02 -0.73714394142E+02  0.20342732609E+03  0.22250828042E+03  0.47000000000E+01 0. -1.
        -11    1    6    6    0    0  0.75819921934E+02 -0.35671581861E+02  0.55805091831E+02  0.10067437901E+03  0.00000000000E+00 0.  1.
         12    1    6    6    0    0  0.30975951929E+02  0.24248383980E+02  0.51543467081E+01  0.39674437785E+02  0.00000000000E+00 0. -1.
         -5    1    3    3    0  503 -0.87849223358E+02 -0.63141091237E+01  0.33510801190E+01  0.88264793415E+02  0.47000000000E+01 0.  1.
         13    1    4    4    0    0 -0.18157164581E+02  0.14251916748E+02  0.88960731530E+01  0.24737418502E+02  0.00000000000E+00 0. -1.
        -14    1    4    4    0    0 -0.52474647757E+02  0.77199784398E+02 -0.13852503204E+03  0.16704065334E+03  0.00000000000E+00 0.  1.
</event>
<event>
12    1  0.8526130E-002  0.2003378E+03  0.7818608E-02  0.1150730E+00
         21   -1    0    0  503  502  0.00000000000E+00  0.00000000000E+00  0.22987303078E+02  0.22987303078E+02  0.00000000000E+00 0.  1.
         21   -1    0    0  501  503 -0.00000000000E+00 -0.00000000000E+00 -0.24399245545E+04  0.24399245545E+04  0.00000000000E+00 0.  1.
          6    2    1    2  501    0  0.44948545689E+02  0.80147443095E+02 -0.18764516983E+04  0.18864919973E+04  0.17128074978E+03 0.  0.
         24    2    3    3    0    0 -0.11797327222E+02  0.10447285127E+03 -0.13176572960E+04  0.13242775421E+04  0.80227832710E+02 0.  0.
         -6    2    1    2    0  502 -0.44948545689E+02 -0.80147443095E+02 -0.54048555312E+03  0.57641986032E+03  0.17802032988E+03 0.  0.
        -24    2    5    5    0    0 -0.31780612985E+02 -0.48647791699E+02 -0.12097174798E+03  0.15549285335E+03  0.78531832000E+02 0.  0.
          5    1    3    3  501    0  0.56745872910E+02 -0.24325408177E+02 -0.55879440231E+03  0.56221445519E+03  0.47000000000E+01 0. -1.
        -11    1    4    4    0    0  0.11415919981E+02  0.32754912738E+02 -0.83936827612E+03  0.84008470435E+03  0.00000000000E+00 0.  1.
         12    1    4    4    0    0 -0.23213247203E+02  0.71717938535E+02 -0.47828901989E+03  0.48419283773E+03  0.00000000000E+00 0. -1.
         -5    1    5    5    0  502 -0.13167932704E+02 -0.31499651396E+02 -0.41951380514E+03  0.42092700696E+03  0.47000000000E+01 0.  1.
         13    1    6    6    0    0  0.20179564502E+02 -0.22634664979E+02 -0.76589998654E+02  0.82374576030E+02  0.00000000000E+00 0. -1.
        -14    1    6    6    0    0 -0.51960177487E+02 -0.26013126720E+02 -0.44381749321E+02  0.73118277325E+02  0.00000000000E+00 0.  1.
</event>
<event>
12    1  0.8526130E-002  0.1923921E+03  0.7818608E-02  0.1156412E+00
         21   -1    0    0  501  502  0.00000000000E+00  0.00000000000E+00  0.11344267415E+03  0.11344267415E+03  0.00000000000E+00 0. -1.
         21   -1    0    0  502  503 -0.00000000000E+00 -0.00000000000E+00 -0.32647850368E+03  0.32647850368E+03  0.00000000000E+00 0. -1.
         -6    2    1    2    0  503  0.73962874017E+02 -0.42184348276E+02 -0.11786409878E+03  0.22527639405E+03  0.17206824798E+03 0.  0.
        -24    2    3    3    0    0  0.48031014526E+02 -0.81871551143E+02 -0.12673671470E+03  0.17681663011E+03  0.78689240602E+02 0.  0.
          6    2    1    2  501    0 -0.73962874017E+02  0.42184348276E+02 -0.95171730754E+02  0.21464478379E+03  0.17252448783E+03 0.  0.
         24    2    5    5    0    0 -0.66015644424E+02 -0.32273498664E+02 -0.88583420837E+02  0.13932795130E+03  0.78521408166E+02 0.  0.
          5    1    5    5  501    0 -0.79472295927E+01  0.74457846940E+02 -0.65883099175E+01  0.75316832492E+02  0.47000000000E+01 0. -1.
        -11    1    6    6    0    0 -0.42754598156E+02 -0.17739664840E+02  0.31974484524E+00  0.46289886680E+02  0.00000000000E+00 0.  1.
         12    1    6    6    0    0 -0.23261046268E+02 -0.14533833823E+02 -0.88903165682E+02  0.93038064616E+02  0.00000000000E+00 0. -1.
         -5    1    3    3    0  503  0.25931859490E+02  0.39687202867E+02  0.88726159220E+01  0.48459763942E+02  0.47000000000E+01 0.  1.
         13    1    4    4    0    0 -0.14118077245E+02 -0.42634479123E+02 -0.25287771201E+02  0.51541151398E+02  0.00000000000E+00 0. -1.
        -14    1    4    4    0    0  0.62149091771E+02 -0.39237072021E+02 -0.10144894350E+03  0.12527547871E+03  0.00000000000E+00 0.  1.
</event>
<event>
12    1  0.8526130E-002  0.2199402E+03  0.7818608E-02  0.1134184E+00
         21   -1    0    0  501  502  0.00000000000E+00  0.00000000000E+00  0.12131404441E+03  0.12131404441E+03  0.00000000000E+00 0.  1.
         21   -1    0    0  502  503 -0.00000000000E+00 -0.00000000000E+00 -0.59854204000E+03  0.59854204000E+03  0.00000000000E+00 0. -1.
         -6    2    1    2    0  503 -0.13237209734E+03 -0.18443166900E+02 -0.28882422711E+02  0.22046902507E+03  0.17294471404E+03 0.  0.
        -24    2    3    3    0    0 -0.20124751761E+02  0.31160471195E+02  0.20642111448E+02  0.88050155625E+02  0.77141120955E+02 0.  0.
          6    2    1    2  501    0  0.13237209734E+03  0.18443166900E+02 -0.44834557288E+03  0.49938705933E+03  0.17467443931E+03 0.  0.
         24    2    5    5    0    0  0.28773914167E+02  0.17960194474E+02 -0.82607492038E+02  0.11923018303E+03  0.79002101765E+02 0.  0.
          5    1    5    5  501    0  0.10359818317E+03  0.48297242615E+00 -0.36573808084E+03  0.38015687630E+03  0.47000000000E+01 0. -1.
        -13    1    6    6    0    0  0.27318714732E+02 -0.14415295670E+02 -0.42842230161E+00  0.30891689328E+02  0.00000000000E+00 0.  1.
         14    1    6    6    0    0  0.14551994349E+01  0.32375490143E+02 -0.82179069736E+02  0.88338493705E+02  0.00000000000E+00 0. -1.
         -5    1    3    3    0  503 -0.11224734558E+03 -0.49603638094E+02 -0.49524534159E+02  0.13241886945E+03  0.47000000000E+01 0.  1.
         11    1    4    4    0    0 -0.36363253666E+02  0.48354789390E+02  0.21958280094E+02  0.64363327593E+02  0.00000000000E+00 0. -1.
        -12    1    4    4    0    0  0.16238501905E+02 -0.17194318196E+02 -0.13161686461E+01  0.23686828033E+02  0.00000000000E+00 0.  1.
</event>
<event>
12    1  0.8526130E-002  0.1995514E+03  0.7818608E-02  0.1150356E+00
         21   -1    0    0  503  502  0.00000000000E+00  0.00000000000E+00  0.18873354888E+02  0.18873354888E+02  0.00000000000E+00 0. -1.
         21   -1    0    0  501  503 -0.00000000000E+00 -0.00000000000E+00 -0.23749423213E+04  0.23749423213E+04  0.00000000000E+00 0. -1.
          6    2    1    2  501    0  0.92946145890E+02  0.33889873765E+02 -0.15837784193E+04  0.15961607112E+04  0.17200995611E+03 0.  0.
         24    2    3    3    0    0  0.87366829491E+02  0.63605914333E+02 -0.15250243134E+04  0.15299164148E+04  0.57152469778E+02 0.  0.
         -6    2    1    2    0  502 -0.92946145890E+02 -0.33889873765E+02 -0.77229054709E+03  0.79765496495E+03  0.17330102253E+03 0.  0.
        -24    2    5    5    0    0 -0.26222210945E+02  0.40599286521E+01 -0.63314291274E+03  0.63866935194E+03  0.79526761497E+02 0.  0.
          5    1    3    3  501    0  0.55793163991E+01 -0.29716040568E+02 -0.58754105964E+02  0.66244296405E+02  0.47000000000E+01 0. -1.
        -13    1    4    4    0    0  0.20705238826E+02  0.50063186512E+02 -0.69809240352E+03  0.70019142626E+03  0.00000000000E+00 0.  1.
         14    1    4    4    0    0  0.66661590665E+02  0.13542727821E+02 -0.82693190985E+03  0.82972498858E+03  0.00000000000E+00 0. -1.
         -5    1    5    5    0  502 -0.66723934945E+02 -0.37949802417E+02 -0.13914763435E+03  0.15898561301E+03  0.47000000000E+01 0.  1.
         13    1    6    6    0    0  0.17300456934E+02 -0.51031723183E+01 -0.44404759145E+03  0.44441378427E+03  0.00000000000E+00 0. -1.
        -14    1    6    6    0    0 -0.43522667879E+02  0.91631009704E+01 -0.18909532129E+03  0.19425556768E+03  0.00000000000E+00 0.  1.
</event>
<event>
12    1  0.8526130E-002  0.1777765E+03  0.7818608E-02  0.1170973E+00
         21   -1    0    0  501  502  0.00000000000E+00  0.00000000000E+00  0.95148264157E+03  0.95148264157E+03  0.00000000000E+00 0. -1.
         21   -1    0    0  502  503 -0.00000000000E+00 -0.00000000000E+00 -0.42781135556E+02  0.42781135556E+02  0.00000000000E+00 0. -1.
         -6    2    1    2    0  503  0.99944254280E+01  0.22150736750E+02  0.21423850832E+03  0.27839292283E+03  0.17610774360E+03 0.  0.
        -24    2    3    3    0    0 -0.36315924420E+02 -0.40134747875E+02  0.83240281290E+02  0.12605528604E+03  0.77661743191E+02 0.  0.
          6    2    1    2  501    0 -0.99944254280E+01 -0.22150736750E+02  0.69446299769E+03  0.71587085429E+03  0.17205139112E+03 0.  0.
         24    2    5    5    0    0 -0.94077701655E+01 -0.53432775225E+01  0.13320828243E+03  0.15434455905E+03  0.77205826499E+02 0.  0.
          5    1    5    5  501    0 -0.58665526250E+00 -0.16807459228E+02  0.56125471526E+03  0.56152629525E+03  0.47000000000E+01 0. -1.
        -13    1    6    6    0    0 -0.28942799574E+02 -0.16359803386E+02  0.19706162139E+02  0.38647918964E+02  0.00000000000E+00 0.  1.
         14    1    6    6    0    0  0.19535029408E+02  0.11016525863E+02  0.11350212029E+03  0.11569664008E+03  0.00000000000E+00 0. -1.
         -5    1    3    3    0  503  0.46310349848E+02  0.62285484626E+02  0.13099822703E+03  0.15233763679E+03  0.47000000000E+01 0.  1.
         11    1    4    4    0    0 -0.37703757959E+02  0.83477756107E+01  0.13099692661E+02  0.40778188652E+02  0.00000000000E+00 0. -1.
        -12    1    4    4    0    0  0.13878335394E+01 -0.48482523486E+02  0.70140588629E+02  0.85277097387E+02  0.00000000000E+00 0.  1.
</event>
<event>
12    1  0.8526130E-002  0.1753669E+03  0.7818608E-02  0.1172549E+00
         21   -1    0    0  501  502  0.00000000000E+00  0.00000000000E+00  0.22204072304E+03  0.22204072304E+03  0.00000000000E+00 0.  1.
         21   -1    0    0  502  503 -0.00000000000E+00 -0.00000000000E+00 -0.16409078862E+03  0.16409078862E+03  0.00000000000E+00 0.  1.
         -6    2    1    2    0  503 -0.35260924266E+02 -0.25934110193E+01  0.10612888624E+03  0.20498020261E+03  0.17176578357E+03 0.  0.
        -24    2    3    3    0    0 -0.84073176935E+02  0.21017541201E+02  0.87461407274E+02  0.14744171248E+03  0.81114269388E+02 0.  0.
          6    2    1    2  501    0  0.35260924266E+02  0.25934110193E+01 -0.48178951813E+02  0.18115130905E+03  0.17101031201E+03 0.  0.
         24    2    5    5    0    0  0.47944148510E+02 -0.11369974561E+02  0.32010934844E+02  0.98638593449E+02  0.79227233135E+02 0.  0.
          5    1    5    5  501    0 -0.12683224244E+02  0.13963385580E+02 -0.80189886657E+02  0.82512715603E+02  0.47000000000E+01 0. -1.
        -13    1    6    6    0    0 -0.53692036576E+01 -0.32191134493E+01 -0.21662684792E+02  0.22549123080E+02  0.00000000000E+00 0.  1.
         14    1    6    6    0    0  0.53313352167E+02 -0.81508611117E+01  0.53673619636E+02  0.76089470369E+02  0.00000000000E+00 0. -1.
         -5    1    3    3    0  503  0.48812252668E+02 -0.23610952221E+02  0.18667478963E+02  0.57538490128E+02  0.47000000000E+01 0.  1.
         13    1    4    4    0    0 -0.89718988693E+02 -0.62729493792E+01  0.58732264067E+02  0.10741659866E+03  0.00000000000E+00 0. -1.
        -14    1    4    4    0    0  0.56458117579E+01  0.27290490581E+02  0.28729143208E+02  0.40025113816E+02  0.00000000000E+00 0.  1.
</event>
<event>
12    1  0.8526130E-002  0.1995507E+03  0.7818608E-02  0.1150811E+00
         21   -1    0    0  501  502  0.00000000000E+00  0.00000000000E+00  0.57499819753E+03  0.57499819753E+03  0.00000000000E+00 0. -1.
         21   -1    0    0  502  503 -0.00000000000E+00 -0.00000000000E+00 -0.25165979852E+03  0.25165979852E+03  0.00000000000E+00 0.  1.
         -6    2    1    2    0  503 -0.57137324775E+02  0.75229902996E+02 -0.19165760735E+03  0.27435248302E+03  0.17208263798E+03 0.  0.
        -24    2    3    3    0    0 -0.86408873907E+02  0.74925864699E+02 -0.19926386535E+03  0.24374429476E+03  0.81392963458E+02 0.  0.
          6    2    1    2  501    0  0.57137324775E+02 -0.75229902996E+02  0.51499600636E+03  0.55230551303E+03  0.17577337958E+03 0.  0.
         24    2    5    5    0    0 -0.24416992130E+02 -0.12747244452E+02  0.13925428914E+03  0.16274278729E+03  0.79591306221E+02 0.  0.
          5    1    5    5  501    0  0.81554316904E+02 -0.62482658544E+02  0.37574171722E+03  0.38956272574E+03  0.47000000000E+01 0. -1.
        -11    1    6    6    0    0  0.23200636128E+02 -0.34961305146E+01  0.92286999243E+02  0.95222805434E+02  0.00000000000E+00 0.  1.
         12    1    6    6    0    0 -0.47617628257E+02 -0.92511139376E+01  0.46967289898E+02  0.67519981859E+02  0.00000000000E+00 0. -1.
         -5    1    3    3    0  503  0.29271549132E+02  0.30403829696E+00  0.76062580013E+01  0.30608188262E+02  0.47000000000E+01 0. -1.
         13    1    4    4    0    0 -0.10211529387E+03  0.69853968113E+02 -0.17926369814E+03  0.21781318503E+03  0.00000000000E+00 0. -1.
        -14    1    4    4    0    0  0.15706419962E+02  0.50718965862E+01 -0.20000167211E+02  0.25931109723E+02  0.00000000000E+00 0.  1.
</event>
<event>
12    1  0.8526130E-002  0.2004027E+03  0.7818608E-02  0.1150105E+00
         21   -1    0    0  501  502  0.00000000000E+00  0.00000000000E+00  0.16763890272E+03  0.16763890272E+03  0.00000000000E+00 0. -1.
         21   -1    0    0  502  503 -0.00000000000E+00 -0.00000000000E+00 -0.24390573284E+03  0.24390573284E+03  0.00000000000E+00 0.  1.
         -6    2    1    2    0  503 -0.86196152759E+02 -0.53937870032E+02 -0.50580809867E+00  0.20040329826E+03  0.17269092488E+03 0.  0.
        -24    2    3    3    0    0 -0.49556952829E+01 -0.81846646736E+02 -0.47131347528E+01  0.11427140320E+03  0.79450031174E+02 0.  0.
          6    2    1    2  501    0  0.86196152759E+02  0.53937870032E+02 -0.75761022017E+02  0.21114133730E+03  0.16882494273E+03 0.  0.
         24    2    5    5    0    0  0.67396981671E+02  0.93219710862E+02 -0.21280843874E+02  0.14123674759E+03  0.79137076781E+02 0.  0.
          5    1    5    5  501    0  0.18799171088E+02 -0.39281840830E+02 -0.54480178143E+02  0.69904589713E+02  0.47000000000E+01 0. -1.
        -11    1    6    6    0    0  0.54650916180E+02  0.18485430343E+02  0.11180687652E+02  0.58765989745E+02  0.00000000000E+00 0.  1.
         12    1    6    6    0    0  0.12746065491E+02  0.74734280519E+02 -0.32461531526E+02  0.82470757843E+02  0.00000000000E+00 0. -1.
         -5    1    3    3    0  503 -0.81240457476E+02  0.27908776703E+02  0.42073266542E+01  0.86131895054E+02  0.47000000000E+01 0.  1.
         13    1    4    4    0    0  0.35783995551E+02 -0.23582961145E+02 -0.52398047809E+01  0.43175293260E+02  0.00000000000E+00 0. -1.
        -14    1    4    4    0    0 -0.40739690834E+02 -0.58263685591E+02  0.52667002807E+00  0.71096109944E+02  0.00000000000E+00 0.  1.
</event>
<event>
12    1  0.8526130E-002  0.2798241E+03  0.7818608E-02  0.1095869E+00
         21   -1    0    0  503  502  0.00000000000E+00  0.00000000000E+00  0.19439239608E+03  0.19439239608E+03  0.00000000000E+00 0. -1.
         21   -1    0    0  501  503 -0.00000000000E+00 -0.00000000000E+00 -0.55544545599E+03  0.55544545599E+03  0.00000000000E+00 0.  1.
          6    2    1    2  501    0  0.21595636340E+03 -0.43506472054E+02 -0.37749151356E+03  0.46953133568E+03  0.17155135784E+03 0.  0.
         24    2    3    3    0    0  0.21542645798E+03 -0.75989837353E+02 -0.35446519474E+03  0.42943456301E+03  0.81150819108E+02 0.  0.
         -6    2    1    2    0  502 -0.21595636340E+03  0.43506472054E+02  0.16438453654E+02  0.28030651639E+03  0.17254436058E+03 0.  0.
        -24    2    5    5    0    0 -0.22412493694E+03  0.62482367781E+02  0.38359572720E+02  0.24981986893E+03  0.82477126816E+02 0.  0.
          5    1    3    3  501    0  0.52990542007E+00  0.32483365299E+02 -0.23026318811E+02  0.40096772674E+02  0.47000000000E+01 0. -1.
        -13    1    4    4    0    0  0.16291962021E+03 -0.67418244465E+02 -0.32198956271E+03  0.36710393737E+03  0.00000000000E+00 0.  1.
         14    1    4    4    0    0  0.52506837764E+02 -0.85715928874E+01 -0.32475632039E+02  0.62330625642E+02  0.00000000000E+00 0. -1.
         -5    1    5    5    0  502  0.81685735451E+01 -0.18975895727E+02 -0.21921119066E+02  0.30486647463E+02  0.47000000000E+01 0.  1.
         13    1    6    6    0    0 -0.47341777627E+02 -0.20309197613E+02  0.11363266564E+02  0.52752547271E+02  0.00000000000E+00 0. -1.
        -14    1    6    6    0    0 -0.17678315932E+03  0.82791565395E+02  0.26996306156E+02  0.19706732166E+03  0.00000000000E+00 0.  1.
</event>
<event>
12    1  0.8526130E-002  0.1759460E+03  0.7818608E-02  0.1171896E+00
         21   -1    0    0  503  502  0.00000000000E+00  0.00000000000E+00  0.31088061186E+03  0.31088061186E+03  0.00000000000E+00 0.  1.
         21   -1    0    0  501  503 -0.00000000000E+00 -0.00000000000E+00 -0.36758309902E+03  0.36758309902E+03  0.00000000000E+00 0.  1.
          6    2    1    2  501    0  0.36414083530E+02  0.14383254785E+02 -0.31815800638E+03  0.36356777319E+03  0.17153467632E+03 0.  0.
         24    2    3    3    0    0 -0.33868281076E+02 -0.29652534913E+02 -0.15452149315E+03  0.18005276015E+03  0.80720327693E+02 0.  0.
         -6    2    1    2    0  502 -0.36414083530E+02 -0.14383254785E+02  0.26145551922E+03  0.31489593769E+03  0.17107775877E+03 0.  0.
        -24    2    5    5    0    0  0.80401727479E+01 -0.58556508731E+02  0.97083477991E+02  0.13891947562E+03  0.79874338275E+02 0.  0.
          5    1    3    3  501    0  0.70282364606E+02  0.44035789698E+02 -0.16363651323E+03  0.18351501304E+03  0.47000000000E+01 0. -1.
        -13    1    4    4    0    0 -0.27814593939E+02 -0.16259070781E+02 -0.16085384463E+03  0.16404867677E+03  0.00000000000E+00 0.  1.
         14    1    4    4    0    0 -0.60536871363E+01 -0.13393464132E+02  0.63323514823E+01  0.16004083376E+02  0.00000000000E+00 0. -1.
         -5    1    5    5    0  502 -0.44454256278E+02  0.44173253947E+02  0.16437204123E+03  0.17597646207E+03  0.47000000000E+01 0.  1.
         13    1    6    6    0    0  0.42015151882E+01  0.78423856616E+00 -0.13064052859E+02  0.13745444231E+02  0.00000000000E+00 0. -1.
        -14    1    6    6    0    0  0.38386575596E+01 -0.59340747297E+02  0.11014753085E+03  0.12517403139E+03  0.00000000000E+00 0.  1.
</event>
<event>
12    1  0.8526130E-002  0.2209534E+03  0.7818608E-02  0.1133334E+00
         21   -1    0    0  503  502  0.00000000000E+00  0.00000000000E+00  0.73141609941E+02  0.73141609941E+02  0.00000000000E+00 0.  1.
         21   -1    0    0  501  503 -0.00000000000E+00 -0.00000000000E+00 -0.13844472439E+04  0.13844472439E+04  0.00000000000E+00 0.  1.
          6    2    1    2  501    0  0.13485306126E+03 -0.29961678267E+02 -0.11804532327E+04  0.12007956277E+04  0.17133958863E+03 0.  0.
         24    2    3    3    0    0  0.40523431831E+02  0.41456083126E+02 -0.63613966922E+03  0.64375171470E+03  0.79886394756E+02 0.  0.
         -6    2    1    2    0  502 -0.13485306126E+03  0.29961678267E+02 -0.13085240127E+03  0.25679322615E+03  0.17244523705E+03 0.  0.
        -24    2    5    5    0    0 -0.16005176329E+03  0.23720648483E+02 -0.13762732570E+03  0.22955511613E+03  0.87034673933E+02 0.  0.
          5    1    3    3  501    0  0.94329629433E+02 -0.71417761392E+02 -0.54431356346E+03  0.55704391299E+03  0.47000000000E+01 0. -1.
        -13    1    4    4    0    0  0.55941604301E+02  0.67398962583E+01 -0.28152708721E+03  0.28711041452E+03  0.00000000000E+00 0.  1.
         14    1    4    4    0    0 -0.15418172470E+02  0.34716186867E+02 -0.35461258202E+03  0.35664130019E+03  0.00000000000E+00 0. -1.
         -5    1    5    5    0  502  0.25198702023E+02  0.62410297839E+01  0.67749244261E+01  0.27238110018E+02  0.47000000000E+01 0.  1.
         13    1    6    6    0    0 -0.10279127745E+03  0.65000162275E+01 -0.13486637361E+03  0.16969748278E+03  0.00000000000E+00 0. -1.
        -14    1    6    6    0    0 -0.57260485839E+02  0.17220632255E+02 -0.27609520859E+01  0.59857633349E+02  0.00000000000E+00 0.  1.
</event>
<event>
12    1  0.8526130E-002  0.3841572E+03  0.7818608E-02  0.1049689E+00
         21   -1    0    0  503  502  0.00000000000E+00  0.00000000000E+00  0.90687760049E+03  0.90687760049E+03  0.00000000000E+00 0. -1.
         21   -1    0    0  501  503 -0.00000000000E+00 -0.00000000000E+00 -0.16604450410E+03  0.16604450410E+03  0.00000000000E+00 0. -1.
          6    2    1    2  501    0  0.16932037959E+03 -0.29560500185E+03  0.27957770683E+03  0.47264443923E+03  0.17081382765E+03 0.  0.
         24    2    3    3    0    0  0.19628859002E+03 -0.25735102467E+03  0.25418147936E+03  0.41918689053E+03  0.79691055140E+02 0.  0.
         -6    2    1    2    0  502 -0.16932037959E+03  0.29560500185E+03  0.46125538956E+03  0.60027766536E+03  0.17755290219E+03 0.  0.
        -24    2    5    5    0    0 -0.13660172987E+03  0.28077455649E+03  0.46221717501E+03  0.56403587760E+03  0.83650284912E+02 0.  0.
          5    1    3    3  501    0 -0.26968210428E+02 -0.38253977182E+02  0.25396227477E+02  0.53457548709E+02  0.47000000000E+01 0. -1.
        -11    1    4    4    0    0  0.12949078990E+02 -0.30488733582E+01  0.32812681920E+02  0.35406868970E+02  0.00000000000E+00 0.  1.
         12    1    4    4    0    0  0.18333951103E+03 -0.25430215131E+03  0.22136879744E+03  0.38378002156E+03  0.00000000000E+00 0. -1.
         -5    1    5    5    0  502 -0.32718649720E+02  0.14830445359E+02 -0.96178545591E+00  0.36241787764E+02  0.47000000000E+01 0.  1.
         11    1    6    6    0    0 -0.68457983506E+02  0.19351700762E+03  0.35406240198E+03  0.40926215588E+03  0.00000000000E+00 0. -1.
        -12    1    6    6    0    0 -0.68143746366E+02  0.87257548871E+02  0.10815477304E+03  0.15477372172E+03  0.00000000000E+00 0.  1.
</event>
<event>
12    1  0.8526130E-002  0.1919129E+03  0.7818608E-02  0.1156948E+00
         21   -1    0    0  503  502  0.00000000000E+00  0.00000000000E+00  0.10419421547E+04  0.10419421547E+04  0.00000000000E+00 0.  1.
         21   -1    0    0  501  503 -0.00000000000E+00 -0.00000000000E+00 -0.36024751982E+02  0.36024751982E+02  0.00000000000E+00 0.  1.
          6    2    1    2  501    0  0.48832796481E+02 -0.65365254192E+02  0.42168989453E+03  0.46330649927E+03  0.17370459595E+03 0.  0.
         24    2    3    3    0    0  0.16588214814E+02 -0.71008952726E+02  0.12502500076E+03  0.16480404773E+03  0.78814231560E+02 0.  0.
         -6    2    1    2    0  502 -0.48832796481E+02  0.65365254192E+02  0.58422750822E+03  0.61466040743E+03  0.17270893620E+03 0.  0.
        -24    2    5    5    0    0  0.31715216269E+02  0.65135461619E+02  0.34964782094E+03  0.36659236265E+03  0.82993242855E+02 0.  0.
          5    1    3    3  501    0  0.32244581667E+02  0.56436985340E+01  0.29666489377E+03  0.29850245154E+03  0.47000000000E+01 0. -1.
        -13    1    4    4    0    0 -0.11269417756E+02 -0.20875072839E+02 -0.35783831709E+01  0.23991108118E+02  0.00000000000E+00 0.  1.
         14    1    4    4    0    0  0.27857632570E+02 -0.50133879887E+02  0.12860338393E+03  0.14081293961E+03  0.00000000000E+00 0. -1.
         -5    1    5    5    0  502 -0.80548012750E+02  0.22979257364E+00  0.23457968727E+03  0.24806804479E+03  0.47000000000E+01 0.  1.
         11    1    6    6    0    0  0.28162285472E+02  0.84274756890E+02  0.25716467791E+03  0.27208274575E+03  0.00000000000E+00 0. -1.
        -12    1    6    6    0    0  0.35529307967E+01 -0.19139295271E+02  0.92483143036E+02  0.94509616899E+02  0.00000000000E+00 0.  1.
</event>
<event>
12    1  0.8526130E-002  0.1774282E+03  0.7818608E-02  0.1170631E+00
         21   -1    0    0  501  502  0.00000000000E+00  0.00000000000E+00  0.62914973563E+02  0.62914973563E+02  0.00000000000E+00 0.  1.
         21   -1    0    0  502  503 -0.00000000000E+00 -0.00000000000E+00 -0.88942069049E+03  0.88942069049E+03  0.00000000000E+00 0.  1.
         -6    2    1    2    0  503 -0.13608564761E+02  0.37596756190E+02 -0.72879533256E+03  0.74978175254E+03  0.17155561946E+03 0.  0.
        -24    2    3    3    0    0 -0.32321584035E+02  0.86863905486E+02 -0.52898042140E+03  0.54308023389E+03  0.80782617842E+02 0.  0.
          6    2    1    2  501    0  0.13608564761E+02 -0.37596756190E+02 -0.97710384369E+02  0.20255391152E+03  0.17286427840E+03 0.  0.
         24    2    5    5    0    0 -0.25101560056E+02  0.19936236803E+02 -0.38626541538E+01  0.85772040009E+02  0.79463078817E+02 0.  0.
          5    1    5    5  501    0  0.38710124816E+02 -0.57532992993E+02 -0.93847730215E+02  0.11678187151E+03  0.47000000000E+01 0. -1.
        -11    1    6    6    0    0 -0.19321920543E+02  0.16577564994E+01  0.36363436562E+02  0.41211458220E+02  0.00000000000E+00 0.  1.
         12    1    6    6    0    0 -0.57796395131E+01  0.18278480304E+02 -0.40226090715E+02  0.44560581789E+02  0.00000000000E+00 0. -1.
         -5    1    3    3    0  503  0.18713019274E+02 -0.49267149296E+02 -0.19981491115E+03  0.20670151864E+03  0.47000000000E+01 0.  1.
         11    1    4    4    0    0  0.61461708959E+01 -0.12141882432E+02 -0.30335148587E+02  0.33247886631E+02  0.00000000000E+00 0. -1.
        -12    1    4    4    0    0 -0.38467754930E+02  0.99005787919E+02 -0.49864527282E+03  0.50983234726E+03  0.00000000000E+00 0.  1.
</event>
<event>
12    1  0.8526130E-002  0.1974161E+03  0.7818608E-02  0.1151966E+00
         21   -1    0    0  501  502  0.00000000000E+00  0.00000000000E+00  0.70149740849E+03  0.70149740849E+03  0.00000000000E+00 0.  1.
         21   -1    0    0  502  503 -0.00000000000E+00 -0.00000000000E+00 -0.55525488990E+02  0.55525488990E+02  0.00000000000E+00 0. -1.
         -6    2    1    2    0  503 -0.92383678166E+02  0.28522080725E+02  0.32679470768E+03  0.38179563415E+03  0.17211877355E+03 0.  0.
        -24    2    3    3    0    0 -0.64331881133E+02  0.75001575655E+02  0.14332468188E+03  0.19040444539E+03  0.77123674118E+02 0.  0.
          6    2    1    2  501    0  0.92383678166E+02 -0.28522080725E+02  0.31917721182E+03  0.37522726333E+03  0.17196846664E+03 0.  0.
         24    2    5    5    0    0  0.95110587181E+02 -0.17939555672E+02  0.11539223172E+03  0.17109535993E+03  0.81181300787E+02 0.  0.
          5    1    5    5  501    0 -0.27269090149E+01 -0.10582525054E+02  0.20378498010E+03  0.20413190340E+03  0.47000000000E+01 0. -1.
        -11    1    6    6    0    0  0.32117291278E+02 -0.38041215291E+02  0.17117863576E+02  0.52646706576E+02  0.00000000000E+00 0.  1.
         12    1    6    6    0    0  0.62993295903E+02  0.20101659619E+02  0.98274368140E+02  0.11844865335E+03  0.00000000000E+00 0. -1.
         -5    1    3    3    0  503 -0.28051797033E+02 -0.46479494930E+02  0.18347002581E+03  0.19139118876E+03  0.47000000000E+01 0.  1.
         11    1    4    4    0    0 -0.74970807462E+02  0.32842519418E+02  0.95104492263E+02  0.12547556536E+03  0.00000000000E+00 0. -1.
        -12    1    4    4    0    0  0.10638926329E+02  0.42159056238E+02  0.48220189613E+02  0.64928880035E+02  0.00000000000E+00 0.  1.
</event>
<event>
12    1  0.8526130E-002  0.2157247E+03  0.7818608E-02  0.1137322E+00
         21   -1    0    0  501  502  0.00000000000E+00  0.00000000000E+00  0.41264261247E+03  0.41264261247E+03  0.00000000000E+00 0. -1.
         21   -1    0    0  502  503 -0.00000000000E+00 -0.00000000000E+00 -0.11812639503E+03  0.11812639503E+03  0.00000000000E+00 0. -1.
         -6    2    1    2    0  503  0.84803560929E+02  0.97973445714E+02  0.20703792838E+03  0.29900143349E+03  0.17247235555E+03 0.  0.
        -24    2    3    3    0    0  0.96355556622E+01  0.72504822978E+02  0.18822310860E+03  0.21730096101E+03  0.80261919723E+02 0.  0.
          6    2    1    2  501    0 -0.84803560929E+02 -0.97973445714E+02  0.87478289066E+02  0.23176757401E+03  0.17109446892E+03 0.  0.
         24    2    5    5    0    0  0.12690735590E+02 -0.74756423472E+02  0.69345150842E+02  0.12981136441E+03  0.79326305621E+02 0.  0.
          5    1    5    5  501    0 -0.97494296518E+02 -0.23217022242E+02  0.18133138224E+02  0.10195620961E+03  0.47000000000E+01 0. -1.
        -11    1    6    6    0    0  0.14357393774E+02 -0.87744573849E+02  0.39639279599E+02  0.97347406144E+02  0.00000000000E+00 0.  1.
         12    1    6    6    0    0 -0.16666581843E+01  0.12988150377E+02  0.29705871243E+02  0.32463958262E+02  0.00000000000E+00 0. -1.
         -5    1    3    3    0  503  0.75168005266E+02  0.25468622737E+02  0.18814819784E+02  0.81700472479E+02  0.47000000000E+01 0.  1.
         11    1    4    4    0    0  0.44160312332E+02  0.39461700269E+02  0.12222824073E+03  0.13582010825E+03  0.00000000000E+00 0. -1.
        -12    1    4    4    0    0 -0.34524756670E+02  0.33043122709E+02  0.65994867867E+02  0.81480852759E+02  0.00000000000E+00 0.  1.
</event>
<event>
12    1  0.8526130E-002  0.4314703E+03  0.7818608E-02  0.1033522E+00
         21   -1    0    0  501  502  0.00000000000E+00  0.00000000000E+00  0.74763764554E+03  0.74763764554E+03  0.00000000000E+00 0. -1.
         21   -1    0    0  502  503 -0.00000000000E+00 -0.00000000000E+00 -0.29709593335E+03  0.29709593335E+03  0.00000000000E+00 0.  1.
         -6    2    1    2    0  503 -0.29350473169E+03 -0.26482362823E+03  0.13461911806E+02  0.43168023857E+03  0.17288731506E+03 0.  0.
        -24    2    3    3    0    0 -0.27072004641E+03 -0.23657956308E+03  0.59655860628E+02  0.37274943162E+03  0.78256526080E+02 0.  0.
          6    2    1    2  501    0  0.29350473169E+03  0.26482362823E+03  0.43707980039E+03  0.61305334033E+03  0.16887588517E+03 0.  0.
         24    2    5    5    0    0  0.14801701873E+03  0.63528246956E+02  0.20918091609E+03  0.27593837981E+03  0.80252462893E+02 0.  0.
          5    1    5    5  501    0  0.14548771296E+03  0.20129538127E+03  0.22789888429E+03  0.33711496052E+03  0.47000000000E+01 0. -1.
        -13    1    6    6    0    0  0.47454020721E+02  0.30167687182E+02  0.21085424046E+02  0.60054712886E+02  0.00000000000E+00 0.  1.
         14    1    6    6    0    0  0.10056299800E+03  0.33360559774E+02  0.18809549205E+03  0.21588366692E+03  0.00000000000E+00 0. -1.
         -5    1    3    3    0  503 -0.22784685282E+02 -0.28244065145E+02 -0.46193948822E+02  0.58930806944E+02  0.47000000000E+01 0.  1.
         13    1    4    4    0    0 -0.13278517663E+03 -0.12224436475E+03  0.69288387064E+02  0.19332994705E+03  0.00000000000E+00 0. -1.
        -14    1    4    4    0    0 -0.13793486978E+03 -0.11433519833E+03 -0.96325264362E+01  0.17941948457E+03  0.00000000000E+00 0.  1.
</event>
<event>
12    1  0.8526130E-002  0.1780784E+03  0.7818608E-02  0.1170319E+00
         21   -1    0    0  503  502  0.00000000000E+00  0.00000000000E+00  0.19682179402E+03  0.19682179402E+03  0.00000000000E+00 0. -1.
         21   -1    0    0  501  503 -0.00000000000E+00 -0.00000000000E+00 -0.16372576851E+03  0.16372576851E+03  0.00000000000E+00 0.  1.
          6    2    1    2  501    0 -0.79170907834E+01 -0.43721103744E+02 -0.14679899536E+02  0.17868248467E+03  0.17244626884E+03 0.  0.
         24    2    3    3    0    0  0.40295815479E+02  0.24373595152E+02 -0.14193492563E+02  0.95113956263E+02  0.81408749893E+02 0.  0.
         -6    2    1    2    0  502  0.79170907834E+01  0.43721103744E+02  0.47775925044E+02  0.18186507786E+03  0.16975910077E+03 0.  0.
        -24    2    5    5    0    0 -0.96752299815E+01 -0.39611413516E+02  0.21488216679E+02  0.92607407078E+02  0.80322563665E+02 0.  0.
          5    1    3    3  501    0 -0.48212906263E+02 -0.68094698896E+02 -0.48640697297E+00  0.83568528405E+02  0.47000000000E+01 0. -1.
        -11    1    4    4    0    0 -0.19405020916E+02 -0.12572966539E+02  0.15073371576E+01  0.23171240572E+02  0.00000000000E+00 0.  1.
         12    1    4    4    0    0  0.59700836395E+02  0.36946561691E+02 -0.15700829720E+02  0.71942715691E+02  0.00000000000E+00 0. -1.
         -5    1    5    5    0  502  0.17592320765E+02  0.83332517260E+02  0.26287708365E+02  0.89257670785E+02  0.47000000000E+01 0.  1.
         11    1    6    6    0    0 -0.38523728366E+02 -0.15240147456E+02  0.33175853056E+02  0.53075201061E+02  0.00000000000E+00 0. -1.
        -12    1    6    6    0    0  0.28848498385E+02 -0.24371266060E+02 -0.11687636377E+02  0.39532206016E+02  0.00000000000E+00 0.  1.
</event>
<event>
12    1  0.8526130E-002  0.1827480E+03  0.7818608E-02  0.1165568E+00
         21   -1    0    0  503  502  0.00000000000E+00  0.00000000000E+00  0.12758422556E+04  0.12758422556E+04  0.00000000000E+00 0.  1.
         21   -1    0    0  501  503 -0.00000000000E+00 -0.00000000000E+00 -0.34591753760E+02  0.34591753760E+02  0.00000000000E+00 0.  1.
          6    2    1    2  501    0  0.42832381474E+02 -0.38022904471E+02  0.29076857787E+03  0.34254314933E+03  0.17178209776E+03 0.  0.
         24    2    3    3    0    0  0.54851001832E+02  0.76696047770E+01  0.79133573719E+02  0.12564751171E+03  0.80359936978E+02 0.  0.
         -6    2    1    2    0  502 -0.42832381474E+02  0.38022904471E+02  0.95048192395E+03  0.96789086001E+03  0.17354098927E+03 0.  0.
        -24    2    5    5    0    0  0.22030947413E+01  0.17763135223E+02  0.18368996193E+03  0.19949600358E+03  0.75738172208E+02 0.  0.
          5    1    3    3  501    0 -0.12018620359E+02 -0.45692509248E+02  0.21163500415E+03  0.21689563762E+03  0.47000000000E+01 0. -1.
        -11    1    4    4    0    0  0.29324654091E+02 -0.52235553780E+01 -0.10484164053E+02  0.31577500919E+02  0.00000000000E+00 0.  1.
         12    1    4    4    0    0  0.25526347741E+02  0.12893160155E+02  0.89617737772E+02  0.94070010796E+02  0.00000000000E+00 0. -1.
         -5    1    5    5    0  502 -0.45035476215E+02  0.20259769248E+02  0.76679196202E+03  0.76839485643E+03  0.47000000000E+01 0.  1.
         11    1    6    6    0    0 -0.12231299632E+02 -0.26382978919E+02  0.48501262822E+02  0.56551204785E+02  0.00000000000E+00 0. -1.
        -12    1    6    6    0    0  0.14434394373E+02  0.44146114142E+02  0.13518869911E+03  0.14294479879E+03  0.00000000000E+00 0.  1.
</event>
<event>
12    1  0.8526130E-002  0.2202549E+03  0.7818608E-02  0.1134219E+00
         21   -1    0    0  501  502  0.00000000000E+00  0.00000000000E+00  0.28594817916E+03  0.28594817916E+03  0.00000000000E+00 0. -1.
         21   -1    0    0  502  503 -0.00000000000E+00 -0.00000000000E+00 -0.30549764520E+03  0.30549764520E+03  0.00000000000E+00 0.  1.
         -6    2    1    2    0  503 -0.25961148213E+02 -0.13248111775E+03 -0.20849316325E+03  0.30125289733E+03  0.17046607067E+03 0.  0.
        -24    2    3    3    0    0 -0.43915365382E+02 -0.24711024367E+02 -0.12573701766E+03  0.16411276252E+03  0.92649917276E+02 0.  0.
          6    2    1    2  501    0  0.25961148213E+02  0.13248111775E+03  0.18894369721E+03  0.29019292704E+03  0.17403156728E+03 0.  0.
         24    2    5    5    0    0 -0.17598590422E+02  0.78229938357E+02  0.34769531046E+02  0.12098180208E+03  0.83654303567E+02 0.  0.
          5    1    5    5  501    0  0.43559738635E+02  0.54251179391E+02  0.15417416617E+03  0.16921112496E+03  0.47000000000E+01 0. -1.
        -11    1    6    6    0    0 -0.20450366192E+02  0.86105053724E+02  0.51412535585E+02  0.10235011758E+03  0.00000000000E+00 0.  1.
         12    1    6    6    0    0  0.28517757693E+01 -0.78751153672E+01 -0.16643004539E+02  0.18631684496E+02  0.00000000000E+00 0. -1.
         -5    1    3    3    0  503  0.17954217169E+02 -0.10777009338E+03 -0.82756145587E+02  0.13714013480E+03  0.47000000000E+01 0.  1.
         11    1    4    4    0    0  0.24738148953E+02 -0.23874626724E+01 -0.65615781361E+02  0.70164854131E+02  0.00000000000E+00 0. -1.
        -12    1    4    4    0    0 -0.68653514335E+02 -0.22323561695E+02 -0.60121236299E+02  0.93947908393E+02  0.00000000000E+00 0.  1.
</event>
<event>
12    1  0.8526130E-002  0.1797628E+03  0.7818608E-02  0.1168095E+00
         21   -1    0    0  503  502  0.00000000000E+00  0.00000000000E+00  0.38458351507E+02  0.38458351507E+02  0.00000000000E+00 0.  1.
         21   -1    0    0  501  503 -0.00000000000E+00 -0.00000000000E+00 -0.95729523062E+03  0.95729523062E+03  0.00000000000E+00 0. -1.
          6    2    1    2  501    0 -0.19370798652E+02  0.46291550342E+02 -0.63410579639E+03  0.65902451256E+03  0.17235141908E+03 0.  0.
         24    2    3    3    0    0  0.47778879000E+02 -0.56398996086E+01 -0.27299126925E+03  0.28803698391E+03  0.78271586569E+02 0.  0.
         -6    2    1    2    0  502  0.19370798652E+02 -0.46291550342E+02 -0.28473108271E+03  0.33672906956E+03  0.17261674702E+03 0.  0.
        -24    2    5    5    0    0  0.36651606080E+02  0.18617427021E+02 -0.23959990616E+03  0.25566912419E+03  0.79174725841E+02 0.  0.
          5    1    3    3  501    0 -0.67149677652E+02  0.51931449950E+02 -0.36111452714E+03  0.37098752865E+03  0.47000000000E+01 0. -1.
        -11    1    4    4    0    0 -0.20309241158E+02  0.42630243156E+01 -0.39502795801E+02  0.44621850352E+02  0.00000000000E+00 0.  1.
         12    1    4    4    0    0  0.68088120158E+02 -0.99029239242E+01 -0.23348847345E+03  0.24341513356E+03  0.00000000000E+00 0. -1.
         -5    1    5    5    0  502 -0.17280807429E+02 -0.64908977363E+02 -0.45131176550E+02  0.81059945376E+02  0.47000000000E+01 0.  1.
         13    1    6    6    0    0 -0.20955471659E+02 -0.10985195582E+02 -0.50085476455E+02  0.55392790742E+02  0.00000000000E+00 0. -1.
        -14    1    6    6    0    0  0.57607077739E+02  0.29602622603E+02 -0.18951442971E+03  0.20027633345E+03  0.00000000000E+00 0.  1.
</event>
<event>
12    1  0.8526130E-002  0.1762789E+03  0.7818608E-02  0.1172051E+00
         21   -1    0    0  503  502  0.00000000000E+00  0.00000000000E+00  0.28623894483E+03  0.28623894483E+03  0.00000000000E+00 0.  1.
         21   -1    0    0  501  503 -0.00000000000E+00 -0.00000000000E+00 -0.26875501044E+03  0.26875501044E+03  0.00000000000E+00 0.  1.
          6    2    1    2  501    0 -0.28637762107E+02  0.28888439246E+02 -0.20645010280E+03  0.27146990042E+03  0.17152142300E+03 0.  0.
         24    2    3    3    0    0  0.26672945015E+02  0.65784354488E+02 -0.78568076625E+02  0.12726003425E+03  0.70591404301E+02 0.  0.
         -6    2    1    2    0  502  0.28637762107E+02 -0.28888439246E+02  0.22393403718E+03  0.28352405485E+03  0.16907032066E+03 0.  0.
        -24    2    5    5    0    0 -0.39611665773E+01 -0.80656560928E+02  0.14755638541E+03  0.18555332318E+03  0.78332478615E+02 0.  0.
          5    1    3    3  501    0 -0.55310707122E+02 -0.36895915242E+02 -0.12788202617E+03  0.14420986617E+03  0.47000000000E+01 0. -1.
        -11    1    4    4    0    0  0.13807008900E+02  0.18101032703E+02 -0.74274535394E+02  0.77685181905E+02  0.00000000000E+00 0.  1.
         12    1    4    4    0    0  0.12865936115E+02  0.47683321784E+02 -0.42935412310E+01  0.49574852343E+02  0.00000000000E+00 0. -1.
         -5    1    5    5    0  502  0.32598928684E+02  0.51768121683E+02  0.76377651771E+02  0.97970731670E+02  0.47000000000E+01 0.  1.
         11    1    6    6    0    0  0.69921399492E+00 -0.42329597924E+02  0.11137221635E+02  0.43775809145E+02  0.00000000000E+00 0. -1.
        -12    1    6    6    0    0 -0.46603805722E+01 -0.38326963005E+02  0.13641916378E+03  0.14177751403E+03  0.00000000000E+00 0.  1.
</event>
<event>
12    1  0.8526130E-002  0.3037623E+03  0.7818608E-02  0.1083396E+00
         21   -1    0    0  501  502  0.00000000000E+00  0.00000000000E+00  0.51792948429E+03  0.51792948429E+03  0.00000000000E+00 0.  1.
         21   -1    0    0  502  503 -0.00000000000E+00 -0.00000000000E+00 -0.18976739409E+03  0.18976739409E+03  0.00000000000E+00 0.  1.
         -6    2    1    2    0  503 -0.56771669935E+02  0.24378888630E+03  0.76122662162E+02  0.31298759405E+03  0.17178629382E+03 0.  0.
        -24    2    3    3    0    0 -0.15481846118E+02  0.50204202872E+02  0.64397783654E+02  0.11464586373E+03  0.78971197196E+02 0.  0.
          6    2    1    2  501    0  0.56771669935E+02 -0.24378888630E+03  0.25203942804E+03  0.39470928434E+03  0.17209155198E+03 0.  0.
         24    2    5    5    0    0  0.15489359217E+02 -0.22893534567E+03  0.15586917783E+03  0.28889972015E+03  0.80725057818E+02 0.  0.
          5    1    5    5  501    0  0.41282310718E+02 -0.14853540630E+02  0.96170250211E+02  0.10580956419E+03  0.47000000000E+01 0. -1.
        -13    1    6    6    0    0  0.40146123322E+02 -0.19645398026E+03  0.11493398850E+03  0.23111836641E+03  0.00000000000E+00 0.  1.
         14    1    6    6    0    0 -0.24656764105E+02 -0.32481365408E+02  0.40935189327E+02  0.57781353741E+02  0.00000000000E+00 0. -1.
         -5    1    3    3    0  503 -0.41289823817E+02  0.19358468343E+03  0.11724878508E+02  0.19834173032E+03  0.47000000000E+01 0.  1.
         11    1    4    4    0    0  0.30341163047E+02  0.24377416747E+02  0.42614976101E+02  0.57713783539E+02  0.00000000000E+00 0. -1.
        -12    1    4    4    0    0 -0.45823009165E+02  0.25826786124E+02  0.21782807552E+02  0.56932080195E+02  0.00000000000E+00 0.  1.
</event>
<event>
12    1  0.8526130E-002  0.1799984E+03  0.7818608E-02  0.1168752E+00
         21   -1    0    0  503  502  0.00000000000E+00  0.00000000000E+00  0.94256206125E+02  0.94256206125E+02  0.00000000000E+00 0. -1.
         21   -1    0    0  501  503 -0.00000000000E+00 -0.00000000000E+00 -0.34846613926E+03  0.34846613926E+03  0.00000000000E+00 0. -1.
          6    2    1    2  501    0 -0.19165700815E+02  0.37734541294E+02 -0.87226140082E+02  0.20001958701E+03  0.17495203909E+03 0.  0.
         24    2    3    3    0    0  0.15920197030E+02 -0.14994952873E+02 -0.10424374315E+03  0.13426923647E+03  0.81750648863E+02 0.  0.
         -6    2    1    2    0  502  0.19165700815E+02 -0.37734541294E+02 -0.16698379305E+03  0.24270275837E+03  0.17096731291E+03 0.  0.
        -24    2    5    5    0    0  0.13562803828E+02 -0.84457989015E+02 -0.14990838570E+03  0.19242221981E+03  0.85068707639E+02 0.  0.
          5    1    3    3  501    0 -0.35085897845E+02  0.52729494167E+02  0.17017603071E+02  0.65750350547E+02  0.47000000000E+01 0. -1.
        -13    1    4    4    0    0 -0.25601792628E+01 -0.46748530922E+01 -0.11170042282E+03  0.11182751552E+03  0.00000000000E+00 0.  1.
         14    1    4    4    0    0  0.18480376293E+02 -0.10320099781E+02  0.74566796657E+01  0.22441720947E+02  0.00000000000E+00 0. -1.
         -5    1    5    5    0  502  0.56028969874E+01  0.46723447721E+02 -0.17075407356E+02  0.50280538561E+02  0.47000000000E+01 0.  1.
         13    1    6    6    0    0  0.32138690824E+02 -0.10311667553E+02 -0.14097380010E+02  0.36578163687E+02  0.00000000000E+00 0. -1.
        -14    1    6    6    0    0 -0.18575886996E+02 -0.74146321462E+02 -0.13581100569E+03  0.15584405613E+03  0.00000000000E+00 0.  1.
</event>
<event>
12    1  0.8526130E-002  0.1954787E+03  0.7818608E-02  0.1153722E+00
         21   -1    0    0  501  502  0.00000000000E+00  0.00000000000E+00  0.67793617891E+02  0.67793617891E+02  0.00000000000E+00 0.  1.
         21   -1    0    0  502  503 -0.00000000000E+00 -0.00000000000E+00 -0.12606646380E+04  0.12606646380E+04  0.00000000000E+00 0. -1.
         -6    2    1    2    0  503 -0.90453001744E+02 -0.15777508526E+02 -0.10912025649E+04  0.11085733937E+04  0.17257246701E+03 0.  0.
        -24    2    3    3    0    0 -0.90965099199E+02  0.13613176145E+02 -0.10533514291E+04  0.10604187151E+04  0.80490064008E+02 0.  0.
          6    2    1    2  501    0  0.90453001744E+02  0.15777508526E+02 -0.10166845519E+03  0.21988486213E+03  0.17199477467E+03 0.  0.
         24    2    5    5    0    0  0.42465743563E+02 -0.40342740012E+02 -0.51027415689E+01  0.98232544886E+02  0.78693829842E+02 0.  0.
          5    1    5    5  501    0  0.47987258181E+02  0.56120248539E+02 -0.96565713621E+02  0.12165231724E+03  0.47000000000E+01 0. -1.
        -11    1    6    6    0    0  0.94214552412E+01 -0.35946803557E+02 -0.36752597858E+02  0.52265571403E+02  0.00000000000E+00 0.  1.
         12    1    6    6    0    0  0.33044288322E+02 -0.43959364550E+01  0.31649856289E+02  0.45966973482E+02  0.00000000000E+00 0. -1.
         -5    1    3    3    0  503  0.51209745485E+00 -0.29390684672E+02 -0.37851135786E+02  0.48154678584E+02  0.47000000000E+01 0.  1.
         13    1    4    4    0    0 -0.74121921305E+02  0.30716471576E+02 -0.48751231764E+03  0.49407066367E+03  0.00000000000E+00 0. -1.
        -14    1    4    4    0    0 -0.16843177894E+02 -0.17103295430E+02 -0.56583911145E+03  0.56634805147E+03  0.00000000000E+00 0.  1.
</event>
<event>
12    1  0.8526130E-002  0.1829164E+03  0.7818608E-02  0.1165621E+00
         21   -1    0    0  503  502  0.00000000000E+00  0.00000000000E+00  0.31009813643E+03  0.31009813643E+03  0.00000000000E+00 0. -1.
         21   -1    0    0  501  503 -0.00000000000E+00 -0.00000000000E+00 -0.11106000981E+03  0.11106000981E+03  0.00000000000E+00 0. -1.
          6    2    1    2  501    0 -0.58104662000E+02 -0.15097044588E+02  0.57021106720E+02  0.19159803986E+03  0.17278405530E+03 0.  0.
         24    2    3    3    0    0 -0.10429472120E+03 -0.50628945446E+01  0.23447910923E+02  0.13343056431E+03  0.79692466358E+02 0.  0.
         -6    2    1    2    0  502  0.58104662000E+02  0.15097044588E+02  0.14201701989E+03  0.22956010637E+03  0.17007332535E+03 0.  0.
        -24    2    5    5    0    0  0.50339682442E+02  0.68679680341E+02  0.77837917045E+02  0.14546230019E+03  0.88597727553E+02 0.  0.
          5    1    3    3  501    0  0.46190059201E+02 -0.10034150044E+02  0.33573195797E+02  0.58167475552E+02  0.47000000000E+01 0. -1.
        -13    1    4    4    0    0 -0.34790058676E+02  0.13551738929E+02  0.44853872044E+02  0.58359811926E+02  0.00000000000E+00 0.  1.
         14    1    4    4    0    0 -0.69504662525E+02 -0.18614633474E+02 -0.21405961122E+02  0.75070752385E+02  0.00000000000E+00 0. -1.
         -5    1    5    5    0  502  0.77649795583E+01 -0.53582635753E+02  0.64179102849E+02  0.84097806180E+02  0.47000000000E+01 0.  1.
         13    1    6    6    0    0  0.39408884724E+02 -0.10837555756E+02  0.38196596317E+02  0.55941869652E+02  0.00000000000E+00 0. -1.
        -14    1    6    6    0    0  0.10930797718E+02  0.79517236097E+02  0.39641320728E+02  0.89520430541E+02  0.00000000000E+00 0.  1.
</event>
<event>
12    1  0.8526130E-002  0.2272209E+03  0.7818608E-02  0.1128890E+00
         21   -1    0    0  503  502  0.00000000000E+00  0.00000000000E+00  0.84768747492E+02  0.84768747492E+02  0.00000000000E+00 0.  1.
         21   -1    0    0  501  503 -0.00000000000E+00 -0.00000000000E+00 -0.61635353159E+03  0.61635353159E+03  0.00000000000E+00 0.  1.
          6    2    1    2  501    0 -0.11134557754E+02 -0.14702068268E+03 -0.21889493778E+03  0.31550645221E+03  0.17288802182E+03 0.  0.
         24    2    3    3    0    0 -0.52084916671E+02 -0.15208350976E+03 -0.16900979246E+03  0.25059742482E+03  0.91610735686E+02 0.  0.
         -6    2    1    2    0  502  0.11134557754E+02  0.14702068268E+03 -0.31268984633E+03  0.38561582688E+03  0.17083783665E+03 0.  0.
        -24    2    5    5    0    0 -0.14404119527E+02  0.50879589635E+01 -0.12432064666E+03  0.14833504915E+03  0.79462554910E+02 0.  0.
          5    1    3    3  501    0  0.40950358917E+02  0.50628270752E+01 -0.49885145316E+02  0.64909027390E+02  0.47000000000E+01 0. -1.
        -11    1    4    4    0    0  0.91403702621E+01 -0.78189620241E+02 -0.35947375537E+02  0.86541186090E+02  0.00000000000E+00 0.  1.
         12    1    4    4    0    0 -0.61225286933E+02 -0.73893889517E+02 -0.13306241692E+03  0.16405623873E+03  0.00000000000E+00 0. -1.
         -5    1    5    5    0  502  0.25538677280E+02  0.14193272372E+03 -0.18836919966E+03  0.23728077773E+03  0.47000000000E+01 0.  1.
         11    1    6    6    0    0 -0.17930619545E+02 -0.97909542764E+00 -0.13465290087E+03  0.13584501999E+03  0.00000000000E+00 0. -1.
        -12    1    6    6    0    0  0.35265000184E+01  0.60670543911E+01  0.10332254203E+02  0.12490029154E+02  0.00000000000E+00 0.  1.
</event>
<event>
12    1  0.8526130E-002  0.2271282E+03  0.7818608E-02  0.1128698E+00
         21   -1    0    0  501  502  0.00000000000E+00  0.00000000000E+00  0.86707877683E+02  0.86707877683E+02  0.00000000000E+00 0.  1.
         21   -1    0    0  502  503 -0.00000000000E+00 -0.00000000000E+00 -0.71603143148E+03  0.71603143148E+03  0.00000000000E+00 0.  1.
         -6    2    1    2    0  503  0.87886218181E+01 -0.14726559017E+03 -0.47984924473E+03  0.53083898781E+03  0.17254083398E+03 0.  0.
        -24    2    3    3    0    0 -0.43802711385E+02 -0.87625172233E+02 -0.39432270372E+03  0.41396423862E+03  0.79241074312E+02 0.  0.
          6    2    1    2  501    0 -0.87886218181E+01  0.14726559017E+03 -0.14947430907E+03  0.27190032136E+03  0.17269285381E+03 0.  0.
         24    2    5    5    0    0 -0.32354702398E+02  0.15281503795E+03 -0.68363576316E+02  0.18712298068E+03  0.77085463857E+02 0.  0.
          5    1    5    5  501    0  0.23566080580E+02 -0.55494477799E+01 -0.81110732758E+02  0.84777340682E+02  0.47000000000E+01 0. -1.
        -13    1    6    6    0    0 -0.40170382746E+02  0.13871155560E+03 -0.81945236244E+02  0.16604088970E+03  0.00000000000E+00 0.  1.
         14    1    6    6    0    0  0.78156803484E+01  0.14103482350E+02  0.13581659927E+02  0.21082090980E+02  0.00000000000E+00 0. -1.
         -5    1    3    3    0  503  0.52591333203E+02 -0.59640417941E+02 -0.85526541009E+02  0.11687474919E+03  0.47000000000E+01 0.  1.
         11    1    4    4    0    0 -0.39607969054E+02 -0.30533610683E+02 -0.79085192872E+02  0.93571151139E+02  0.00000000000E+00 0. -1.
        -12    1    4    4    0    0 -0.41947423313E+01 -0.57091561550E+02 -0.31523751084E+03  0.32039308748E+03  0.00000000000E+00 0.  1.
</event>
<event>
12    1  0.8526130E-002  0.1896597E+03  0.7818608E-02  0.1158879E+00
         21   -1    0    0  501  502  0.00000000000E+00  0.00000000000E+00  0.10488498051E+03  0.10488498051E+03  0.00000000000E+00 0.  1.
         21   -1    0    0  502  503 -0.00000000000E+00 -0.00000000000E+00 -0.75598225691E+03  0.75598225691E+03  0.00000000000E+00 0.  1.
         -6    2    1    2    0  503 -0.34133047032E+02 -0.71241362581E+02 -0.64385428600E+03  0.67106927534E+03  0.17188727139E+03 0.  0.
        -24    2    3    3    0    0  0.42813840938E+01 -0.46708714888E+02 -0.60232583497E+03  0.60922898454E+03  0.78508024029E+02 0.  0.
          6    2    1    2  501    0  0.34133047032E+02  0.71241362581E+02 -0.72429904095E+01  0.18979796208E+03  0.17242508187E+03 0.  0.
         24    2    5    5    0    0  0.66889671817E+02  0.93120165144E+02  0.22750124372E+02  0.14006512179E+03  0.77169144293E+02 0.  0.
          5    1    5    5  501    0 -0.32756624785E+02 -0.21878802563E+02 -0.29993114781E+02  0.49732840288E+02  0.47000000000E+01 0. -1.
        -11    1    6    6    0    0  0.13791459828E+02  0.87085100108E+01  0.35945022069E+02  0.39472612307E+02  0.00000000000E+00 0.  1.
         12    1    6    6    0    0  0.53098211989E+02  0.84411655133E+02 -0.13194897698E+02  0.10059250948E+03  0.00000000000E+00 0. -1.
         -5    1    3    3    0  503 -0.38414431126E+02 -0.24532647692E+02 -0.41528451034E+02  0.61840290805E+02  0.47000000000E+01 0.  1.
         13    1    4    4    0    0  0.33533976530E+02 -0.25417061333E+02 -0.16049577837E+03  0.16592000923E+03  0.00000000000E+00 0. -1.
        -14    1    4    4    0    0 -0.29252592437E+02 -0.21291653556E+02 -0.44183005660E+03  0.44330897531E+03  0.00000000000E+00 0.  1.
</event>
<event>
12    1  0.8526130E-002  0.1826532E+03  0.7818608E-02  0.1165649E+00
         21   -1    0    0  503  502  0.00000000000E+00  0.00000000000E+00  0.78390500385E+02  0.78390500385E+02  0.00000000000E+00 0.  1.
         21   -1    0    0  501  503 -0.00000000000E+00 -0.00000000000E+00 -0.43775371481E+03  0.43775371481E+03  0.00000000000E+00 0.  1.
          6    2    1    2  501    0  0.28238473560E+02  0.45586413322E+02 -0.22973579003E+03  0.29349740924E+03  0.17460430561E+03 0.  0.
         24    2    3    3    0    0  0.62817539164E+02 -0.13513013011E+02 -0.83487091319E+02  0.13194486099E+03  0.79439959571E+02 0.  0.
         -6    2    1    2    0  502 -0.28238473560E+02 -0.45586413322E+02 -0.12962742439E+03  0.22264680596E+03  0.17289533996E+03 0.  0.
        -24    2    5    5    0    0 -0.29087557275E+02 -0.77268034821E+02 -0.30515167509E+02  0.11848455009E+03  0.79315685508E+02 0.  0.
          5    1    3    3  501    0 -0.34579065604E+02  0.59099426333E+02 -0.14624869871E+03  0.16155254825E+03  0.47000000000E+01 0. -1.
        -13    1    4    4    0    0  0.43132134289E+02  0.67869744649E+01  0.14345386093E+00  0.43663080626E+02  0.00000000000E+00 0.  1.
         14    1    4    4    0    0  0.19685404875E+02 -0.20299987476E+02 -0.83630545180E+02  0.88281780361E+02  0.00000000000E+00 0. -1.
         -5    1    5    5    0  502  0.84908371495E+00  0.31681621499E+02 -0.99112256882E+02  0.10416225587E+03  0.47000000000E+01 0.  1.
         13    1    6    6    0    0 -0.12050287764E+02  0.44383618343E+01 -0.32554585398E+02  0.34995850059E+02  0.00000000000E+00 0. -1.
        -14    1    6    6    0    0 -0.17037269511E+02 -0.81706396655E+02  0.20394178885E+01  0.83488700026E+02  0.00000000000E+00 0.  1.
</event>
<event>
12    1  0.8526130E-002  0.1815926E+03  0.7818608E-02  0.1166670E+00
         21   -1    0    0  503  502  0.00000000000E+00  0.00000000000E+00  0.21608548598E+03  0.21608548598E+03  0.00000000000E+00 0.  1.
         21   -1    0    0  501  503 -0.00000000000E+00 -0.00000000000E+00 -0.21910451828E+03  0.21910451828E+03  0.00000000000E+00 0.  1.
          6    2    1    2  501    0  0.38401051534E+02 -0.43706301523E+02 -0.12262786644E+03  0.21774543355E+03  0.17026625812E+03 0.  0.
         24    2    3    3    0    0  0.33972973151E+02 -0.90598394208E+01 -0.14981574079E+03  0.17323413470E+03  0.79555424972E+02 0.  0.
         -6    2    1    2    0  502 -0.38401051534E+02  0.43706301523E+02  0.11960883414E+03  0.21744457070E+03  0.17202030860E+03 0.  0.
        -24    2    5    5    0    0  0.51601948525E+01  0.72729882630E+02  0.12421737801E+03  0.16468777850E+03  0.79848881946E+02 0.  0.
          5    1    3    3  501    0  0.44280783833E+01 -0.34646462103E+02  0.27187874346E+02  0.44511298856E+02  0.47000000000E+01 0. -1.
        -13    1    4    4    0    0  0.50045370842E+02 -0.28572928172E+02 -0.77151775672E+02  0.96298223537E+02  0.00000000000E+00 0.  1.
         14    1    4    4    0    0 -0.16072397691E+02  0.19513088751E+02 -0.72663965113E+02  0.76935911161E+02  0.00000000000E+00 0. -1.
         -5    1    5    5    0  502 -0.43561246387E+02 -0.29023581107E+02 -0.46085438683E+01  0.52756792204E+02  0.47000000000E+01 0.  1.
         11    1    6    6    0    0  0.15773268905E+02 -0.13512429852E+02  0.30344008529E+02  0.36771464835E+02  0.00000000000E+00 0. -1.
        -12    1    6    6    0    0 -0.10613074053E+02  0.86242312482E+02  0.93873369483E+02  0.12791631366E+03  0.00000000000E+00 0.  1.
</event>
<event>
12    1  0.8526130E-002  0.1844986E+03  0.7818608E-02  0.1163754E+00
         21   -1    0    0  501  502  0.00000000000E+00  0.00000000000E+00  0.67688963510E+03  0.67688963510E+03  0.00000000000E+00 0. -1.
         21   -1    0    0  502  503 -0.00000000000E+00 -0.00000000000E+00 -0.50744912950E+02  0.50744912950E+02  0.00000000000E+00 0.  1.
         -6    2    1    2    0  503  0.43097161429E+02  0.50772068411E+02  0.27030511204E+03  0.32726838358E+03  0.17205979497E+03 0.  0.
        -24    2    3    3    0    0 -0.10703541900E+02  0.14732538744E+02  0.23703660967E+03  0.25431465422E+03  0.90321511954E+02 0.  0.
          6    2    1    2  501    0 -0.43097161429E+02 -0.50772068411E+02  0.35583961012E+03  0.40036616447E+03  0.17098558206E+03 0.  0.
         24    2    5    5    0    0  0.35465875342E+02  0.14435032473E+00  0.19203858769E+03  0.21164017954E+03  0.81577553776E+02 0.  0.
          5    1    5    5  501    0 -0.78563036770E+02 -0.50916418736E+02  0.16380102242E+03  0.18872598493E+03  0.47000000000E+01 0. -1.
        -13    1    6    6    0    0  0.33551398641E+02 -0.32205888300E+02  0.61302499161E+02  0.76947462566E+02  0.00000000000E+00 0.  1.
         14    1    6    6    0    0  0.19144767009E+01  0.32350238624E+02  0.13073608853E+03  0.13469271697E+03  0.00000000000E+00 0. -1.
         -5    1    3    3    0  503  0.53800703329E+02  0.36039529668E+02  0.33268502368E+02  0.72953729357E+02  0.47000000000E+01 0.  1.
         13    1    4    4    0    0  0.16595203669E+02  0.40519474254E+02  0.18519624560E+03  0.19030207031E+03  0.00000000000E+00 0. -1.
        -14    1    4    4    0    0 -0.27298745569E+02 -0.25786935511E+02  0.51840364067E+02  0.64012583913E+02  0.00000000000E+00 0.  1.
</event>
<event>
12    1  0.8526130E-002  0.2366776E+03  0.7818608E-02  0.1122081E+00
         21   -1    0    0  503  502  0.00000000000E+00  0.00000000000E+00  0.36386962700E+03  0.36386962700E+03  0.00000000000E+00 0.  1.
         21   -1    0    0  501  503 -0.00000000000E+00 -0.00000000000E+00 -0.79154185850E+03  0.79154185850E+03  0.00000000000E+00 0. -1.
          6    2    1    2  501    0 -0.11084335154E+03 -0.11933883474E+03 -0.73244271155E+03  0.76973281644E+03  0.17172150982E+03 0.  0.
         24    2    3    3    0    0 -0.12220136780E+03 -0.67537352721E+02 -0.66117272299E+03  0.68077271671E+03  0.82508507997E+02 0.  0.
         -6    2    1    2    0  502  0.11084335154E+03  0.11933883474E+03  0.30477048006E+03  0.38567866906E+03  0.17127458714E+03 0.  0.
        -24    2    5    5    0    0  0.12533692055E+03  0.39678156104E+02  0.19818058530E+03  0.25174068742E+03  0.82547741269E+02 0.  0.
          5    1    3    3  501    0  0.11358016266E+02 -0.51801482019E+02 -0.71269988564E+02  0.88960099724E+02  0.47000000000E+01 0. -1.
        -11    1    4    4    0    0 -0.19841313490E+02 -0.11600438181E+01 -0.27659760415E+03  0.27731076078E+03  0.00000000000E+00 0.  1.
         12    1    4    4    0    0 -0.10236005431E+03 -0.66377308903E+02 -0.38457511883E+03  0.40346195593E+03  0.00000000000E+00 0. -1.
         -5    1    5    5    0  502 -0.14493569009E+02  0.79660678636E+02  0.10658989475E+03  0.13393798164E+03  0.47000000000E+01 0.  1.
         11    1    6    6    0    0  0.33096968936E+02  0.34798222030E+02  0.22019221486E+02  0.52831540996E+02  0.00000000000E+00 0. -1.
        -12    1    6    6    0    0  0.92239951611E+02  0.48799340741E+01  0.17616136382E+03  0.19890914643E+03  0.00000000000E+00 0.  1.
</event>
<event>
12    1  0.8526130E-002  0.2365683E+03  0.7818608E-02  0.1123208E+00
         21   -1    0    0  501  502  0.00000000000E+00  0.00000000000E+00  0.30771642744E+03  0.30771642744E+03  0.00000000000E+00 0.  1.
         21   -1    0    0  502  503 -0.00000000000E+00 -0.00000000000E+00 -0.18559450535E+03  0.18559450535E+03  0.00000000000E+00 0.  1.
         -6    2    1    2    0  503  0.40294963013E+02 -0.14554196414E+03  0.11346357693E+03  0.25658420285E+03  0.17365287930E+03 0.  0.
        -24    2    3    3    0    0 -0.16894364779E+02 -0.26161058930E+02  0.56490402860E+01  0.85796369393E+02  0.79745123859E+02 0.  0.
          6    2    1    2  501    0 -0.40294963013E+02  0.14554196414E+03  0.86583451553E+01  0.23672672994E+03  0.18209456432E+03 0.  0.
         24    2    5    5    0    0  0.24228853657E+02  0.15109564503E+03  0.58791688371E+01  0.17173457572E+03  0.77725597928E+02 0.  0.
          5    1    5    5  501    0 -0.64523816670E+02 -0.55536808878E+01  0.27791763182E+01  0.64992154219E+02  0.47000000000E+01 0. -1.
        -11    1    6    6    0    0 -0.22351909455E+02  0.40524302331E+02 -0.17532132202E+02  0.49489419023E+02  0.00000000000E+00 0.  1.
         12    1    6    6    0    0  0.46580763112E+02  0.11057134270E+03  0.23411301039E+02  0.12224515669E+03  0.00000000000E+00 0. -1.
         -5    1    3    3    0  503  0.57189327792E+02 -0.11938090521E+03  0.10781453665E+03  0.17078783345E+03  0.47000000000E+01 0.  1.
         13    1    4    4    0    0 -0.25042119310E+02 -0.28580481507E+02  0.37166164809E+02  0.53153320398E+02  0.00000000000E+00 0. -1.
        -14    1    4    4    0    0  0.81477545311E+01  0.24194225764E+01 -0.31517124523E+02  0.32643048995E+02  0.00000000000E+00 0.  1.
</event>
<event>
12    1  0.8526130E-002  0.1917010E+03  0.7818608E-02  0.1156941E+00
         21   -1    0    0  503  502  0.00000000000E+00  0.00000000000E+00  0.89957210929E+02  0.89957210929E+02  0.00000000000E+00 0. -1.
         21   -1    0    0  501  503 -0.00000000000E+00 -0.00000000000E+00 -0.70986355361E+03  0.70986355361E+03  0.00000000000E+00 0. -1.
          6    2    1    2  501    0  0.15093945727E+02  0.83674322502E+02 -0.57054543410E+03  0.60188984085E+03  0.17181405272E+03 0.  0.
         24    2    3    3    0    0  0.69117487303E+01 -0.28897384607E+01 -0.43122613147E+03  0.43759667885E+03  0.74018605874E+02 0.  0.
         -6    2    1    2    0  502 -0.15093945727E+02 -0.83674322502E+02 -0.49360908580E+02  0.19793092368E+03  0.17178746115E+03 0.  0.
        -24    2    5    5    0    0  0.63846419035E+01 -0.78557747596E+01 -0.79665336676E+02  0.11337188945E+03  0.80025887058E+02 0.  0.
          5    1    3    3  501    0  0.81821969970E+01  0.86564060963E+02 -0.13931930262E+03  0.16429316200E+03  0.47000000000E+01 0. -1.
        -11    1    4    4    0    0 -0.33337828282E+01 -0.37356957180E+02 -0.25458811066E+03  0.25733589420E+03  0.00000000000E+00 0.  1.
         12    1    4    4    0    0  0.10245531558E+02  0.34467218719E+02 -0.17663802082E+03  0.18026078465E+03  0.00000000000E+00 0. -1.
         -5    1    5    5    0  502 -0.21478587631E+02 -0.75818547742E+02  0.30304428096E+02  0.84559034234E+02  0.47000000000E+01 0.  1.
         13    1    6    6    0    0 -0.33748125441E+02 -0.16139827548E+02 -0.51476617541E+02  0.63633891579E+02  0.00000000000E+00 0. -1.
        -14    1    6    6    0    0  0.40132767344E+02  0.82840527880E+01 -0.28188719135E+02  0.49737997866E+02  0.00000000000E+00 0.  1.
</event>
<event>
12    1  0.8526130E-002  0.1873069E+03  0.7818608E-02  0.1161535E+00
         21   -1    0    0  501  502  0.00000000000E+00  0.00000000000E+00  0.74934574891E+03  0.74934574891E+03  0.00000000000E+00 0. -1.
         21   -1    0    0  502  503 -0.00000000000E+00 -0.00000000000E+00 -0.47174340988E+02  0.47174340988E+02  0.00000000000E+00 0.  1.
         -6    2    1    2    0  503 -0.37479211110E+02 -0.57305660961E+02  0.41223145596E+03  0.45278984303E+03  0.17434230304E+03 0.  0.
        -24    2    3    3    0    0  0.39107220407E+02 -0.18201989477E+02  0.13524208637E+03  0.16272126583E+03  0.79543078382E+02 0.  0.
          6    2    1    2  501    0  0.37479211110E+02  0.57305660961E+02  0.28993995196E+03  0.34373024686E+03  0.17145459114E+03 0.  0.
         24    2    5    5    0    0  0.17249892482E+02 -0.23211395137E+02  0.21645289386E+03  0.23275881197E+03  0.80551111921E+02 0.  0.
          5    1    5    5  501    0  0.20229318628E+02  0.80517056098E+02  0.73487058099E+02  0.11097143490E+03  0.47000000000E+01 0. -1.
        -11    1    6    6    0    0 -0.20687746028E+02  0.10825581326E+02  0.23267203724E+02  0.32962688238E+02  0.00000000000E+00 0.  1.
         12    1    6    6    0    0  0.37937638509E+02 -0.34036976464E+02  0.19318569014E+03  0.19979612373E+03  0.00000000000E+00 0. -1.
         -5    1    3    3    0  503 -0.76586431517E+02 -0.39103671484E+02  0.27698936959E+03  0.29006857720E+03  0.47000000000E+01 0.  1.
         13    1    4    4    0    0 -0.11462880369E+02  0.29998853465E+01  0.92341509924E+02  0.93098611126E+02  0.00000000000E+00 0. -1.
        -14    1    4    4    0    0  0.50570100777E+02 -0.21201874824E+02  0.42900576446E+02  0.69622654704E+02  0.00000000000E+00 0.  1.
</event>
<event>
12    1  0.8526130E-002  0.2180361E+03  0.7818608E-02  0.1135433E+00
         21   -1    0    0  501  502  0.00000000000E+00  0.00000000000E+00  0.27717400734E+03  0.27717400734E+03  0.00000000000E+00 0. -1.
         21   -1    0    0  502  503 -0.00000000000E+00 -0.00000000000E+00 -0.24130347972E+03  0.24130347972E+03  0.00000000000E+00 0.  1.
         -6    2    1    2    0  503 -0.58752065186E+02 -0.12037546291E+03 -0.12178986741E+03  0.24974485202E+03  0.17203971075E+03 0.  0.
        -24    2    3    3    0    0 -0.50351687326E+02 -0.69830527696E+02 -0.15044804028E+03  0.19084886153E+03  0.79856622182E+02 0.  0.
          6    2    1    2  501    0  0.58752065186E+02  0.12037546291E+03  0.15766039503E+03  0.26873263505E+03  0.17151784672E+03 0.  0.
         24    2    5    5    0    0  0.56291899631E+02  0.12007575855E+02  0.32336654063E+02  0.10296840064E+03  0.79018178241E+02 0.  0.
          5    1    5    5  501    0  0.24601655547E+01  0.10836788705E+03  0.12532374096E+03  0.16576423440E+03  0.47000000000E+01 0. -1.
        -13    1    6    6    0    0  0.26933236913E+02 -0.44058062871E+01  0.55692134071E+02  0.62019546734E+02  0.00000000000E+00 0.  1.
         14    1    6    6    0    0  0.29358662717E+02  0.16413382142E+02 -0.23355480008E+02  0.40948853907E+02  0.00000000000E+00 0. -1.
         -5    1    3    3    0  503 -0.84003778591E+01 -0.50544935211E+02  0.28658172874E+02  0.58895990493E+02  0.47000000000E+01 0.  1.
         13    1    4    4    0    0 -0.22812195562E+02 -0.18091789129E+02  0.28984775652E+00  0.29116887058E+02  0.00000000000E+00 0. -1.
        -14    1    4    4    0    0 -0.27539491765E+02 -0.51738738567E+02 -0.15073788804E+03  0.16173197447E+03  0.00000000000E+00 0.  1.
</event>
<event>
12    1  0.8526130E-002  0.1988000E+03  0.7818608E-02  0.1150895E+00
         21   -1    0    0  501  502  0.00000000000E+00  0.00000000000E+00  0.17757765560E+03  0.17757765560E+03  0.00000000000E+00 0. -1.
         21   -1    0    0  502  503 -0.00000000000E+00 -0.00000000000E+00 -0.33542028910E+03  0.33542028910E+03  0.00000000000E+00 0. -1.
         -6    2    1    2    0  503 -0.60807472788E+02  0.78488448666E+02 -0.22827861867E+03  0.30270874515E+03  0.17223086636E+03 0.  0.
        -24    2    3    3    0    0 -0.10694588841E+03  0.43050173478E+02 -0.16983642031E+03  0.22011210301E+03  0.79461863441E+02 0.  0.
          6    2    1    2  501    0  0.60807472788E+02 -0.78488448666E+02  0.70435985170E+02  0.21028919955E+03  0.17147108829E+03 0.  0.
         24    2    5    5    0    0  0.14000352025E+02 -0.11268852661E+03  0.34293211621E+02  0.14181335005E+03  0.77719289780E+02 0.  0.
          5    1    5    5  501    0  0.46807120763E+02  0.34200077940E+02  0.36142773549E+02  0.68475849502E+02  0.47000000000E+01 0. -1.
        -11    1    6    6    0    0  0.30644920550E+02 -0.16137789556E+02  0.26347011695E+02  0.43516714404E+02  0.00000000000E+00 0.  1.
         12    1    6    6    0    0 -0.16644568524E+02 -0.96550737050E+02  0.79461999256E+01  0.98296635647E+02  0.00000000000E+00 0. -1.
         -5    1    3    3    0  503  0.46138415622E+02  0.35438275188E+02 -0.58442198356E+02  0.82596642142E+02  0.47000000000E+01 0.  1.
         11    1    4    4    0    0  0.30803732261E+00  0.29396233296E+02 -0.55150232929E+02  0.62496252776E+02  0.00000000000E+00 0. -1.
        -12    1    4    4    0    0 -0.10725392573E+03  0.13653940183E+02 -0.11468618739E+03  0.15761585023E+03  0.00000000000E+00 0.  1.
</event>
<event>
12    1  0.8526130E-002  0.1754844E+03  0.7818608E-02  0.1172706E+00
         21   -1    0    0  501  502  0.00000000000E+00  0.00000000000E+00  0.74545038041E+02  0.74545038041E+02  0.00000000000E+00 0.  1.
         21   -1    0    0  502  503 -0.00000000000E+00 -0.00000000000E+00 -0.14589153165E+04  0.14589153165E+04  0.00000000000E+00 0.  1.
         -6    2    1    2    0  503  0.34804033037E+02  0.13498975021E+02 -0.13436948153E+04  0.13551053617E+04  0.17146790243E+03 0.  0.
        -24    2    3    3    0    0  0.62996358838E+02 -0.27676664472E+02 -0.11594125573E+04  0.11641281873E+04  0.78882314029E+02 0.  0.
          6    2    1    2  501    0 -0.34804033037E+02 -0.13498975021E+02 -0.40675463171E+02  0.17835499287E+03  0.16959500917E+03 0.  0.
         24    2    5    5    0    0 -0.79982673748E+02 -0.40815326877E+02 -0.22678305826E+02  0.12237928092E+03  0.79995398843E+02 0.  0.
          5    1    5    5  501    0  0.45178640711E+02  0.27316351856E+02 -0.17997157346E+02  0.55975711945E+02  0.47000000000E+01 0. -1.
        -11    1    6    6    0    0 -0.92802719074E+02 -0.37804914689E+02 -0.33156465172E+02  0.10555049704E+03  0.00000000000E+00 0.  1.
         12    1    6    6    0    0  0.12820045327E+02 -0.30104121882E+01  0.10478159347E+02  0.16828783884E+02  0.00000000000E+00 0. -1.
         -5    1    3    3    0  503 -0.28192325801E+02  0.41175639493E+02 -0.18428225801E+03  0.19097717439E+03  0.47000000000E+01 0.  1.
         13    1    4    4    0    0  0.36889574382E+02 -0.59830421950E+01 -0.16679486232E+03  0.17093028868E+03  0.00000000000E+00 0. -1.
        -14    1    4    4    0    0  0.26106784456E+02 -0.21693622277E+02 -0.99261769499E+03  0.99319789863E+03  0.00000000000E+00 0.  1.
</event>
<event>
12    1  0.8526130E-002  0.1886532E+03  0.7818608E-02  0.1161718E+00
         21   -1    0    0  501  502  0.00000000000E+00  0.00000000000E+00  0.35209002914E+03  0.35209002914E+03  0.00000000000E+00 0. -1.
         21   -1    0    0  502  503 -0.00000000000E+00 -0.00000000000E+00 -0.12717489815E+03  0.12717489815E+03  0.00000000000E+00 0. -1.
         -6    2    1    2    0  503 -0.35528873871E+01 -0.49960742970E+02  0.22817698930E+03  0.29058356364E+03  0.17281600089E+03 0.  0.
        -24    2    3    3    0    0  0.64432075180E+02 -0.27054156081E+02  0.15390932678E+03  0.18721798642E+03  0.80492694669E+02 0.  0.
          6    2    1    2  501    0  0.35528873871E+01  0.49960742970E+02 -0.32618583069E+01  0.18868136365E+03  0.18188270513E+03 0.  0.
         24    2    5    5    0    0 -0.58995167402E+02  0.70942307312E+02  0.20663262530E+01  0.12232652396E+03  0.80288654342E+02 0.  0.
          5    1    5    5  501    0  0.62548054790E+02 -0.20981564342E+02 -0.53281845599E+01  0.66354839695E+02  0.47000000000E+01 0. -1.
        -11    1    6    6    0    0 -0.47274936617E+00  0.55059924194E+02 -0.18822440046E+02  0.58190231083E+02  0.00000000000E+00 0.  1.
         12    1    6    6    0    0 -0.58522418036E+02  0.15882383117E+02  0.20888766299E+02  0.64136292875E+02  0.00000000000E+00 0. -1.
         -5    1    3    3    0  503 -0.67984962567E+02 -0.22906586889E+02  0.74267662513E+02  0.10336557722E+03  0.47000000000E+01 0.  1.
         11    1    4    4    0    0  0.70314460365E+02 -0.17334955405E+01  0.14232994638E+03  0.15876064367E+03  0.00000000000E+00 0. -1.
        -12    1    4    4    0    0 -0.58823851850E+01 -0.25320660540E+02  0.11579380404E+02  0.28457342747E+02  0.00000000000E+00 0.  1.
</event>
<event>
12    1  0.8526130E-002  0.1977112E+03  0.7818608E-02  0.1151981E+00
         21   -1    0    0  501  502  0.00000000000E+00  0.00000000000E+00  0.14437782068E+03  0.14437782068E+03  0.00000000000E+00 0. -1.
         21   -1    0    0  502  503 -0.00000000000E+00 -0.00000000000E+00 -0.29709852978E+03  0.29709852978E+03  0.00000000000E+00 0. -1.
         -6    2    1    2    0  503  0.80190958400E+02 -0.59450209737E+02 -0.14416952554E+03  0.24358034047E+03  0.16906097398E+03 0.  0.
        -24    2    3    3    0    0  0.10205405093E+02 -0.56508937042E+02 -0.14300054428E+03  0.17336577450E+03  0.79430005944E+02 0.  0.
          6    2    1    2  501    0 -0.80190958400E+02  0.59450209737E+02 -0.85511835692E+01  0.19789600999E+03  0.17065986869E+03 0.  0.
         24    2    5    5    0    0 -0.21287084366E+01  0.33251996220E+02  0.46463435925E+02  0.98755909028E+02  0.80521127897E+02 0.  0.
          5    1    5    5  501    0 -0.78062249964E+02  0.26198213518E+02 -0.55014619494E+02  0.99140100963E+02  0.47000000000E+01 0. -1.
        -11    1    6    6    0    0  0.45993505544E+00 -0.25140572520E+02  0.18264995366E+01  0.25211029877E+02  0.00000000000E+00 0.  1.
         12    1    6    6    0    0 -0.25886434920E+01  0.58392568740E+02  0.44636936388E+02  0.73544879151E+02  0.00000000000E+00 0. -1.
         -5    1    3    3    0  503  0.69985553307E+02 -0.29412726954E+01 -0.11689812545E+01  0.70214565967E+02  0.47000000000E+01 0.  1.
         11    1    4    4    0    0  0.17423862074E+02 -0.70661135786E+02 -0.78958516475E+02  0.10738265411E+03  0.00000000000E+00 0. -1.
        -12    1    4    4    0    0 -0.72184569806E+01  0.14152198744E+02 -0.64042027809E+02  0.65983120390E+02  0.00000000000E+00 0.  1.
</event>
<event>
12    1  0.8526130E-002  0.1969338E+03  0.7818608E-02  0.1152465E+00
         21   -1    0    0  501  502  0.00000000000E+00  0.00000000000E+00  0.13252771673E+03  0.13252771673E+03  0.00000000000E+00 0.  1.
         21   -1    0    0  502  503 -0.00000000000E+00 -0.00000000000E+00 -0.29378070138E+03  0.29378070138E+03  0.00000000000E+00 0.  1.
         -6    2    1    2    0  503  0.77486475501E+02 -0.52839806458E+02 -0.63503528445E+02  0.20691934768E+03  0.17316673840E+03 0.  0.
        -24    2    3    3    0    0  0.81222212301E+02 -0.90539284167E+02 -0.16112049944E+02  0.14606502505E+03  0.79252656990E+02 0.  0.
          6    2    1    2  501    0 -0.77486475501E+02  0.52839806458E+02 -0.97749456211E+02  0.21938907043E+03  0.17257001189E+03 0.  0.
         24    2    5    5    0    0 -0.53238827892E+02  0.97184034586E+02 -0.36481268319E+02  0.13982626611E+03  0.77080428020E+02 0.  0.
          5    1    5    5  501    0 -0.24247647609E+02 -0.44344228128E+02 -0.61268187892E+02  0.79562804315E+02  0.47000000000E+01 0. -1.
        -13    1    6    6    0    0 -0.16755028099E+02  0.53539917504E+02  0.20100859743E+02  0.59592770496E+02  0.00000000000E+00 0.  1.
         14    1    6    6    0    0 -0.36483799792E+02  0.43644117082E+02 -0.56582128063E+02  0.80233495619E+02  0.00000000000E+00 0. -1.
         -5    1    3    3    0  503 -0.37357368004E+01  0.37699477709E+02 -0.47391478501E+02  0.60854322636E+02  0.47000000000E+01 0.  1.
         13    1    4    4    0    0  0.95748358758E+02 -0.66808224436E+02 -0.77386890134E+01  0.11700843715E+03  0.00000000000E+00 0. -1.
        -14    1    4    4    0    0 -0.14526146456E+02 -0.23731059731E+02 -0.83733609302E+01  0.29056587895E+02  0.00000000000E+00 0.  1.
</event>
<event>
12    1  0.8526130E-002  0.1913372E+03  0.7818608E-02  0.1157526E+00
         21   -1    0    0  501  502  0.00000000000E+00  0.00000000000E+00  0.18991874229E+02  0.18991874229E+02  0.00000000000E+00 0. -1.
         21   -1    0    0  502  503 -0.00000000000E+00 -0.00000000000E+00 -0.19277686284E+04  0.19277686284E+04  0.00000000000E+00 0. -1.
         -6    2    1    2    0  503 -0.36156256991E+02 -0.78610745279E+02 -0.10341652180E+04  0.10517165050E+04  0.17065457655E+03 0.  0.
        -24    2    3    3    0    0 -0.77909183902E+02 -0.47085173926E+02 -0.49347059026E+03  0.50847628276E+03  0.82146528438E+02 0.  0.
          6    2    1    2  501    0  0.36156256991E+02  0.78610745279E+02 -0.87461153618E+03  0.89504399767E+03  0.16932659084E+03 0.  0.
         24    2    5    5    0    0 -0.42209106713E+02  0.29144606502E+02 -0.35998845627E+03  0.37212236541E+03  0.79071799113E+02 0.  0.
          5    1    5    5  501    0  0.78365363704E+02  0.49466138777E+02 -0.51462307991E+03  0.52292163226E+03  0.47000000000E+01 0. -1.
        -13    1    6    6    0    0 -0.50492152974E+02  0.11733220352E+02 -0.34149122958E+03  0.34540322212E+03  0.00000000000E+00 0.  1.
         14    1    6    6    0    0  0.82830462608E+01  0.17411386150E+02 -0.18497226692E+02  0.26719143293E+02  0.00000000000E+00 0. -1.
         -5    1    3    3    0  503  0.41752926911E+02 -0.31525571353E+02 -0.54069462778E+03  0.54324022225E+03  0.47000000000E+01 0.  1.
         13    1    4    4    0    0 -0.65217134567E+02 -0.67387246357E+02 -0.32318740546E+03  0.33651807479E+03  0.00000000000E+00 0. -1.
        -14    1    4    4    0    0 -0.12692049335E+02  0.20302072431E+02 -0.17028318480E+03  0.17195820797E+03  0.00000000000E+00 0.  1.
</event>
<event>
12    1  0.8526130E-002  0.2223184E+03  0.7818608E-02  0.1132829E+00
         21   -1    0    0  501  502  0.00000000000E+00  0.00000000000E+00  0.19292366429E+03  0.19292366429E+03  0.00000000000E+00 0.  1.
         21   -1    0    0  502  503 -0.00000000000E+00 -0.00000000000E+00 -0.25626931030E+03  0.25626931030E+03  0.00000000000E+00 0. -1.
         -6    2    1    2    0  503 -0.37670366212E+02  0.13283269606E+03 -0.27536250900E+01  0.21876544453E+03  0.16966778019E+03 0.  0.
        -24    2    3    3    0    0 -0.61157457643E+02  0.15118933885E+03 -0.22580067315E+02  0.18265744529E+03  0.79091289486E+02 0.  0.
          6    2    1    2  501    0  0.37670366212E+02 -0.13283269606E+03 -0.60592020920E+02  0.23042753006E+03  0.17424658382E+03 0.  0.
         24    2    5    5    0    0  0.17964522033E+02 -0.94155671968E+02  0.31461636432E+02  0.12854427177E+03  0.79660408116E+02 0.  0.
          5    1    5    5  501    0  0.19705844179E+02 -0.38677024095E+02 -0.92053657352E+02  0.10188325829E+03  0.47000000000E+01 0. -1.
        -11    1    6    6    0    0  0.34187854544E+02 -0.82463202791E+02 -0.23064274281E+01  0.89298985551E+02  0.00000000000E+00 0.  1.
         12    1    6    6    0    0 -0.16223332511E+02 -0.11692469176E+02  0.33768063861E+02  0.39245286215E+02  0.00000000000E+00 0. -1.
         -5    1    3    3    0  503  0.23487091430E+02 -0.18356642783E+02  0.19826442225E+02  0.36107999245E+02  0.47000000000E+01 0.  1.
         13    1    4    4    0    0 -0.48716979833E+02  0.80365977066E+02 -0.49078988519E+02  0.10602255188E+03  0.00000000000E+00 0. -1.
        -14    1    4    4    0    0 -0.12440477810E+02  0.70823361780E+02  0.26498921204E+02  0.76634893403E+02  0.00000000000E+00 0.  1.
</event>
<event>
12    1  0.8526130E-002  0.1938755E+03  0.7818608E-02  0.1155149E+00
         21   -1    0    0  501  502  0.00000000000E+00  0.00000000000E+00  0.12973543893E+03  0.12973543893E+03  0.00000000000E+00 0.  1.
         21   -1    0    0  502  503 -0.00000000000E+00 -0.00000000000E+00 -0.34223140787E+03  0.34223140787E+03  0.00000000000E+00 0.  1.
         -6    2    1    2    0  503 -0.68562047769E+02 -0.52511622182E+02 -0.19964313150E+03  0.27828959362E+03  0.17357849263E+03 0.  0.
        -24    2    3    3    0    0 -0.16885244500E+02 -0.51545070828E+02 -0.43542198656E+02  0.11378726095E+03  0.90053383517E+02 0.  0.
          6    2    1    2  501    0  0.68562047769E+02  0.52511622182E+02 -0.12852837440E+02  0.19367725319E+03  0.17287989505E+03 0.  0.
         24    2    5    5    0    0  0.25476228247E+02  0.25200203732E+02  0.59395597473E+02  0.10510960803E+03  0.78969008019E+02 0.  0.
          5    1    5    5  501    0  0.43085819522E+02  0.27311418450E+02 -0.72248434912E+02  0.88567645159E+02  0.47000000000E+01 0. -1.
        -13    1    6    6    0    0  0.45726028553E+02 -0.57019811804E+01  0.17603655023E+02  0.49328196265E+02  0.00000000000E+00 0.  1.
         14    1    6    6    0    0 -0.20249800306E+02  0.30902184913E+02  0.41791942450E+02  0.55781411766E+02  0.00000000000E+00 0. -1.
         -5    1    3    3    0  503 -0.51676803269E+02 -0.96655135411E+00 -0.15610093284E+03  0.16450233267E+03  0.47000000000E+01 0.  1.
         13    1    4    4    0    0  0.10739427530E+02  0.14882923144E+02 -0.37303923397E+02  0.41574263743E+02  0.00000000000E+00 0. -1.
        -14    1    4    4    0    0 -0.27624672030E+02 -0.66427993972E+02 -0.62382752590E+01  0.72212997210E+02  0.00000000000E+00 0.  1.
</event>
<event>
12    1  0.8526130E-002  0.1749587E+03  0.7818608E-02  0.1174003E+00
         21   -1    0    0  501  502  0.00000000000E+00  0.00000000000E+00  0.35387616382E+03  0.35387616382E+03  0.00000000000E+00 0. -1.
         21   -1    0    0  502  503 -0.00000000000E+00 -0.00000000000E+00 -0.21660481974E+03  0.21660481974E+03  0.00000000000E+00 0. -1.
         -6    2    1    2    0  503 -0.17154370784E+01  0.25589551688E+02 -0.15479868246E+03  0.23001741131E+03  0.16818920755E+03 0.  0.
        -24    2    3    3    0    0  0.50428253562E+02  0.46082342383E+02 -0.12632848298E+03  0.16699708759E+03  0.85220599699E+02 0.  0.
          6    2    1    2  501    0  0.17154370784E+01 -0.25589551688E+02  0.29207002654E+03  0.34046357224E+03  0.17306870237E+03 0.  0.
         24    2    5    5    0    0 -0.17094980220E+02  0.38422577172E+02  0.91895610066E+02  0.12941080289E+03  0.80832047914E+02 0.  0.
          5    1    5    5  501    0  0.18810417298E+02 -0.64012128860E+02  0.20017441648E+03  0.21105276935E+03  0.47000000000E+01 0. -1.
        -11    1    6    6    0    0 -0.32165852736E+02  0.26145434688E+01  0.30177083605E+01  0.32412721014E+02  0.00000000000E+00 0.  1.
         12    1    6    6    0    0  0.15070872516E+02  0.35808033704E+02  0.88877901705E+02  0.96998081876E+02  0.00000000000E+00 0. -1.
         -5    1    3    3    0  503 -0.52143690640E+02 -0.20492790695E+02 -0.28470199482E+02  0.63020323727E+02  0.47000000000E+01 0.  1.
         13    1    4    4    0    0 -0.51215102230E+01  0.46471168582E+02 -0.87545383576E+02  0.99247133771E+02  0.00000000000E+00 0. -1.
        -14    1    4    4    0    0  0.55549763785E+02 -0.38882619956E+00 -0.38783099404E+02  0.67749953814E+02  0.00000000000E+00 0.  1.
</event>
<event>
12    1  0.8526130E-002  0.2259941E+03  0.7818608E-02  0.1129805E+00
         21   -1    0    0  503  502  0.00000000000E+00  0.00000000000E+00  0.56335534361E+02  0.56335534361E+02  0.00000000000E+00 0. -1.
         21   -1    0    0  501  503 -0.00000000000E+00 -0.00000000000E+00 -0.95723310973E+03  0.95723310973E+03  0.00000000000E+00 0.  1.
          6    2    1    2  501    0 -0.44650397119E+02 -0.13571088852E+03 -0.57639249304E+03  0.61911358044E+03  0.17510629981E+03 0.  0.
         24    2    3    3    0    0 -0.96312737789E+02 -0.80152515229E+02 -0.42372794586E+03  0.44857242925E+03  0.77274077276E+02 0.  0.
         -6    2    1    2    0  502  0.44650397119E+02  0.13571088852E+03 -0.32450508233E+03  0.39445506365E+03  0.17285874451E+03 0.  0.
        -24    2    5    5    0    0 -0.39153256556E+02  0.64241933066E+02 -0.11562715309E+03  0.15827093360E+03  0.77588958154E+02 0.  0.
          5    1    3    3  501    0  0.51662340670E+02 -0.55558373293E+02 -0.15266454718E+03  0.17054115120E+03  0.47000000000E+01 0. -1.
        -11    1    4    4    0    0 -0.50061177402E+01  0.14694710709E+02 -0.47785053191E+02  0.50243477648E+02  0.00000000000E+00 0.  1.
         12    1    4    4    0    0 -0.91306620049E+02 -0.94847225938E+02 -0.37594289267E+03  0.39832895160E+03  0.00000000000E+00 0. -1.
         -5    1    5    5    0  502  0.83803653675E+02  0.71468955456E+02 -0.20887792924E+03  0.23618413005E+03  0.47000000000E+01 0.  1.
         13    1    6    6    0    0  0.17305556344E+00  0.57725389522E+01  0.11529720001E+02  0.12895216069E+02  0.00000000000E+00 0. -1.
        -14    1    6    6    0    0 -0.39326312119E+02  0.58469394114E+02 -0.12715687309E+03  0.14537571753E+03  0.00000000000E+00 0.  1.
</event>
<event>
12    1  0.8526130E-002  0.1736468E+03  0.7818608E-02  0.1174232E+00
         21   -1    0    0  501  502  0.00000000000E+00  0.00000000000E+00  0.90528793333E+02  0.90528793333E+02  0.00000000000E+00 0.  1.
         21   -1    0    0  502  503 -0.00000000000E+00 -0.00000000000E+00 -0.40171548767E+03  0.40171548767E+03  0.00000000000E+00 0.  1.
         -6    2    1    2    0  503 -0.20616004631E+02 -0.30352758015E+01 -0.25788189658E+03  0.31060012293E+03  0.17185788092E+03 0.  0.
        -24    2    3    3    0    0 -0.45475190631E+02 -0.60476379421E+02 -0.17730099562E+03  0.20845889172E+03  0.79335244737E+02 0.  0.
          6    2    1    2  501    0  0.20616004631E+02  0.30352758015E+01 -0.53304797757E+02  0.18164415808E+03  0.17239189701E+03 0.  0.
         24    2    5    5    0    0 -0.18420570229E+01 -0.63305408004E+02 -0.38713802634E+02  0.10994731017E+03  0.81109090999E+02 0.  0.
          5    1    5    5  501    0  0.22458061654E+02  0.66340683806E+02 -0.14590995123E+02  0.71696847906E+02  0.47000000000E+01 0. -1.
        -11    1    6    6    0    0  0.75504780610E+01  0.12156884875E+02  0.11888942534E+02  0.18605013394E+02  0.00000000000E+00 0.  1.
         12    1    6    6    0    0 -0.93925350839E+01 -0.75462292879E+02 -0.50602745168E+02  0.91342296776E+02  0.00000000000E+00 0. -1.
         -5    1    3    3    0  503  0.24859186000E+02  0.57441103619E+02 -0.80580900962E+02  0.10214123121E+03  0.47000000000E+01 0.  1.
         11    1    4    4    0    0 -0.19486228898E+02 -0.32196937240E+01  0.61340688190E+00  0.19759954766E+02  0.00000000000E+00 0. -1.
        -12    1    4    4    0    0 -0.25988961733E+02 -0.57256685697E+02 -0.17791440250E+03  0.18869893695E+03  0.00000000000E+00 0.  1.
</event>
<event>
12    1  0.8526130E-002  0.2028078E+03  0.7818608E-02  0.1147529E+00
         21   -1    0    0  503  502  0.00000000000E+00  0.00000000000E+00  0.94789415652E+02  0.94789415652E+02  0.00000000000E+00 0. -1.
         21   -1    0    0  501  503 -0.00000000000E+00 -0.00000000000E+00 -0.67255701448E+03  0.67255701448E+03  0.00000000000E+00 0. -1.
          6    2    1    2  501    0  0.21475411037E+02 -0.10442800278E+03 -0.51841046756E+03  0.55666904607E+03  0.17252423870E+03 0.  0.
         24    2    3    3    0    0 -0.13631804863E+01 -0.36403437761E+01 -0.11407062377E+03  0.13930523266E+03  0.79866953590E+02 0.  0.
         -6    2    1    2    0  502 -0.21475411037E+02  0.10442800278E+03 -0.59357131265E+02  0.21067738406E+03  0.17174192871E+03 0.  0.
        -24    2    5    5    0    0 -0.50552074934E+02  0.41367424910E+02 -0.86821041031E+02  0.13585462546E+03  0.81558629023E+02 0.  0.
          5    1    3    3  501    0  0.22838591523E+02 -0.10078765901E+03 -0.40433984379E+03  0.41736381341E+03  0.47000000000E+01 0. -1.
        -13    1    4    4    0    0  0.38416398610E+02 -0.87685113009E+01 -0.63900938723E+02  0.75073540227E+02  0.00000000000E+00 0.  1.
         14    1    4    4    0    0 -0.39779579096E+02  0.51281675247E+01 -0.50169685047E+02  0.64231692434E+02  0.00000000000E+00 0. -1.
         -5    1    5    5    0  502  0.29076663897E+02  0.63060577872E+02  0.27463909766E+02  0.74822758600E+02  0.47000000000E+01 0.  1.
         11    1    6    6    0    0 -0.87599875071E+01  0.57213262626E+02 -0.35940184871E+02  0.68130695652E+02  0.00000000000E+00 0. -1.
        -12    1    6    6    0    0 -0.41792087427E+02 -0.15845837716E+02 -0.50880856160E+02  0.67723929803E+02  0.00000000000E+00 0.  1.
</event>
<event>
12    1  0.8526130E-002  0.1984688E+03  0.7818608E-02  0.1152041E+00
         21   -1    0    0  503  502  0.00000000000E+00  0.00000000000E+00  0.27322662805E+03  0.27322662805E+03  0.00000000000E+00 0.  1.
         21   -1    0    0  501  503 -0.00000000000E+00 -0.00000000000E+00 -0.15324475958E+03  0.15324475958E+03  0.00000000000E+00 0. -1.
          6    2    1    2  501    0 -0.74984843289E+02 -0.52998675121E+02 -0.14087071944E+01  0.19382246373E+03  0.17068560778E+03 0.  0.
         24    2    3    3    0    0 -0.44273031380E+02 -0.85556806166E+02  0.38826163900E+02  0.13345540202E+03  0.83802177390E+02 0.  0.
         -6    2    1    2    0  502  0.74984843289E+02  0.52998675121E+02  0.12139057566E+03  0.23264892390E+03  0.17594960542E+03 0.  0.
        -24    2    5    5    0    0 -0.17163320229E+02  0.66324870111E+02  0.66649361814E+02  0.12453989557E+03  0.79840341950E+02 0.  0.
          5    1    3    3  501    0 -0.30711811910E+02  0.32558131044E+02 -0.40234871095E+02  0.60367061713E+02  0.47000000000E+01 0. -1.
        -13    1    4    4    0    0 -0.32071997514E+02 -0.37116070408E+02 -0.22827507399E+02  0.54104628278E+02  0.00000000000E+00 0.  1.
         14    1    4    4    0    0 -0.12201033865E+02 -0.48440735758E+02  0.61653671299E+02  0.79350773738E+02  0.00000000000E+00 0. -1.
         -5    1    5    5    0  502  0.92148163518E+02 -0.13326194990E+02  0.54741213845E+02  0.10810902833E+03  0.47000000000E+01 0.  1.
         13    1    6    6    0    0  0.77293185438E+00 -0.80848232143E+01 -0.12196216248E+02  0.14652968328E+02  0.00000000000E+00 0. -1.
        -14    1    6    6    0    0 -0.17936252084E+02  0.74409693325E+02  0.78845578062E+02  0.10988692725E+03  0.00000000000E+00 0.  1.
</event>
<event>
12    1  0.8526130E-002  0.1929097E+03  0.7818608E-02  0.1156615E+00
         21   -1    0    0  503  502  0.00000000000E+00  0.00000000000E+00  0.31949274484E+04  0.31949274484E+04  0.00000000000E+00 0. -1.
         21   -1    0    0  501  503 -0.00000000000E+00 -0.00000000000E+00 -0.11677436498E+02  0.11677436498E+02  0.00000000000E+00 0. -1.
          6    2    1    2  501    0 -0.28654258446E+02  0.72204599403E+02  0.13517853942E+04  0.13650086264E+04  0.17288790509E+03 0.  0.
         24    2    3    3    0    0  0.17728269404E+02 -0.18232911171E+02  0.75952954983E+03  0.76407655262E+03  0.79253458128E+02 0.  0.
         -6    2    1    2    0  502  0.28654258446E+02 -0.72204599403E+02  0.18314646178E+04  0.18415962585E+04  0.17657735522E+03 0.  0.
        -24    2    5    5    0    0 -0.53038173341E+02 -0.32520007661E+02  0.86556370224E+03  0.87142349610E+03  0.79421585138E+02 0.  0.
          5    1    3    3  501    0 -0.46382527850E+02  0.90437510574E+02  0.59225584433E+03  0.60093207383E+03  0.47000000000E+01 0. -1.
        -11    1    4    4    0    0 -0.18393776455E+02 -0.31040140776E+02  0.54177077720E+03  0.54297089828E+03  0.00000000000E+00 0.  1.
         12    1    4    4    0    0  0.36122045858E+02  0.12807229605E+02  0.21775877263E+03  0.22110565435E+03  0.00000000000E+00 0. -1.
         -5    1    5    5    0  502  0.81692431788E+02 -0.39684591742E+02  0.96590091555E+03  0.97017276240E+03  0.47000000000E+01 0.  1.
         13    1    6    6    0    0 -0.16267315004E+02 -0.44005244998E+02  0.69418334873E+03  0.69576692130E+03  0.00000000000E+00 0. -1.
        -14    1    6    6    0    0 -0.36770858337E+02  0.11485237337E+02  0.17138035351E+03  0.17565657480E+03  0.00000000000E+00 0.  1.
</event>
<event>
12    1  0.8526130E-002  0.2566922E+03  0.7818608E-02  0.1109169E+00
         21   -1    0    0  501  502  0.00000000000E+00  0.00000000000E+00  0.90178332016E+02  0.90178332016E+02  0.00000000000E+00 0. -1.
         21   -1    0    0  502  503 -0.00000000000E+00 -0.00000000000E+00 -0.73042233457E+03  0.73042233457E+03  0.00000000000E+00 0. -1.
         -6    2    1    2    0  503 -0.24080918480E+02  0.18865256212E+03 -0.32614909382E+03  0.41504713273E+03  0.17239840822E+03 0.  0.
        -24    2    3    3    0    0 -0.11491550426E+02  0.20742632449E+03 -0.24716804381E+03  0.33276078755E+03  0.80498223788E+02 0.  0.
          6    2    1    2  501    0  0.24080918480E+02 -0.18865256212E+03 -0.31409490874E+03  0.40555353386E+03  0.17218704162E+03 0.  0.
         24    2    5    5    0    0  0.65078205094E+01 -0.10523814745E+03 -0.29023398775E+03  0.31690697782E+03  0.71251986195E+02 0.  0.
          5    1    5    5  501    0  0.17573097971E+02 -0.83414414673E+02 -0.23860920983E+02  0.88646556039E+02  0.47000000000E+01 0. -1.
        -13    1    6    6    0    0 -0.20419733359E+02 -0.21524363119E+02 -0.29901245942E+02  0.42123013033E+02  0.00000000000E+00 0.  1.
         14    1    6    6    0    0  0.26927553868E+02 -0.83713784330E+02 -0.26033274181E+03  0.27478396479E+03  0.00000000000E+00 0. -1.
         -5    1    3    3    0  503 -0.12589368054E+02 -0.18773762365E+02 -0.78981050009E+02  0.82286345173E+02  0.47000000000E+01 0.  1.
         11    1    4    4    0    0  0.76014275147E+01  0.54161574158E+02 -0.12291919455E+03  0.13453767578E+03  0.00000000000E+00 0. -1.
        -12    1    4    4    0    0 -0.19092977941E+02  0.15326475033E+03 -0.12424884926E+03  0.19822311178E+03  0.00000000000E+00 0.  1.
</event>
<event>
12    1  0.8526130E-002  0.3028420E+03  0.7818608E-02  0.1083911E+00
         21   -1    0    0  501  502  0.00000000000E+00  0.00000000000E+00  0.51307310660E+02  0.51307310660E+02  0.00000000000E+00 0.  1.
         21   -1    0    0  502  503 -0.00000000000E+00 -0.00000000000E+00 -0.24424649161E+04  0.24424649161E+04  0.00000000000E+00 0.  1.
         -6    2    1    2    0  503 -0.24862033723E+03 -0.15566765287E+01 -0.18422291642E+04  0.18668466470E+04  0.17173705065E+03 0.  0.
        -24    2    3    3    0    0 -0.12285498469E+03  0.24628230917E+02 -0.13484147321E+04  0.13565748012E+04  0.79831099123E+02 0.  0.
          6    2    1    2  501    0  0.24862033723E+03  0.15566765287E+01 -0.54892844126E+03  0.62692557980E+03  0.17291256075E+03 0.  0.
         24    2    5    5    0    0  0.69410066053E+02  0.13339374583E+02 -0.11655903870E+03  0.15871564448E+03  0.81295449544E+02 0.  0.
          5    1    5    5  501    0  0.17921027117E+03 -0.11782698054E+02 -0.43236940256E+03  0.46820993532E+03  0.47000000000E+01 0. -1.
        -13    1    6    6    0    0 -0.32763181916E+01 -0.21054364432E+02 -0.62451099608E+01  0.22204096940E+02  0.00000000000E+00 0.  1.
         14    1    6    6    0    0  0.72686384244E+02  0.34393739015E+02 -0.11031392874E+03  0.13651154754E+03  0.00000000000E+00 0. -1.
         -5    1    3    3    0  503 -0.12576535254E+03 -0.26184907446E+02 -0.49381443209E+03  0.51027184580E+03  0.47000000000E+01 0. -1.
         13    1    4    4    0    0 -0.78442656030E+02 -0.10236498977E+02 -0.10422047738E+04  0.10452027683E+04  0.00000000000E+00 0. -1.
        -14    1    4    4    0    0 -0.44412328658E+02  0.34864729894E+02 -0.30620995829E+03  0.31137203292E+03  0.00000000000E+00 0.  1.
</event>
<event>
12    1  0.8526130E-002  0.2021977E+03  0.7818608E-02  0.1148418E+00
         21   -1    0    0  501  502  0.00000000000E+00  0.00000000000E+00  0.77729393936E+03  0.77729393936E+03  0.00000000000E+00 0.  1.
         21   -1    0    0  502  503 -0.00000000000E+00 -0.00000000000E+00 -0.62419362509E+02  0.62419362509E+02  0.00000000000E+00 0.  1.
         -6    2    1    2    0  503 -0.91431308225E+02 -0.51347886786E+02  0.18735493322E+03  0.27565516517E+03  0.17288033284E+03 0.  0.
        -24    2    3    3    0    0 -0.77626940371E+02  0.24857161210E+02  0.14621582333E+03  0.18783554166E+03  0.85201545655E+02 0.  0.
          6    2    1    2  501    0  0.91431308225E+02  0.51347886786E+02  0.52751964363E+03  0.56405813670E+03  0.16996563639E+03 0.  0.
         24    2    5    5    0    0  0.28155777303E+02  0.96166184375E+01  0.44023667689E+03  0.44836156002E+03  0.79589758635E+02 0.  0.
          5    1    5    5  501    0  0.63275530922E+02  0.41731268349E+02  0.87282966749E+02  0.11569657668E+03  0.47000000000E+01 0. -1.
        -13    1    6    6    0    0 -0.58686816547E+01  0.29600224435E+02  0.72718178667E+02  0.78730859386E+02  0.00000000000E+00 0.  1.
         14    1    6    6    0    0  0.34024458957E+02 -0.19983605998E+02  0.36751849822E+03  0.36963070063E+03  0.00000000000E+00 0. -1.
         -5    1    3    3    0  503 -0.13804367854E+02 -0.76205047997E+02  0.41139109885E+02  0.87819623514E+02  0.47000000000E+01 0.  1.
         13    1    4    4    0    0 -0.16562031154E+02  0.22515925805E+02 -0.14865093524E+01  0.27990668103E+02  0.00000000000E+00 0. -1.
        -14    1    4    4    0    0 -0.61064909217E+02  0.23412354052E+01  0.14770233268E+03  0.15984487355E+03  0.00000000000E+00 0.  1.
</event>
<event>
12    1  0.8526130E-002  0.1738081E+03  0.7818608E-02  0.1179119E+00
         21   -1    0    0  501  502  0.00000000000E+00  0.00000000000E+00  0.18979020375E+02  0.18979020375E+02  0.00000000000E+00 0.  1.
         21   -1    0    0  502  503 -0.00000000000E+00 -0.00000000000E+00 -0.14634388528E+04  0.14634388528E+04  0.00000000000E+00 0.  1.
         -6    2    1    2    0  503  0.11006258434E+01 -0.19887912362E+02 -0.89008723753E+03  0.90689830327E+03  0.17266297118E+03 0.  0.
        -24    2    3    3    0    0 -0.48220159514E+02  0.32082349601E+02 -0.41198284796E+03  0.42343233205E+03  0.78807435397E+02 0.  0.
          6    2    1    2  501    0 -0.11006258434E+01  0.19887912362E+02 -0.55437259486E+03  0.57551956987E+03  0.15328751072E+03 0.  0.
         24    2    5    5    0    0  0.26587984186E+02 -0.30121144854E+02 -0.42878058657E+03  0.43745071939E+03  0.76786302171E+02 0.  0.
          5    1    5    5  501    0 -0.27688610029E+02  0.50009057216E+02 -0.12559200828E+03  0.13806885048E+03  0.47000000000E+01 0. -1.
        -13    1    6    6    0    0 -0.23957744908E+02 -0.23203540129E+02 -0.12291473878E+03  0.12735937666E+03  0.00000000000E+00 0.  1.
         14    1    6    6    0    0  0.50545729093E+02 -0.69176047249E+01 -0.30586584780E+03  0.31009134272E+03  0.00000000000E+00 0. -1.
         -5    1    3    3    0  503  0.49320785358E+02 -0.51970261962E+02 -0.47810438957E+03  0.48346597122E+03  0.47000000000E+01 0.  1.
         13    1    4    4    0    0 -0.43939011369E+02 -0.90300861403E+01 -0.11254648182E+03  0.12115646803E+03  0.00000000000E+00 0. -1.
        -14    1    4    4    0    0 -0.42811481453E+01  0.41112435741E+02 -0.29943636614E+03  0.30227586402E+03  0.00000000000E+00 0.  1.
</event>
<event>
12    1  0.8526130E-002  0.3278539E+03  0.7818608E-02  0.1072104E+00
         21   -1    0    0  503  502  0.00000000000E+00  0.00000000000E+00  0.10526214421E+04  0.10526214421E+04  0.00000000000E+00 0.  1.
         21   -1    0    0  501  503 -0.00000000000E+00 -0.00000000000E+00 -0.10215400384E+03  0.10215400384E+03  0.00000000000E+00 0.  1.
          6    2    1    2  501    0 -0.17860753366E+03  0.21432977587E+03  0.45935333934E+03  0.56435242940E+03  0.17219253846E+03 0.  0.
         24    2    3    3    0    0 -0.12213371717E+03  0.22124490356E+03  0.41414169705E+03  0.49152871390E+03  0.78874451725E+02 0.  0.
         -6    2    1    2    0  502  0.17860753366E+03 -0.21432977587E+03  0.49111409888E+03  0.59042301650E+03  0.17195457654E+03 0.  0.
        -24    2    5    5    0    0  0.15952073195E+03 -0.23198612332E+03  0.47879945131E+03  0.56127180470E+03  0.80701293936E+02 0.  0.
          5    1    3    3  501    0 -0.56473816494E+02 -0.69151276868E+01  0.45211642284E+02  0.72823715494E+02  0.47000000000E+01 0. -1.
        -11    1    4    4    0    0 -0.17859649491E+02  0.10299575861E+03  0.19925062509E+03  0.22500645539E+03  0.00000000000E+00 0.  1.
         12    1    4    4    0    0 -0.10427406767E+03  0.11824914494E+03  0.21489107197E+03  0.26652225851E+03  0.00000000000E+00 0. -1.
         -5    1    5    5    0  502  0.19086801712E+02  0.17656347446E+02  0.12314647564E+02  0.29151211799E+02  0.47000000000E+01 0.  1.
         11    1    6    6    0    0  0.10824014140E+03 -0.10695204284E+03  0.30742717461E+03  0.34302497776E+03  0.00000000000E+00 0. -1.
        -12    1    6    6    0    0  0.51280590543E+02 -0.12503408048E+03  0.17137227670E+03  0.21824682694E+03  0.00000000000E+00 0.  1.
</event>
<event>
12    1  0.8526130E-002  0.2282541E+03  0.7818608E-02  0.1127890E+00
         21   -1    0    0  501  502  0.00000000000E+00  0.00000000000E+00  0.53035911938E+03  0.53035911938E+03  0.00000000000E+00 0. -1.
         21   -1    0    0  502  503 -0.00000000000E+00 -0.00000000000E+00 -0.11261008611E+03  0.11261008611E+03  0.00000000000E+00 0.  1.
         -6    2    1    2    0  503  0.10012406666E+03  0.11054652863E+03  0.93833660297E+02  0.24671030837E+03  0.17267268671E+03 0.  0.
        -24    2    3    3    0    0  0.13859630506E+03  0.96851735453E+02  0.75601821051E+02  0.20174198118E+03  0.79968726309E+02 0.  0.
          6    2    1    2  501    0 -0.10012406666E+03 -0.11054652863E+03  0.32391537297E+03  0.39625889712E+03  0.17278478226E+03 0.  0.
         24    2    5    5    0    0 -0.79089408382E+02  0.12903604579E+02  0.14203102895E+03  0.17538246823E+03  0.64533397930E+02 0.  0.
          5    1    5    5  501    0 -0.21034658277E+02 -0.12345013321E+03  0.18188434402E+03  0.22087642889E+03  0.47000000000E+01 0. -1.
        -11    1    6    6    0    0 -0.71447162305E+02 -0.12278690687E+02  0.79780869284E+02  0.10779819270E+03  0.00000000000E+00 0.  1.
         12    1    6    6    0    0 -0.76422460775E+01  0.25182295266E+02  0.62250159665E+02  0.67584275526E+02  0.00000000000E+00 0. -1.
         -5    1    3    3    0  503 -0.38472238404E+02  0.13694793181E+02  0.18231839245E+02  0.44968327191E+02  0.47000000000E+01 0.  1.
         11    1    4    4    0    0  0.67581869834E+02  0.19795623224E+02  0.65998354505E+02  0.96514033314E+02  0.00000000000E+00 0. -1.
        -12    1    4    4    0    0  0.71014435229E+02  0.77056112229E+02  0.96034665462E+01  0.10522794787E+03  0.00000000000E+00 0.  1.
</event>
<event>
12    1  0.8526130E-002  0.2357682E+03  0.7818608E-02  0.1123250E+00
         21   -1    0    0  503  502  0.00000000000E+00  0.00000000000E+00  0.41249418728E+03  0.41249418728E+03  0.00000000000E+00 0. -1.
         21   -1    0    0  501  503 -0.00000000000E+00 -0.00000000000E+00 -0.32592639203E+03  0.32592639203E+03  0.00000000000E+00 0. -1.
          6    2    1    2  501    0 -0.81047644623E+02  0.13766208176E+03 -0.24082426189E+03  0.33702071954E+03  0.17339858949E+03 0.  0.
         24    2    3    3    0    0 -0.12119298228E+03  0.11034411162E+03 -0.21549127836E+03  0.28205009391E+03  0.79070870153E+02 0.  0.
         -6    2    1    2    0  502  0.81047644623E+02 -0.13766208176E+03  0.32739205714E+03  0.40139985977E+03  0.16857259235E+03 0.  0.
        -24    2    5    5    0    0  0.34754242777E+02 -0.11361557209E+03  0.11954711766E+03  0.18705685767E+03  0.81131985348E+02 0.  0.
          5    1    3    3  501    0  0.40145337653E+02  0.27317970139E+02 -0.25332983531E+02  0.54970625632E+02  0.47000000000E+01 0. -1.
        -11    1    4    4    0    0 -0.23045973904E+02 -0.11211792058E+02 -0.33973817377E+02  0.42556332801E+02  0.00000000000E+00 0.  1.
         12    1    4    4    0    0 -0.98147008371E+02  0.12155590368E+03 -0.18151746098E+03  0.23949376111E+03  0.00000000000E+00 0. -1.
         -5    1    5    5    0  502  0.46293401846E+02 -0.24046509663E+02  0.20784493948E+03  0.21434300210E+03  0.47000000000E+01 0.  1.
         13    1    6    6    0    0  0.30694306302E+01 -0.19270093759E+02 -0.11386486922E+02  0.22592255361E+02  0.00000000000E+00 0. -1.
        -14    1    6    6    0    0  0.31684812147E+02 -0.94345478336E+02  0.13093360458E+03  0.16446460231E+03  0.00000000000E+00 0.  1.
</event>
<event>
12    1  0.8526130E-002  0.1759927E+03  0.7818608E-02  0.1171976E+00
         21   -1    0    0  501  502  0.00000000000E+00  0.00000000000E+00  0.18401860595E+04  0.18401860595E+04  0.00000000000E+00 0.  1.
         21   -1    0    0  502  503 -0.00000000000E+00 -0.00000000000E+00 -0.31915494581E+02  0.31915494581E+02  0.00000000000E+00 0.  1.
         -6    2    1    2    0  503  0.22906260889E+02  0.30006735450E+02  0.25741784741E+03  0.31129484097E+03  0.17092521432E+03 0.  0.
        -24    2    3    3    0    0  0.56380117186E+02 -0.96815359645E+01  0.23538053226E+03  0.25469633214E+03  0.78700552005E+02 0.  0.
          6    2    1    2  501    0 -0.22906260889E+02 -0.30006735450E+02  0.15508527175E+04  0.15608067131E+04  0.17189631560E+03 0.  0.
         24    2    5    5    0    0  0.79411854328E+01 -0.65182576539E+02  0.61231167378E+03  0.62108851838E+03  0.80706450200E+02 0.  0.
          5    1    5    5  501    0 -0.30847446322E+02  0.35175841089E+02  0.93854104370E+03  0.93971819470E+03  0.47000000000E+01 0. -1.
        -13    1    6    6    0    0 -0.20587879641E+02 -0.30896130956E+02  0.48054942938E+03  0.48198152015E+03  0.00000000000E+00 0.  1.
         14    1    6    6    0    0  0.28529065074E+02 -0.34286445583E+02  0.13176224441E+03  0.13910699823E+03  0.00000000000E+00 0. -1.
         -5    1    3    3    0  503 -0.33473856297E+02  0.39688271414E+02  0.22037315149E+02  0.56598508834E+02  0.47000000000E+01 0.  1.
         13    1    4    4    0    0 -0.12679407361E+02 -0.79835507806E+01  0.11444286647E+03  0.11541955701E+03  0.00000000000E+00 0. -1.
        -14    1    4    4    0    0  0.69059524547E+02 -0.16979851839E+01  0.12093766579E+03  0.13927677513E+03  0.00000000000E+00 0.  1.
</event>
<event>
12    1  0.8526130E-002  0.1887505E+03  0.7818608E-02  0.1159906E+00
         21   -1    0    0  503  502  0.00000000000E+00  0.00000000000E+00  0.15448067598E+03  0.15448067598E+03  0.00000000000E+00 0.  1.
         21   -1    0    0  501  503 -0.00000000000E+00 -0.00000000000E+00 -0.30075694004E+03  0.30075694004E+03  0.00000000000E+00 0.  1.
          6    2    1    2  501    0  0.12325808031E+02 -0.73874827706E+02 -0.18415240098E+03  0.26272432452E+03  0.17176305829E+03 0.  0.
         24    2    3    3    0    0  0.31468722620E+01 -0.96556524826E+02 -0.19964379633E+03  0.23338517701E+03  0.72649364379E+02 0.  0.
         -6    2    1    2    0  502 -0.12325808031E+02  0.73874827706E+02  0.37876136925E+02  0.19251329150E+03  0.17325515849E+03 0.  0.
        -24    2    5    5    0    0  0.56474975454E+02  0.24194097692E+02  0.64028937371E+00  0.99721475670E+02  0.78544162887E+02 0.  0.
          5    1    3    3  501    0  0.91789357689E+01  0.22681697120E+02  0.15491395355E+02  0.29339147502E+02  0.47000000000E+01 0. -1.
        -13    1    4    4    0    0  0.27754963291E+02 -0.12842526119E+02 -0.77158523318E+02  0.82998230011E+02  0.00000000000E+00 0.  1.
         14    1    4    4    0    0 -0.24608091029E+02 -0.83713998707E+02 -0.12248527301E+03  0.15038694700E+03  0.00000000000E+00 0. -1.
         -5    1    5    5    0  502 -0.68800783485E+02  0.49680730014E+02  0.37235847551E+02  0.92791815834E+02  0.47000000000E+01 0.  1.
         13    1    6    6    0    0  0.64553495483E+02  0.43987445565E+02 -0.22530587316E+01  0.78148099273E+02  0.00000000000E+00 0. -1.
        -14    1    6    6    0    0 -0.80785200291E+01 -0.19793347873E+02  0.28933481053E+01  0.21573376396E+02  0.00000000000E+00 0.  1.
</event>
<event>
12    1  0.8526130E-002  0.2810652E+03  0.7818608E-02  0.1095158E+00
         21   -1    0    0  501  502  0.00000000000E+00  0.00000000000E+00  0.78254753677E+03  0.78254753677E+03  0.00000000000E+00 0. -1.
         21   -1    0    0  502  503 -0.00000000000E+00 -0.00000000000E+00 -0.13101507413E+03  0.13101507413E+03  0.00000000000E+00 0. -1.
         -6    2    1    2    0  503 -0.21869434545E+03 -0.33645008285E+02  0.10631664821E+03  0.30016392160E+03  0.17273085084E+03 0.  0.
        -24    2    3    3    0    0 -0.12948230793E+03 -0.56291989730E+02  0.12718159893E+03  0.20566995579E+03  0.78679828630E+02 0.  0.
          6    2    1    2  501    0  0.21869434545E+03  0.33645008285E+02  0.54521581442E+03  0.61339868929E+03  0.17331608240E+03 0.  0.
         24    2    5    5    0    0  0.18582840125E+03  0.58201024378E+02  0.31078215140E+03  0.37535583481E+03  0.79918102728E+02 0.  0.
          5    1    5    5  501    0  0.32865944194E+02 -0.24556016093E+02  0.23443366302E+03  0.23804285449E+03  0.47000000000E+01 0. -1.
        -13    1    6    6    0    0  0.12923682315E+02 -0.14098645761E+02  0.55235820273E+02  0.58453308017E+02  0.00000000000E+00 0.  1.
         14    1    6    6    0    0  0.17290471894E+03  0.72299670139E+02  0.25554633113E+03  0.31690252679E+03  0.00000000000E+00 0. -1.
         -5    1    3    3    0  503 -0.89212037520E+02  0.22646981445E+02 -0.20864950722E+02  0.94493965816E+02  0.47000000000E+01 0.  1.
         13    1    4    4    0    0 -0.21210003464E+02  0.10209288947E+02 -0.30317412909E+01  0.23733631896E+02  0.00000000000E+00 0. -1.
        -14    1    4    4    0    0 -0.10827230446E+03 -0.66501278676E+02  0.13021334022E+03  0.18193632389E+03  0.00000000000E+00 0.  1.
</event>
<event>
12    1  0.8526130E-002  0.2338497E+03  0.7818608E-02  0.1124015E+00
         21   -1    0    0  503  502  0.00000000000E+00  0.00000000000E+00  0.16619234713E+04  0.16619234713E+04  0.00000000000E+00 0. -1.
         21   -1    0    0  501  503 -0.00000000000E+00 -0.00000000000E+00 -0.39689835906E+02  0.39689835906E+02  0.00000000000E+00 0. -1.
          6    2    1    2  501    0 -0.76359601730E+02  0.13805372451E+03  0.45863461532E+03  0.51481200378E+03  0.17261537949E+03 0.  0.
         24    2    3    3    0    0 -0.82452804522E+02  0.20342146812E+02  0.25161875598E+03  0.27654576894E+03  0.77157605248E+02 0.  0.
         -6    2    1    2    0  502  0.76359601730E+02 -0.13805372451E+03  0.11635990200E+04  0.11868013034E+04  0.17217733496E+03 0.  0.
        -24    2    5    5    0    0  0.90596411050E+02 -0.13473226589E+03  0.71161338533E+03  0.73455488516E+03  0.82563769028E+02 0.  0.
          5    1    3    3  501    0  0.60932027923E+01  0.11771157770E+03  0.20701585934E+03  0.23826623484E+03  0.47000000000E+01 0. -1.
        -11    1    4    4    0    0 -0.17399477093E+02 -0.49139862619E+01  0.30104318797E+01  0.18328986993E+02  0.00000000000E+00 0.  1.
         12    1    4    4    0    0 -0.65053327429E+02  0.25256133074E+02  0.24860832410E+03  0.25821678195E+03  0.00000000000E+00 0. -1.
         -5    1    5    5    0  502 -0.14236809320E+02 -0.33214586162E+01  0.45198563472E+03  0.45224641825E+03  0.47000000000E+01 0.  1.
         11    1    6    6    0    0  0.41276827731E+02 -0.98184335846E+02  0.57503734017E+03  0.58481782027E+03  0.00000000000E+00 0. -1.
        -12    1    6    6    0    0  0.49319583318E+02 -0.36547930047E+02  0.13657604516E+03  0.14973706489E+03  0.00000000000E+00 0.  1.
</event>
<event>
12    1  0.8526130E-002  0.2322411E+03  0.7818608E-02  0.1125220E+00
         21   -1    0    0  501  502  0.00000000000E+00  0.00000000000E+00  0.30353456465E+03  0.30353456465E+03  0.00000000000E+00 0. -1.
         21   -1    0    0  502  503 -0.00000000000E+00 -0.00000000000E+00 -0.44324991841E+03  0.44324991841E+03  0.00000000000E+00 0.  1.
         -6    2    1    2    0  503  0.34602666749E+02  0.15253237805E+03 -0.35917293446E+03  0.42725742866E+03  0.17052930127E+03 0.  0.
        -24    2    3    3    0    0  0.29529143919E+02  0.11217923462E+03 -0.35850008422E+03  0.38631039524E+03  0.85189553727E+02 0.  0.
          6    2    1    2  501    0 -0.34602666749E+02 -0.15253237805E+03  0.21945758070E+03  0.31952705440E+03  0.17167538516E+03 0.  0.
         24    2    5    5    0    0 -0.67641102649E+02 -0.10704834368E+03  0.87742395268E+02  0.17623952633E+03  0.85597757333E+02 0.  0.
          5    1    5    5  501    0  0.33038435900E+02 -0.45484034367E+02  0.13171518543E+03  0.14328752807E+03  0.47000000000E+01 0. -1.
        -11    1    6    6    0    0  0.45559442916E+01  0.12200373940E+02  0.40217263530E+01  0.13630115023E+02  0.00000000000E+00 0.  1.
         12    1    6    6    0    0 -0.72197046941E+02 -0.11924871762E+03  0.83720668915E+02  0.16260941131E+03  0.00000000000E+00 0. -1.
         -5    1    3    3    0  503  0.50735228309E+01  0.40353143426E+02 -0.67285024623E+00  0.40947033418E+02  0.47000000000E+01 0.  1.
         13    1    4    4    0    0  0.19058955064E+02 -0.98428986400E+01 -0.53078832886E+02  0.57249357396E+02  0.00000000000E+00 0. -1.
        -14    1    4    4    0    0  0.10470188854E+02  0.12202213326E+03 -0.30542125133E+03  0.32906103784E+03  0.00000000000E+00 0.  1.
</event>
<event>
12    1  0.8526130E-002  0.2011273E+03  0.7818608E-02  0.1149258E+00
         21   -1    0    0  503  502  0.00000000000E+00  0.00000000000E+00  0.57718136332E+02  0.57718136332E+02  0.00000000000E+00 0.  1.
         21   -1    0    0  501  503 -0.00000000000E+00 -0.00000000000E+00 -0.76921404988E+03  0.76921404988E+03  0.00000000000E+00 0.  1.
          6    2    1    2  501    0  0.75189915510E+02 -0.66019244085E+02 -0.22397232055E+03  0.29955050617E+03  0.17191521570E+03 0.  0.
         24    2    3    3    0    0  0.30919383455E+02 -0.18933952538E+02 -0.24937161900E+02  0.90232592296E+02  0.78775350440E+02 0.  0.
         -6    2    1    2    0  502 -0.75189915510E+02  0.66019244085E+02 -0.48752359299E+03  0.52738168004E+03  0.17447096817E+03 0.  0.
        -24    2    5    5    0    0 -0.12207709845E+03  0.46540592160E+02 -0.37362526961E+03  0.40259087960E+03  0.73584845992E+02 0.  0.
          5    1    3    3  501    0  0.44270532055E+02 -0.47085291547E+02 -0.19903515865E+03  0.20931791387E+03  0.47000000000E+01 0. -1.
        -11    1    4    4    0    0  0.46322969920E+02 -0.14898305360E+02 -0.43854465437E+02  0.65505657645E+02  0.00000000000E+00 0.  1.
         12    1    4    4    0    0 -0.15403586465E+02 -0.40356471787E+01  0.18917303537E+02  0.24726934651E+02  0.00000000000E+00 0. -1.
         -5    1    5    5    0  502  0.46887182944E+02  0.19478651925E+02 -0.11389832338E+03  0.12479080044E+03  0.47000000000E+01 0.  1.
         13    1    6    6    0    0 -0.48601741356E+01  0.21307739413E+02 -0.12096855473E+03  0.12292693881E+03  0.00000000000E+00 0. -1.
        -14    1    6    6    0    0 -0.11721692432E+03  0.25232852747E+02 -0.25265671489E+03  0.27966394080E+03  0.00000000000E+00 0.  1.
</event>
<event>
12    1  0.8526130E-002  0.1937429E+03  0.7818608E-02  0.1155777E+00
         21   -1    0    0  501  502  0.00000000000E+00  0.00000000000E+00  0.13435517141E+04  0.13435517141E+04  0.00000000000E+00 0.  1.
         21   -1    0    0  502  503 -0.00000000000E+00 -0.00000000000E+00 -0.37260939042E+02  0.37260939042E+02  0.00000000000E+00 0.  1.
         -6    2    1    2    0  503 -0.60189666473E+02 -0.57409356311E+02  0.29643898580E+03  0.35254374462E+03  0.17173348371E+03 0.  0.
        -24    2    3    3    0    0 -0.30997697028E+02 -0.64743958193E+02  0.30269214194E+03  0.32144455771E+03  0.80940926249E+02 0.  0.
          6    2    1    2  501    0  0.60189666473E+02  0.57409356311E+02  0.10098517892E+04  0.10282689085E+04  0.17497908967E+03 0.  0.
         24    2    5    5    0    0  0.10272763366E+03  0.55889417170E+02  0.88466683961E+03  0.89596187739E+03  0.80222658677E+02 0.  0.
          5    1    5    5  501    0 -0.42537967189E+02  0.15199391413E+01  0.12518494961E+03  0.13230703109E+03  0.47000000000E+01 0. -1.
        -13    1    6    6    0    0  0.14295164346E+02  0.51242061764E+02  0.31902085495E+03  0.32342604488E+03  0.00000000000E+00 0.  1.
         14    1    6    6    0    0  0.88432469317E+02  0.46473554059E+01  0.56564598467E+03  0.57253583251E+03  0.00000000000E+00 0. -1.
         -5    1    3    3    0  503 -0.29191969445E+02  0.73346018819E+01 -0.62531561431E+01  0.31099186912E+02  0.47000000000E+01 0.  1.
         13    1    4    4    0    0 -0.31968050836E+02 -0.64688629491E+01  0.20583967183E+03  0.20840770850E+03  0.00000000000E+00 0. -1.
        -14    1    4    4    0    0  0.97035380738E+00 -0.58275095244E+02  0.96852470112E+02  0.11303684921E+03  0.00000000000E+00 0.  1.
</event>
<event>
12    1  0.8526130E-002  0.1780469E+03  0.7818608E-02  0.1170355E+00
         21   -1    0    0  503  502  0.00000000000E+00  0.00000000000E+00  0.42959295194E+03  0.42959295194E+03  0.00000000000E+00 0.  1.
         21   -1    0    0  501  503 -0.00000000000E+00 -0.00000000000E+00 -0.11999529038E+03  0.11999529038E+03  0.00000000000E+00 0.  1.
          6    2    1    2  501    0  0.46108835318E+02 -0.18247210604E+02 -0.18391548659E+02  0.17638908371E+03  0.16827321356E+03 0.  0.
         24    2    3    3    0    0 -0.17645599711E+02  0.23438126376E+02  0.25054150182E+02  0.88571579462E+02  0.79727669538E+02 0.  0.
         -6    2    1    2    0  502 -0.46108835318E+02  0.18247210604E+02  0.32798921023E+03  0.37319915860E+03  0.17100206013E+03 0.  0.
        -24    2    5    5    0    0 -0.26165432467E+02 -0.45370203714E+02  0.11622611677E+03  0.15113922870E+03  0.81187874647E+02 0.  0.
          5    1    3    3  501    0  0.63754435028E+02 -0.41685336980E+02 -0.43445698842E+02  0.87817504251E+02  0.47000000000E+01 0. -1.
        -13    1    4    4    0    0  0.26249855323E+01 -0.22815643934E+02 -0.12021746591E+02  0.25922317571E+02  0.00000000000E+00 0.  1.
         14    1    4    4    0    0 -0.20270585243E+02  0.46253770310E+02  0.37075896773E+02  0.62649261891E+02  0.00000000000E+00 0. -1.
         -5    1    5    5    0  502 -0.19943402851E+02  0.63617414317E+02  0.21176309345E+03  0.22205992991E+03  0.47000000000E+01 0.  1.
         11    1    6    6    0    0  0.14601183394E+02  0.12869863452E+02  0.67391010205E+01  0.20597170299E+02  0.00000000000E+00 0. -1.
        -12    1    6    6    0    0 -0.40766615861E+02 -0.58240067165E+02  0.10948701575E+03  0.13054205840E+03  0.00000000000E+00 0.  1.
</event>
<event>
12    1  0.8526130E-002  0.2062138E+03  0.7818608E-02  0.1144770E+00
         21   -1    0    0  501  502  0.00000000000E+00  0.00000000000E+00  0.35016703052E+03  0.35016703052E+03  0.00000000000E+00 0. -1.
         21   -1    0    0  502  503 -0.00000000000E+00 -0.00000000000E+00 -0.12464682682E+03  0.12464682682E+03  0.00000000000E+00 0.  1.
         -6    2    1    2    0  503  0.11531852983E+02 -0.11254100768E+03  0.71629522622E+02  0.21750771141E+03  0.17140698344E+03 0.  0.
        -24    2    3    3    0    0 -0.45142920144E+02 -0.10545956166E+03  0.23442183320E+02  0.14263257231E+03  0.81454971242E+02 0.  0.
          6    2    1    2  501    0 -0.11531852983E+02  0.11254100768E+03  0.15389068108E+03  0.25730614593E+03  0.17241127854E+03 0.  0.
         24    2    5    5    0    0 -0.25112351709E+01  0.13899215367E+03  0.16123276479E+03  0.22803105646E+03  0.81713115139E+02 0.  0.
          5    1    5    5  501    0 -0.90206178124E+01 -0.26451145993E+02 -0.73420837117E+01  0.29275089467E+02  0.47000000000E+01 0. -1.
        -13    1    6    6    0    0 -0.13826474975E+02 -0.20365448222E+01  0.61919989834E+00  0.13989365016E+02  0.00000000000E+00 0.  1.
         14    1    6    6    0    0  0.11315239804E+02  0.14102869849E+03  0.16061356489E+03  0.21404169144E+03  0.00000000000E+00 0. -1.
         -5    1    3    3    0  503  0.56674773128E+02 -0.70814460138E+01  0.48187339302E+02  0.74875139103E+02  0.47000000000E+01 0.  1.
         13    1    4    4    0    0 -0.51735487520E+02 -0.68429749956E+02  0.47427791969E+02  0.98023399243E+02  0.00000000000E+00 0. -1.
        -14    1    4    4    0    0  0.65925673757E+01 -0.37029811706E+02 -0.23985608649E+02  0.44609173068E+02  0.00000000000E+00 0.  1.
</event>
<event>
12    1  0.8526130E-002  0.1879518E+03  0.7818608E-02  0.1161512E+00
         21   -1    0    0  501  502  0.00000000000E+00  0.00000000000E+00  0.32235170955E+03  0.32235170955E+03  0.00000000000E+00 0.  1.
         21   -1    0    0  502  503 -0.00000000000E+00 -0.00000000000E+00 -0.10975170945E+03  0.10975170945E+03  0.00000000000E+00 0.  1.
         -6    2    1    2    0  503 -0.62888712776E+02 -0.41084521555E+02  0.14137210409E+03  0.23110764615E+03  0.16667856547E+03 0.  0.
        -24    2    3    3    0    0 -0.94322640854E+02 -0.50439004444E+01  0.64296121847E+02  0.14027915258E+03  0.81375966082E+02 0.  0.
          6    2    1    2  501    0  0.62888712776E+02  0.41084521555E+02  0.71227896005E+02  0.20099577285E+03  0.17228743259E+03 0.  0.
         24    2    5    5    0    0 -0.24118245040E+02  0.49054552413E+02  0.50315274721E+02  0.11103378183E+03  0.82515665058E+02 0.  0.
          5    1    5    5  501    0  0.87006957815E+02 -0.79700308582E+01  0.20912621284E+02  0.89961991025E+02  0.47000000000E+01 0. -1.
        -11    1    6    6    0    0  0.14655020220E+02 -0.16378857332E+02  0.17944455713E+02  0.28373228156E+02  0.00000000000E+00 0.  1.
         12    1    6    6    0    0 -0.38773265260E+02  0.65433409744E+02  0.32370819008E+02  0.82660553670E+02  0.00000000000E+00 0. -1.
         -5    1    3    3    0  503  0.31433928078E+02 -0.36040621110E+02  0.77075982248E+02  0.90828493569E+02  0.47000000000E+01 0.  1.
         11    1    4    4    0    0  0.12943900030E+02  0.73948287641E+01  0.16357034302E+02  0.22130987587E+02  0.00000000000E+00 0. -1.
        -12    1    4    4    0    0 -0.10726654088E+03 -0.12438729208E+02  0.47939087545E+02  0.11814816500E+03  0.00000000000E+00 0.  1.
</event>
<event>
12    1  0.8526130E-002  0.1831494E+03  0.7818608E-02  0.1165035E+00
         21   -1    0    0  501  502  0.00000000000E+00  0.00000000000E+00  0.35823777816E+02  0.35823777816E+02  0.00000000000E+00 0.  1.
         21   -1    0    0  502  503 -0.00000000000E+00 -0.00000000000E+00 -0.10765288392E+04  0.10765288392E+04  0.00000000000E+00 0.  1.
         -6    2    1    2    0  503 -0.53345198896E+02  0.30493927112E+02 -0.72352387919E+03  0.74609094673E+03  0.17143309831E+03 0.  0.
        -24    2    3    3    0    0  0.14301438510E+02 -0.19612562952E+02 -0.50194513603E+03  0.50901299052E+03  0.80969878139E+02 0.  0.
          6    2    1    2  501    0  0.53345198896E+02 -0.30493927112E+02 -0.31718118222E+03  0.36626167032E+03  0.17253439933E+03 0.  0.
         24    2    5    5    0    0  0.52161102785E+02  0.19596160654E+02 -0.86501411825E+02  0.13015647036E+03  0.79708358237E+02 0.  0.
          5    1    5    5  501    0  0.11840961112E+01 -0.50090087766E+02 -0.23067977040E+03  0.23610519996E+03  0.47000000000E+01 0. -1.
        -11    1    6    6    0    0  0.51409401509E+02  0.25032711217E+02 -0.10021786485E+03  0.11538277007E+03  0.00000000000E+00 0.  1.
         12    1    6    6    0    0  0.75170127528E+00 -0.54365505626E+01  0.13716453021E+02  0.14773700292E+02  0.00000000000E+00 0. -1.
         -5    1    3    3    0  503 -0.67646637406E+02  0.50106490063E+02 -0.22157874317E+03  0.23707795621E+03  0.47000000000E+01 0.  1.
         13    1    4    4    0    0  0.10956356061E+02  0.24148982731E+02 -0.34584692989E+03  0.34686209654E+03  0.00000000000E+00 0. -1.
        -14    1    4    4    0    0  0.33450824490E+01 -0.43761545683E+02 -0.15609820614E+03  0.16215089397E+03  0.00000000000E+00 0.  1.
</event>
<event>
12    1  0.8526130E-002  0.1944625E+03  0.7818608E-02  0.1157897E+00
         21   -1    0    0  501  502  0.00000000000E+00  0.00000000000E+00  0.49296749152E+02  0.49296749152E+02  0.00000000000E+00 0. -1.
         21   -1    0    0  502  503 -0.00000000000E+00 -0.00000000000E+00 -0.10090683309E+04  0.10090683309E+04  0.00000000000E+00 0. -1.
         -6    2    1    2    0  503 -0.19014974333E+02 -0.43038161667E+02 -0.78150617547E+03  0.80533692377E+03  0.18868440816E+03 0.  0.
        -24    2    3    3    0    0  0.42233810713E+02 -0.76472026761E+02 -0.57937957116E+03  0.59145262988E+03  0.80646514286E+02 0.  0.
          6    2    1    2  501    0  0.19014974333E+02  0.43038161667E+02 -0.17826540625E+03  0.25302815625E+03  0.17329408583E+03 0.  0.
         24    2    5    5    0    0  0.17736590816E+02  0.21164935207E+02 -0.49386749504E+01  0.78258828042E+02  0.73058281667E+02 0.  0.
          5    1    5    5  501    0  0.12783835175E+01  0.21873226460E+02 -0.17332673130E+03  0.17476932821E+03  0.47000000000E+01 0. -1.
        -11    1    6    6    0    0 -0.27764438043E+02  0.85865016864E+01 -0.10106828138E+02  0.30769140483E+02  0.00000000000E+00 0.  1.
         12    1    6    6    0    0  0.45501028859E+02  0.12578433521E+02  0.51681531879E+01  0.47489687559E+02  0.00000000000E+00 0. -1.
         -5    1    3    3    0  503 -0.61248785047E+02  0.33433865094E+02 -0.20212660431E+03  0.21388429390E+03  0.47000000000E+01 0.  1.
         13    1    4    4    0    0 -0.19182124412E+02 -0.24915227152E+02 -0.27099847262E+03  0.27281659517E+03  0.00000000000E+00 0. -1.
        -14    1    4    4    0    0  0.61415935126E+02 -0.51556799609E+02 -0.30838109854E+03  0.31863603470E+03  0.00000000000E+00 0.  1.
</event>
<event>
12    1  0.8526130E-002  0.2282942E+03  0.7818608E-02  0.1130792E+00
         21   -1    0    0  503  502  0.00000000000E+00  0.00000000000E+00  0.64826528501E+03  0.64826528501E+03  0.00000000000E+00 0.  1.
         21   -1    0    0  501  503 -0.00000000000E+00 -0.00000000000E+00 -0.82214640696E+02  0.82214640696E+02  0.00000000000E+00 0. -1.
          6    2    1    2  501    0  0.17179562077E+02  0.12521173806E+03  0.18330961013E+03  0.29278086591E+03  0.19011866183E+03 0.  0.
         24    2    3    3    0    0 -0.44700449464E+02  0.10702642596E+03  0.57124376816E+02  0.15099001814E+03  0.77987211233E+02 0.  0.
         -6    2    1    2    0  502 -0.17179562077E+02 -0.12521173806E+03  0.38274103418E+03  0.43769905979E+03  0.17063601905E+03 0.  0.
        -24    2    5    5    0    0 -0.22545197946E+02 -0.72131307019E+02  0.97401436679E+02  0.14737665606E+03  0.80756594042E+02 0.  0.
          5    1    3    3  501    0  0.61880011541E+02  0.18185312106E+02  0.12618523332E+03  0.14179084777E+03  0.47000000000E+01 0. -1.
        -11    1    4    4    0    0 -0.54565806300E+02  0.43436641473E+02  0.83452692993E+01  0.70241103062E+02  0.00000000000E+00 0.  1.
         12    1    4    4    0    0  0.98653568360E+01  0.63589784484E+02  0.48779107517E+02  0.80748915079E+02  0.00000000000E+00 0. -1.
         -5    1    5    5    0  502  0.53656358684E+01 -0.53080431045E+02  0.28533959750E+03  0.29032240373E+03  0.47000000000E+01 0.  1.
         11    1    6    6    0    0 -0.26530028542E+02 -0.91105998530E+01  0.75495608819E+02  0.80538390815E+02  0.00000000000E+00 0. -1.
        -12    1    6    6    0    0  0.39848305964E+01 -0.63020707166E+02  0.21905827860E+02  0.66838265244E+02  0.00000000000E+00 0.  1.
</event>
<event>
12    1  0.8526130E-002  0.1931438E+03  0.7818608E-02  0.1156385E+00
         21   -1    0    0  503  502  0.00000000000E+00  0.00000000000E+00  0.74509137695E+03  0.74509137695E+03  0.00000000000E+00 0. -1.
         21   -1    0    0  501  503 -0.00000000000E+00 -0.00000000000E+00 -0.55304455321E+02  0.55304455321E+02  0.00000000000E+00 0.  1.
          6    2    1    2  501    0  0.79511884802E+02 -0.38389298976E+02  0.21480451831E+03  0.28886934905E+03  0.17178079530E+03 0.  0.
         24    2    3    3    0    0  0.51368649770E+02 -0.82978967896E+01  0.29640896088E+02  0.99119010029E+02  0.78983556250E+02 0.  0.
         -6    2    1    2    0  502 -0.79511884802E+02  0.38389298976E+02  0.47498240331E+03  0.51152648321E+03  0.16809277639E+03 0.  0.
        -24    2    5    5    0    0 -0.10500592271E+03  0.10988835293E+01  0.26216606205E+03  0.29391810525E+03  0.81420864371E+02 0.  0.
          5    1    3    3  501    0  0.28143235032E+02 -0.30091402186E+02  0.18516362223E+03  0.18975033902E+03  0.47000000000E+01 0. -1.
        -11    1    4    4    0    0  0.11016254967E+02 -0.34045685190E+02 -0.97941552156E+01  0.37099757815E+02  0.00000000000E+00 0.  1.
         12    1    4    4    0    0  0.40352394802E+02  0.25747788400E+02  0.39435051304E+02  0.62019252214E+02  0.00000000000E+00 0. -1.
         -5    1    5    5    0  502  0.25494037904E+02  0.37290415446E+02  0.21281634126E+03  0.21760837796E+03  0.47000000000E+01 0.  1.
         13    1    6    6    0    0 -0.97398768496E+02 -0.25090659275E+02  0.23406201772E+03  0.25475692224E+03  0.00000000000E+00 0. -1.
        -14    1    6    6    0    0 -0.76071542097E+01  0.26189542804E+02  0.28104044330E+02  0.39161183015E+02  0.00000000000E+00 0.  1.
</event>
<event>
12    1  0.8526130E-002  0.1953659E+03  0.7818608E-02  0.1153848E+00
         21   -1    0    0  503  502  0.00000000000E+00  0.00000000000E+00  0.53731502387E+03  0.53731502387E+03  0.00000000000E+00 0.  1.
         21   -1    0    0  501  503 -0.00000000000E+00 -0.00000000000E+00 -0.11529209917E+03  0.11529209917E+03  0.00000000000E+00 0.  1.
          6    2    1    2  501    0  0.69060172540E+02 -0.60207540926E+02  0.85248923988E+01  0.19555182658E+03  0.17255024681E+03 0.  0.
         24    2    3    3    0    0  0.10018480769E+03 -0.65361680125E+02 -0.28427884091E+02  0.14673681092E+03  0.80089962939E+02 0.  0.
         -6    2    1    2    0  502 -0.69060172540E+02  0.60207540926E+02  0.41349803230E+03  0.45705529646E+03  0.17182743055E+03 0.  0.
        -24    2    5    5    0    0 -0.38763194031E+02  0.52336487139E+02  0.10166292819E+03  0.14361777070E+03  0.77775445974E+02 0.  0.
          5    1    3    3  501    0 -0.31124635150E+02  0.51541391981E+01  0.36952776490E+02  0.48815015666E+02  0.47000000000E+01 0. -1.
        -11    1    4    4    0    0  0.34006598164E+02  0.17118779542E+02 -0.10359642625E+02  0.39456603085E+02  0.00000000000E+00 0.  1.
         12    1    4    4    0    0  0.66178209526E+02 -0.82480459666E+02 -0.18068241466E+02  0.10728020783E+03  0.00000000000E+00 0. -1.
         -5    1    5    5    0  502 -0.30296978509E+02  0.78710537874E+01  0.31183510412E+03  0.31343752576E+03  0.47000000000E+01 0.  1.
         11    1    6    6    0    0 -0.29327551940E+02  0.67975252577E+02  0.10114745612E+03  0.12534571451E+03  0.00000000000E+00 0. -1.
        -12    1    6    6    0    0 -0.94356420914E+01 -0.15638765438E+02  0.51547206519E+00  0.18272056194E+02  0.00000000000E+00 0.  1.
</event>
<event>
12    1  0.8526130E-002  0.2000861E+03  0.7818608E-02  0.1153007E+00
         21   -1    0    0  503  502  0.00000000000E+00  0.00000000000E+00  0.96784700079E+03  0.96784700079E+03  0.00000000000E+00 0.  1.
         21   -1    0    0  501  503 -0.00000000000E+00 -0.00000000000E+00 -0.51174897540E+02  0.51174897540E+02  0.00000000000E+00 0. -1.
          6    2    1    2  501    0 -0.99333635886E+01 -0.10147982308E+03  0.21628715770E+03  0.29464311606E+03  0.17215575810E+03 0.  0.
         24    2    3    3    0    0  0.30943529191E+02 -0.10967831612E+03  0.21026250461E+03  0.25225771649E+03  0.80229668198E+02 0.  0.
         -6    2    1    2    0  502  0.99333635886E+01  0.10147982308E+03  0.70038494555E+03  0.72437878227E+03  0.15423592984E+03 0.  0.
        -24    2    5    5    0    0 -0.43450027011E+02  0.96458604642E+02  0.46193575404E+03  0.47993020699E+03  0.75869595135E+02 0.  0.
          5    1    3    3  501    0 -0.40876892779E+02  0.81984930339E+01  0.60246530883E+01  0.42385399563E+02  0.47000000000E+01 0. -1.
        -13    1    4    4    0    0 -0.14191697785E+01  0.14118179971E+00  0.75141597460E+02  0.75155130523E+02  0.00000000000E+00 0.  1.
         14    1    4    4    0    0  0.32362698969E+02 -0.10981949792E+03  0.13512090715E+03  0.17710258597E+03  0.00000000000E+00 0. -1.
         -5    1    5    5    0  502  0.53383390599E+02  0.50212184422E+01  0.23844919150E+03  0.24444857528E+03  0.47000000000E+01 0.  1.
         13    1    6    6    0    0  0.18328973993E+02  0.39162736750E+02  0.11365830047E+03  0.12160542958E+03  0.00000000000E+00 0. -1.
        -14    1    6    6    0    0 -0.61779001004E+02  0.57295867891E+02  0.34827745357E+03  0.35832477741E+03  0.00000000000E+00 0.  1.
</event>
<event>
12    1  0.8526130E-002  0.2210611E+03  0.7818608E-02  0.1133124E+00
         21   -1    0    0  503  502  0.00000000000E+00  0.00000000000E+00  0.47778705938E+03  0.47778705938E+03  0.00000000000E+00 0.  1.
         21   -1    0    0  501  503 -0.00000000000E+00 -0.00000000000E+00 -0.10540426890E+03  0.10540426890E+03  0.00000000000E+00 0. -1.
          6    2    1    2  501    0 -0.12557201181E+03  0.60012189221E+02  0.13533839644E+03  0.25906474575E+03  0.17154669316E+03 0.  0.
         24    2    3    3    0    0 -0.10588209029E+03  0.35283872829E+00  0.26053825901E+02  0.13292142064E+03  0.76014213694E+02 0.  0.
         -6    2    1    2    0  502  0.12557201181E+03 -0.60012189221E+02  0.23704439405E+03  0.32412658253E+03  0.17175041120E+03 0.  0.
        -24    2    5    5    0    0  0.82487692986E+02  0.21492121313E+02  0.18519002183E+03  0.21824845881E+03  0.77916075460E+02 0.  0.
          5    1    3    3  501    0 -0.19689921522E+02  0.59659350493E+02  0.10928457054E+03  0.12614332511E+03  0.47000000000E+01 0. -1.
        -11    1    4    4    0    0 -0.87038851237E+02  0.93116184587E+01  0.50280618416E+02  0.10094854358E+03  0.00000000000E+00 0.  1.
         12    1    4    4    0    0 -0.18843239049E+02 -0.89587797304E+01 -0.24226792515E+02  0.31972877063E+02  0.00000000000E+00 0. -1.
         -5    1    5    5    0  502  0.43084318823E+02 -0.81504310534E+02  0.51854372218E+02  0.10587812372E+03  0.47000000000E+01 0.  1.
         13    1    6    6    0    0 -0.68572428696E+01  0.23559093726E+02  0.26435628949E+02  0.36067924184E+02  0.00000000000E+00 0. -1.
        -14    1    6    6    0    0  0.89344935855E+02 -0.20669724136E+01  0.15875439288E+03  0.18218053462E+03  0.00000000000E+00 0.  1.
</event>
<event>
12    1  0.8526130E-002  0.1916819E+03  0.7818608E-02  0.1157315E+00
         21   -1    0    0  503  502  0.00000000000E+00  0.00000000000E+00  0.40317294262E+03  0.40317294262E+03  0.00000000000E+00 0. -1.
         21   -1    0    0  501  503 -0.00000000000E+00 -0.00000000000E+00 -0.18330937134E+03  0.18330937134E+03  0.00000000000E+00 0. -1.
          6    2    1    2  501    0  0.64233804981E+02 -0.48267373811E+02 -0.99103000532E+02  0.21435112422E+03  0.17224772470E+03 0.  0.
         24    2    3    3    0    0  0.10059527770E+03 -0.76665605820E+01 -0.42191791130E+02  0.13541090324E+03  0.79861000691E+02 0.  0.
         -6    2    1    2    0  502 -0.64233804981E+02  0.48267373811E+02  0.31896657182E+03  0.37213118974E+03  0.17402938648E+03 0.  0.
        -24    2    5    5    0    0 -0.10895760160E+03  0.19454471570E+02  0.20179651573E+03  0.24336274110E+03  0.79078154912E+02 0.  0.
          5    1    3    3  501    0 -0.36361472717E+02 -0.40600813229E+02 -0.56911209402E+02  0.78940220982E+02  0.47000000000E+01 0. -1.
        -13    1    4    4    0    0  0.38715945170E+00 -0.11592601453E+02 -0.32678172100E+02  0.34675657639E+02  0.00000000000E+00 0.  1.
         14    1    4    4    0    0  0.10020811825E+03  0.39260408711E+01 -0.95136190300E+01  0.10073524560E+03  0.00000000000E+00 0. -1.
         -5    1    5    5    0  502  0.44723796621E+02  0.28812902241E+02  0.11717005609E+03  0.12876844863E+03  0.47000000000E+01 0.  1.
         13    1    6    6    0    0 -0.70428521854E+02 -0.26634268265E+02  0.10024579364E+03  0.12537455914E+03  0.00000000000E+00 0. -1.
        -14    1    6    6    0    0 -0.38529079748E+02  0.46088739835E+02  0.10155072209E+03  0.11798818196E+03  0.00000000000E+00 0.  1.
</event>
<event>
12    1  0.8526130E-002  0.2054623E+03  0.7818608E-02  0.1147062E+00
         21   -1    0    0  503  502  0.00000000000E+00  0.00000000000E+00  0.27550857272E+03  0.27550857272E+03  0.00000000000E+00 0.  1.
         21   -1    0    0  501  503 -0.00000000000E+00 -0.00000000000E+00 -0.16370630356E+03  0.16370630356E+03  0.00000000000E+00 0. -1.
          6    2    1    2  501    0 -0.51021083184E+02 -0.77947805005E+02 -0.13807145878E+02  0.20592570770E+03  0.18312768382E+03 0.  0.
         24    2    3    3    0    0 -0.10770073201E+02  0.25085166388E+02 -0.37856127756E+02  0.92627956052E+02  0.80009948033E+02 0.  0.
         -6    2    1    2    0  502  0.51021083184E+02  0.77947805005E+02  0.12560941504E+03  0.23328916857E+03  0.17311007999E+03 0.  0.
        -24    2    5    5    0    0  0.38047354123E+02 -0.12069584202E+02  0.10858789161E+03  0.14064322821E+03  0.79974442287E+02 0.  0.
          5    1    3    3  501    0 -0.40251009982E+02 -0.10303297139E+03  0.24048981878E+02  0.11329775165E+03  0.47000000000E+01 0. -1.
        -13    1    4    4    0    0  0.20055343919E+02 -0.20498593256E+02 -0.69227322311E+01  0.29501412961E+02  0.00000000000E+00 0.  1.
         14    1    4    4    0    0 -0.30825417120E+02  0.45583759644E+02 -0.30933395524E+02  0.63126543091E+02  0.00000000000E+00 0. -1.
         -5    1    5    5    0  502  0.12973729061E+02  0.90017389208E+02  0.17021523424E+02  0.92645940360E+02  0.47000000000E+01 0.  1.
         13    1    6    6    0    0  0.45761429318E+02  0.35346236928E+01  0.11360621219E+03  0.12252743948E+03  0.00000000000E+00 0. -1.
        -14    1    6    6    0    0 -0.77140751951E+01 -0.15604207895E+02 -0.50183205732E+01  0.18115788736E+02  0.00000000000E+00 0.  1.
</event>
<event>
12    1  0.8526130E-002  0.1796021E+03  0.7818608E-02  0.1168407E+00
         21   -1    0    0  503  502  0.00000000000E+00  0.00000000000E+00  0.22461946219E+03  0.22461946219E+03  0.00000000000E+00 0. -1.
         21   -1    0    0  501  503 -0.00000000000E+00 -0.00000000000E+00 -0.29295714099E+03  0.29295714099E+03  0.00000000000E+00 0. -1.
          6    2    1    2  501    0 -0.22053645016E+02  0.44107105209E+02 -0.21934489747E+03  0.28292773099E+03  0.17176762480E+03 0.  0.
         24    2    3    3    0    0 -0.81735892538E+02  0.30012537752E+02 -0.15055785850E+03  0.19065436413E+03  0.78101915832E+02 0.  0.
         -6    2    1    2    0  502  0.22053645016E+02 -0.44107105209E+02  0.15100721867E+03  0.23464887219E+03  0.17269948796E+03 0.  0.
        -24    2    5    5    0    0  0.34145398863E+02 -0.50012831249E+00  0.16632719577E+03  0.18664292835E+03  0.77489923599E+02 0.  0.
          5    1    3    3  501    0  0.59682247521E+02  0.14094567457E+02 -0.68787038969E+02  0.92273366857E+02  0.47000000000E+01 0. -1.
        -11    1    4    4    0    0 -0.24770839625E+02 -0.79795977185E+01 -0.85831827079E+00  0.26038532711E+02  0.00000000000E+00 0.  1.
         12    1    4    4    0    0 -0.56965052912E+02  0.37992135471E+02 -0.14969954023E+03  0.16461583142E+03  0.00000000000E+00 0. -1.
         -5    1    5    5    0  502 -0.12091753847E+02 -0.43606976896E+02 -0.15319977101E+02  0.48005943835E+02  0.47000000000E+01 0.  1.
         13    1    6    6    0    0 -0.11563191114E+02 -0.68937278437E+01 -0.57734270215E+00  0.13474575945E+02  0.00000000000E+00 0. -1.
        -14    1    6    6    0    0  0.45708589977E+02  0.63935995313E+01  0.16690453847E+03  0.17316835241E+03  0.00000000000E+00 0.  1.
</event>
<event>
12    1  0.8526130E-002  0.2547645E+03  0.7818608E-02  0.1110476E+00
         21   -1    0    0  501  502  0.00000000000E+00  0.00000000000E+00  0.46493121912E+03  0.46493121912E+03  0.00000000000E+00 0. -1.
         21   -1    0    0  502  503 -0.00000000000E+00 -0.00000000000E+00 -0.30116137813E+03  0.30116137813E+03  0.00000000000E+00 0.  1.
         -6    2    1    2    0  503 -0.91006354933E+02 -0.16371976213E+03 -0.19918792759E+03  0.32264779647E+03  0.17128763213E+03 0.  0.
        -24    2    3    3    0    0 -0.11209819034E+03 -0.75293277015E+02 -0.13907036504E+03  0.21355920808E+03  0.89620796039E+02 0.  0.
          6    2    1    2  501    0  0.91006354933E+02  0.16371976213E+03  0.36295776858E+03  0.44344480078E+03  0.17268072393E+03 0.  0.
         24    2    5    5    0    0  0.10577641948E+03  0.10868345698E+03  0.16798084488E+03  0.24025710316E+03  0.80654613196E+02 0.  0.
          5    1    5    5  501    0 -0.14770064551E+02  0.55036305148E+02  0.19497692369E+03  0.20318769762E+03  0.47000000000E+01 0. -1.
        -13    1    6    6    0    0  0.27901519632E+02  0.65150501387E+02  0.32335389462E+02  0.77901604863E+02  0.00000000000E+00 0.  1.
         14    1    6    6    0    0  0.77874899852E+02  0.43532955596E+02  0.13564545542E+03  0.16235549830E+03  0.00000000000E+00 0. -1.
         -5    1    3    3    0  503  0.21091835403E+02 -0.88426485116E+02 -0.60117562550E+02  0.10908858839E+03  0.47000000000E+01 0.  1.
         13    1    4    4    0    0 -0.11376967878E+03 -0.57366977700E+02 -0.76873059203E+02  0.14880852519E+03  0.00000000000E+00 0. -1.
        -14    1    4    4    0    0  0.16714884395E+01 -0.17926299316E+02 -0.62197305836E+02  0.64750682885E+02  0.00000000000E+00 0.  1.
</event>
<event>
12    1  0.8526130E-002  0.1770274E+03  0.7818608E-02  0.1172220E+00
         21   -1    0    0  501  502  0.00000000000E+00  0.00000000000E+00  0.60642500215E+03  0.60642500215E+03  0.00000000000E+00 0.  1.
         21   -1    0    0  502  503 -0.00000000000E+00 -0.00000000000E+00 -0.81977900567E+02  0.81977900567E+02  0.00000000000E+00 0.  1.
         -6    2    1    2    0  503  0.38189770778E+02  0.18900500919E+02  0.49828800008E+02  0.18390653432E+03  0.17182263102E+03 0.  0.
        -24    2    3    3    0    0 -0.11434704149E+02  0.67103318283E+02  0.41250653225E+02  0.11403683620E+03  0.81665022106E+02 0.  0.
          6    2    1    2  501    0 -0.38189770778E+02 -0.18900500919E+02  0.47461830158E+03  0.50449636840E+03  0.16564530179E+03 0.  0.
         24    2    5    5    0    0 -0.10866623726E+02  0.21531166616E+02  0.43073425518E+03  0.43869991232E+03  0.79648853304E+02 0.  0.
          5    1    5    5  501    0 -0.27323147052E+02 -0.40431667535E+02  0.43884046394E+02  0.65796456078E+02  0.47000000000E+01 0. -1.
        -13    1    6    6    0    0  0.32790947669E+02  0.17763757034E+02  0.24780054790E+03  0.25059111886E+03  0.00000000000E+00 0.  1.
         14    1    6    6    0    0 -0.43657571395E+02  0.37674095817E+01  0.18293370728E+03  0.18810879346E+03  0.00000000000E+00 0. -1.
         -5    1    3    3    0  503  0.49624474927E+02 -0.48202817364E+02  0.85781467825E+01  0.69869698123E+02  0.47000000000E+01 0.  1.
         11    1    4    4    0    0 -0.20123063600E+02  0.61534437628E+02  0.62767556407E+02  0.90173115950E+02  0.00000000000E+00 0. -1.
        -12    1    4    4    0    0  0.86883594515E+01  0.55688806546E+01 -0.21516903181E+02  0.23863720251E+02  0.00000000000E+00 0.  1.
</event>
<event>
12    1  0.8526130E-002  0.1793717E+03  0.7818608E-02  0.1171071E+00
         21   -1    0    0  501  502  0.00000000000E+00  0.00000000000E+00  0.10859671712E+03  0.10859671712E+03  0.00000000000E+00 0. -1.
         21   -1    0    0  502  503 -0.00000000000E+00 -0.00000000000E+00 -0.28284218116E+03  0.28284218116E+03  0.00000000000E+00 0. -1.
         -6    2    1    2    0  503 -0.46209349814E+02 -0.94779582455E+01 -0.11241632502E+03  0.21168762911E+03  0.17305804369E+03 0.  0.
        -24    2    3    3    0    0 -0.40434113082E+02  0.31731823359E+01 -0.14754065145E+03  0.17361909848E+03  0.82038777033E+02 0.  0.
          6    2    1    2  501    0  0.46209349814E+02  0.94779582455E+01 -0.61829139016E+02  0.17975126916E+03  0.16205721407E+03 0.  0.
         24    2    5    5    0    0 -0.70075972583E+01  0.50829228976E+02 -0.14529867527E+02  0.97281382961E+02  0.81362359128E+02 0.  0.
          5    1    5    5  501    0  0.53216947073E+02 -0.41351270730E+02 -0.47299271489E+02  0.82469886202E+02  0.47000000000E+01 0. -1.
        -11    1    6    6    0    0  0.18330727566E+02  0.53110803742E+02 -0.33618970787E+02  0.65475249094E+02  0.00000000000E+00 0.  1.
         12    1    6    6    0    0 -0.25338324824E+02 -0.22815747657E+01  0.19089103260E+02  0.31806133867E+02  0.00000000000E+00 0. -1.
         -5    1    3    3    0  503 -0.57752367324E+01 -0.12651140581E+02  0.35124326436E+02  0.38068530637E+02  0.47000000000E+01 0.  1.
         13    1    4    4    0    0 -0.27334101469E+02  0.41240176266E+02 -0.98020045064E+02  0.10979906409E+03  0.00000000000E+00 0. -1.
        -14    1    4    4    0    0 -0.13100011613E+02 -0.38066993931E+02 -0.49520606391E+02  0.63820034382E+02  0.00000000000E+00 0.  1.
</event>
<event>
12    1  0.8526130E-002  0.1796137E+03  0.7818608E-02  0.1168185E+00
         21   -1    0    0  501  502  0.00000000000E+00  0.00000000000E+00  0.64274023321E+02  0.64274023321E+02  0.00000000000E+00 0.  1.
         21   -1    0    0  502  503 -0.00000000000E+00 -0.00000000000E+00 -0.50892312020E+03  0.50892312020E+03  0.00000000000E+00 0.  1.
         -6    2    1    2    0  503 -0.32004809693E+02 -0.32670396268E+02 -0.25614052164E+03  0.31284026452E+03  0.17369341278E+03 0.  0.
        -24    2    3    3    0    0  0.78925045493E+01  0.38115788542E+02 -0.18165694269E+03  0.20251178598E+03  0.80601945814E+02 0.  0.
          6    2    1    2  501    0  0.32004809693E+02  0.32670396268E+02 -0.18850857523E+03  0.26035687900E+03  0.17366219758E+03 0.  0.
         24    2    5    5    0    0  0.81381615175E+02  0.48146316806E+02 -0.10285054743E+03  0.16017224563E+03  0.78331845708E+02 0.  0.
          5    1    5    5  501    0 -0.49376805483E+02 -0.15475920537E+02 -0.85658027803E+02  0.10018463337E+03  0.47000000000E+01 0. -1.
        -13    1    6    6    0    0  0.24726342789E+00  0.40050968528E+02 -0.44728884147E+02  0.60040105732E+02  0.00000000000E+00 0.  1.
         14    1    6    6    0    0  0.81134351747E+02  0.80953482779E+01 -0.58121663284E+02  0.10013213990E+03  0.00000000000E+00 0. -1.
         -5    1    3    3    0  503 -0.39897314242E+02 -0.70786184810E+02 -0.74483578947E+02  0.11032847854E+03  0.47000000000E+01 0.  1.
         11    1    4    4    0    0 -0.13777654442E+02  0.56443821608E+02 -0.95342101482E+02  0.11165054892E+03  0.00000000000E+00 0. -1.
        -12    1    4    4    0    0  0.21670158991E+02 -0.18328033066E+02 -0.86314841212E+02  0.90861237061E+02  0.00000000000E+00 0.  1.
</event>
<event>
12    1  0.8526130E-002  0.5103806E+03  0.7818608E-02  0.1011170E+00
         21   -1    0    0  501  502  0.00000000000E+00  0.00000000000E+00  0.81154097820E+03  0.81154097820E+03  0.00000000000E+00 0. -1.
         21   -1    0    0  502  503 -0.00000000000E+00 -0.00000000000E+00 -0.43542735192E+03  0.43542735192E+03  0.00000000000E+00 0. -1.
         -6    2    1    2    0  503  0.35688461076E+03  0.31991194997E+03 -0.13262937272E+03  0.52633820808E+03  0.17242702121E+03 0.  0.
        -24    2    3    3    0    0  0.15371496942E+03  0.18408668666E+03 -0.12657166117E+03  0.28182810361E+03  0.76749557298E+02 0.  0.
          6    2    1    2  501    0 -0.35688461076E+03 -0.31991194997E+03  0.50874299900E+03  0.72063012204E+03  0.17543674821E+03 0.  0.
         24    2    5    5    0    0 -0.17705580882E+03 -0.20068836414E+03  0.19749192741E+03  0.34187956957E+03  0.79082234157E+02 0.  0.
          5    1    5    5  501    0 -0.17982880195E+03 -0.11922358583E+03  0.31125107160E+03  0.37875055247E+03  0.47000000000E+01 0. -1.
        -11    1    6    6    0    0 -0.66181915939E+01 -0.40560267145E+02  0.52683839440E+02  0.66817083662E+02  0.00000000000E+00 0.  1.
         12    1    6    6    0    0 -0.17043761722E+03 -0.16012809700E+03  0.14480808797E+03  0.27506248591E+03  0.00000000000E+00 0. -1.
         -5    1    3    3    0  503  0.20316964135E+03  0.13582526330E+03 -0.60577115542E+01  0.24451010447E+03  0.47000000000E+01 0.  1.
         13    1    4    4    0    0  0.58082110634E+02  0.19484679963E+02 -0.35396441081E+02  0.70753744567E+02  0.00000000000E+00 0. -1.
        -14    1    4    4    0    0  0.95632858783E+02  0.16460200670E+03 -0.91175220088E+02  0.21107435905E+03  0.00000000000E+00 0.  1.
</event>
<event>
12    1  0.8526130E-002  0.1758364E+03  0.7818608E-02  0.1172217E+00
         21   -1    0    0  501  502  0.00000000000E+00  0.00000000000E+00  0.91355191055E+03  0.91355191055E+03  0.00000000000E+00 0. -1.
         21   -1    0    0  502  503 -0.00000000000E+00 -0.00000000000E+00 -0.34377148242E+02  0.34377148242E+02  0.00000000000E+00 0. -1.
         -6    2    1    2    0  503  0.27072809318E+02 -0.24974245183E+02  0.36659420936E+03  0.40602754899E+03  0.17061771969E+03 0.  0.
        -24    2    3    3    0    0  0.70299725226E+02 -0.32535132449E+02  0.33131078171E+03  0.34952318153E+03  0.79993963137E+02 0.  0.
          6    2    1    2  501    0 -0.27072809318E+02  0.24974245183E+02  0.51258055295E+03  0.54190150981E+03  0.17193537490E+03 0.  0.
         24    2    5    5    0    0  0.27835463799E+02  0.59152613243E+02  0.38569095982E+03  0.39940190228E+03  0.80563753401E+02 0.  0.
          5    1    5    5  501    0 -0.54908273118E+02 -0.34178368060E+02  0.12688959314E+03  0.14249960753E+03  0.47000000000E+01 0. -1.
        -13    1    6    6    0    0 -0.16849198817E+02 -0.54321757200E+01  0.27524837167E+02  0.32726452526E+02  0.00000000000E+00 0.  1.
         14    1    6    6    0    0  0.44684662617E+02  0.64584788963E+02  0.35816612265E+03  0.36667544975E+03  0.00000000000E+00 0. -1.
         -5    1    3    3    0  503 -0.43226915908E+02  0.75608872668E+01  0.35283427649E+02  0.56504367458E+02  0.47000000000E+01 0.  1.
         11    1    4    4    0    0  0.70956756090E+01 -0.44771555505E+02  0.10824601513E+03  0.11735433774E+03  0.00000000000E+00 0. -1.
        -12    1    4    4    0    0  0.63204049617E+02  0.12236423056E+02  0.22306476658E+03  0.23216884379E+03  0.00000000000E+00 0.  1.
</event>
<event>
12    1  0.8526130E-002  0.3646615E+03  0.7818608E-02  0.1056830E+00
         21   -1    0    0  503  502  0.00000000000E+00  0.00000000000E+00  0.50294879468E+03  0.50294879468E+03  0.00000000000E+00 0. -1.
         21   -1    0    0  501  503 -0.00000000000E+00 -0.00000000000E+00 -0.31867766149E+03  0.31867766149E+03  0.00000000000E+00 0.  1.
          6    2    1    2  501    0  0.31839643705E+03 -0.39507472966E+02 -0.78220456017E+02  0.37295635071E+03  0.17332301708E+03 0.  0.
         24    2    3    3    0    0  0.19536705626E+03 -0.88201601448E+02 -0.22493659651E+02  0.22930777773E+03  0.78283350939E+02 0.  0.
         -6    2    1    2    0  502 -0.31839643705E+03  0.39507472966E+02  0.26249158920E+03  0.44867010546E+03  0.17165633570E+03 0.  0.
        -24    2    5    5    0    0 -0.97392738799E+02  0.32819084984E+02  0.15506318013E+03  0.20280363306E+03  0.80760670133E+02 0.  0.
          5    1    3    3  501    0  0.12302938079E+03  0.48694128482E+02 -0.55726796366E+02  0.14364857298E+03  0.47000000000E+01 0. -1.
        -13    1    4    4    0    0  0.13998486260E+03 -0.43965840149E+02 -0.47378083032E+02  0.15418637946E+03  0.00000000000E+00 0.  1.
         14    1    4    4    0    0  0.55382193657E+02 -0.44235761298E+02  0.24884423381E+02  0.75121398275E+02  0.00000000000E+00 0. -1.
         -5    1    5    5    0  502 -0.22100369825E+03  0.66883879822E+01  0.10742840907E+03  0.24586647240E+03  0.47000000000E+01 0.  1.
         11    1    6    6    0    0 -0.10965462744E+03  0.32948516158E+02  0.12093059541E+03  0.16653513426E+03  0.00000000000E+00 0. -1.
        -12    1    6    6    0    0  0.12261888644E+02 -0.12943117400E+00  0.34132584718E+02  0.36268498799E+02  0.00000000000E+00 0.  1.
</event>
<event>
12    1  0.8526130E-002  0.1844189E+03  0.7818608E-02  0.1163703E+00
         21   -1    0    0  501  502  0.00000000000E+00  0.00000000000E+00  0.49670127759E+03  0.49670127759E+03  0.00000000000E+00 0.  1.
         21   -1    0    0  502  503 -0.00000000000E+00 -0.00000000000E+00 -0.12934354662E+03  0.12934354662E+03  0.00000000000E+00 0.  1.
         -6    2    1    2    0  503 -0.63336864423E+02  0.16933890122E+02 -0.31240305603E+02  0.18704626495E+03  0.17237178861E+03 0.  0.
        -24    2    3    3    0    0  0.15295314912E+02  0.39845174250E+02 -0.50406325463E+02  0.10280035773E+03  0.78775194909E+02 0.  0.
          6    2    1    2  501    0  0.63336864423E+02 -0.16933890122E+02  0.39859803658E+03  0.43899855925E+03  0.17187502795E+03 0.  0.
         24    2    5    5    0    0  0.26909420175E+02 -0.54334112467E+02  0.36335469396E+03  0.37583275739E+03  0.74480300966E+02 0.  0.
          5    1    5    5  501    0  0.36427444248E+02  0.37400222346E+02  0.35243342613E+02  0.63165801859E+02  0.47000000000E+01 0. -1.
        -13    1    6    6    0    0  0.27537567656E+02 -0.17076423941E-02  0.44132293765E+02  0.52019006029E+02  0.00000000000E+00 0.  1.
         14    1    6    6    0    0 -0.62814748107E+00 -0.54332404825E+02  0.31922240020E+03  0.32381375136E+03  0.00000000000E+00 0. -1.
         -5    1    3    3    0  503 -0.78632179335E+02 -0.22911284129E+02  0.19166019860E+02  0.84245907228E+02  0.47000000000E+01 0.  1.
         13    1    4    4    0    0  0.68022342929E+01 -0.10465481022E+02  0.15213387566E+02  0.19678512282E+02  0.00000000000E+00 0. -1.
        -14    1    4    4    0    0  0.84930806191E+01  0.50310655272E+02 -0.65619713029E+02  0.83121845446E+02  0.00000000000E+00 0.  1.
</event>
<event>
12    1  0.8526130E-002  0.1769609E+03  0.7818608E-02  0.1170967E+00
         21   -1    0    0  501  502  0.00000000000E+00  0.00000000000E+00  0.17990241837E+03  0.17990241837E+03  0.00000000000E+00 0. -1.
         21   -1    0    0  502  503 -0.00000000000E+00 -0.00000000000E+00 -0.28905177406E+03  0.28905177406E+03  0.00000000000E+00 0. -1.
         -6    2    1    2    0  503  0.48168821257E+01 -0.35712929245E+02 -0.20287504691E+03  0.26870515814E+03  0.17246901659E+03 0.  0.
        -24    2    3    3    0    0 -0.48061580589E+02  0.21697136094E+01 -0.17242132733E+03  0.19672776249E+03  0.81597029542E+02 0.  0.
          6    2    1    2  501    0 -0.48168821257E+01  0.35712929245E+02  0.93725691229E+02  0.20024903429E+03  0.17325286396E+03 0.  0.
         24    2    5    5    0    0 -0.67950768378E+01 -0.24704669185E+02  0.11132197253E+03  0.13711490271E+03  0.75838125174E+02 0.  0.
          5    1    5    5  501    0  0.19781947120E+01  0.60417598430E+02 -0.17596281300E+02  0.63134131577E+02  0.47000000000E+01 0. -1.
        -13    1    6    6    0    0  0.11407042497E+02 -0.37746737927E+02  0.22261537585E+02  0.45282589351E+02  0.00000000000E+00 0.  1.
         14    1    6    6    0    0 -0.18202119335E+02  0.13042068742E+02  0.89060434944E+02  0.91832313364E+02  0.00000000000E+00 0. -1.
         -5    1    3    3    0  503  0.52878462715E+02 -0.37882642855E+02 -0.30453719588E+02  0.71977395656E+02  0.47000000000E+01 0.  1.
         11    1    4    4    0    0  0.11147985576E+02 -0.15672565074E+02 -0.98457334667E+02  0.10031826169E+03  0.00000000000E+00 0. -1.
        -12    1    4    4    0    0 -0.59209566165E+02  0.17842278683E+02 -0.73963992660E+02  0.96409500799E+02  0.00000000000E+00 0.  1.
</event>
<event>
12    1  0.8526130E-002  0.3010185E+03  0.7818608E-02  0.1084850E+00
         21   -1    0    0  501  502  0.00000000000E+00  0.00000000000E+00  0.13622047908E+03  0.13622047908E+03  0.00000000000E+00 0.  1.
         21   -1    0    0  502  503 -0.00000000000E+00 -0.00000000000E+00 -0.72330283604E+03  0.72330283604E+03  0.00000000000E+00 0.  1.
         -6    2    1    2    0  503 -0.23943424404E+03  0.59161957680E+02 -0.16914642296E+03  0.34446741021E+03  0.17093387563E+03 0.  0.
        -24    2    3    3    0    0 -0.60272973001E+02  0.68678465380E+02 -0.71858148189E+02  0.14031936743E+03  0.78589875519E+02 0.  0.
          6    2    1    2  501    0  0.23943424404E+03 -0.59161957680E+02 -0.41793593399E+03  0.51505590491E+03  0.17257823097E+03 0.  0.
         24    2    5    5    0    0  0.25199837803E+03 -0.27035850061E+02 -0.37122485037E+03  0.45679820510E+03  0.81379302882E+02 0.  0.
          5    1    5    5  501    0 -0.12564133985E+02 -0.32126107620E+02 -0.46711083628E+02  0.58257699811E+02  0.47000000000E+01 0. -1.
        -11    1    6    6    0    0  0.39659737490E+02  0.12681311680E+02 -0.24577322421E+02  0.48350338376E+02  0.00000000000E+00 0.  1.
         12    1    6    6    0    0  0.21233864054E+03 -0.39717161741E+02 -0.34664752794E+03  0.40844786673E+03  0.00000000000E+00 0. -1.
         -5    1    3    3    0  503 -0.17916127104E+03 -0.95165076996E+01 -0.97288274776E+02  0.20414804278E+03  0.47000000000E+01 0.  1.
         13    1    4    4    0    0 -0.46648628369E+01  0.18967173193E+01 -0.50605917853E+02  0.50855849257E+02  0.00000000000E+00 0. -1.
        -14    1    4    4    0    0 -0.55608110164E+02  0.66781748061E+02 -0.21252230336E+02  0.89463518176E+02  0.00000000000E+00 0.  1.
</event>
<event>
12    1  0.8526130E-002  0.1819109E+03  0.7818608E-02  0.1166183E+00
         21   -1    0    0  503  502  0.00000000000E+00  0.00000000000E+00  0.91132358484E+03  0.91132358484E+03  0.00000000000E+00 0.  1.
         21   -1    0    0  501  503 -0.00000000000E+00 -0.00000000000E+00 -0.90009787631E+02  0.90009787631E+02  0.00000000000E+00 0.  1.
          6    2    1    2  501    0  0.53025963612E+02 -0.22398746533E+02  0.23710455420E+02  0.18344959264E+03  0.17256335265E+03 0.  0.
         24    2    3    3    0    0  0.34212989934E+02 -0.64962414839E+02  0.60143696294E+02  0.12416161005E+03  0.80051216013E+02 0.  0.
         -6    2    1    2    0  502 -0.53025963612E+02  0.22398746533E+02  0.79760334179E+03  0.81788377983E+03  0.17160807038E+03 0.  0.
        -24    2    5    5    0    0  0.59979609623E+01  0.59423702547E+02  0.31020988799E+03  0.32551284259E+03  0.78493847670E+02 0.  0.
          5    1    3    3  501    0  0.18812973678E+02  0.42563668305E+02 -0.36433240874E+02  0.59287982583E+02  0.47000000000E+01 0. -1.
        -11    1    4    4    0    0  0.19161120858E+02 -0.46503693393E+02 -0.89422426790E+01  0.51085279248E+02  0.00000000000E+00 0.  1.
         12    1    4    4    0    0  0.15051869076E+02 -0.18458721446E+02  0.69085938973E+02  0.73076330805E+02  0.00000000000E+00 0. -1.
         -5    1    5    5    0  502 -0.59023924574E+02 -0.37024956013E+02  0.48739345379E+03  0.49237093724E+03  0.47000000000E+01 0.  1.
         13    1    6    6    0    0  0.17758074959E+02 -0.66068658758E+01  0.15863062409E+03  0.15975817601E+03  0.00000000000E+00 0. -1.
        -14    1    6    6    0    0 -0.11760113996E+02  0.66030568422E+02  0.15157926390E+03  0.16575466658E+03  0.00000000000E+00 0.  1.
</event>
<event>
12    1  0.8526130E-002  0.2016240E+03  0.7818608E-02  0.1148779E+00
         21   -1    0    0  501  502  0.00000000000E+00  0.00000000000E+00  0.17037278275E+04  0.17037278275E+04  0.00000000000E+00 0. -1.
         21   -1    0    0  502  503 -0.00000000000E+00 -0.00000000000E+00 -0.38737793190E+02  0.38737793190E+02  0.00000000000E+00 0.  1.
         -6    2    1    2    0  503  0.23815477649E+02  0.98524479162E+02  0.29091427381E+03  0.35395386760E+03  0.17429278731E+03 0.  0.
        -24    2    3    3    0    0  0.66643526932E+02  0.80235916957E+02  0.27539719842E+03  0.30464278424E+03  0.78002865588E+02 0.  0.
          6    2    1    2  501    0 -0.23815477649E+02 -0.98524479162E+02  0.13740757605E+04  0.13885117531E+04  0.17206522869E+03 0.  0.
         24    2    5    5    0    0  0.35047491266E+00  0.10188137491E+02  0.39922522361E+03  0.40730938582E+03  0.80101408408E+02 0.  0.
          5    1    5    5  501    0 -0.24165952561E+02 -0.10871261665E+03  0.97485053691E+03  0.98120236730E+03  0.47000000000E+01 0. -1.
        -11    1    6    6    0    0 -0.22052140490E+02  0.38143946874E+02  0.24929549394E+03  0.25315904266E+03  0.00000000000E+00 0.  1.
         12    1    6    6    0    0  0.22402615402E+02 -0.27955809383E+02  0.14992972967E+03  0.15415034315E+03  0.00000000000E+00 0. -1.
         -5    1    3    3    0  503 -0.42828049283E+02  0.18288562205E+02  0.15517075391E+02  0.49311083355E+02  0.47000000000E+01 0.  1.
         11    1    4    4    0    0  0.53870851602E+01  0.31083623718E+02  0.17162703783E+03  0.17450229931E+03  0.00000000000E+00 0. -1.
        -12    1    4    4    0    0  0.61256441772E+02  0.49152293239E+02  0.10377016059E+03  0.13014048493E+03  0.00000000000E+00 0.  1.
</event>
<event>
12    1  0.8526130E-002  0.2105699E+03  0.7818608E-02  0.1141183E+00
         21   -1    0    0  503  502  0.00000000000E+00  0.00000000000E+00  0.67678696245E+03  0.67678696245E+03  0.00000000000E+00 0.  1.
         21   -1    0    0  501  503 -0.00000000000E+00 -0.00000000000E+00 -0.76624779904E+02  0.76624779904E+02  0.00000000000E+00 0.  1.
          6    2    1    2  501    0  0.25828382275E+02 -0.11819062751E+03  0.44400135789E+03  0.49125551591E+03  0.17192628171E+03 0.  0.
         24    2    3    3    0    0  0.72478553806E+02 -0.81815277274E+02  0.20747284815E+03  0.24739647768E+03  0.78823563037E+02 0.  0.
         -6    2    1    2    0  502 -0.25828382275E+02  0.11819062751E+03  0.15616082466E+03  0.26215622645E+03  0.17234719071E+03 0.  0.
        -24    2    5    5    0    0 -0.56215814246E+02  0.13875875925E+03  0.14469452940E+03  0.22342626399E+03  0.81046761568E+02 0.  0.
          5    1    3    3  501    0 -0.46650171531E+02 -0.36375350237E+02  0.23652850974E+03  0.24385903823E+03  0.47000000000E+01 0. -1.
        -13    1    4    4    0    0  0.33601606466E+02  0.47049041953E+01  0.91411419987E+02  0.97505137222E+02  0.00000000000E+00 0.  1.
         14    1    4    4    0    0  0.38876947339E+02 -0.86520181470E+02  0.11606142816E+03  0.14989134045E+03  0.00000000000E+00 0. -1.
         -5    1    5    5    0  502  0.30387431972E+02 -0.20568131738E+02  0.11466295252E+02  0.38729962456E+02  0.47000000000E+01 0.  1.
         11    1    6    6    0    0  0.22787847921E+01  0.12329598112E+02  0.58016796187E+02  0.59356216941E+02  0.00000000000E+00 0. -1.
        -12    1    6    6    0    0 -0.58494599039E+02  0.12642916114E+03  0.86677733218E+02  0.16407004705E+03  0.00000000000E+00 0.  1.
</event>
<event>
12    1  0.8526130E-002  0.2311625E+03  0.7818608E-02  0.1126055E+00
         21   -1    0    0  503  502  0.00000000000E+00  0.00000000000E+00  0.60939797880E+02  0.60939797880E+02  0.00000000000E+00 0.  1.
         21   -1    0    0  501  503 -0.00000000000E+00 -0.00000000000E+00 -0.11638905626E+04  0.11638905626E+04  0.00000000000E+00 0. -1.
          6    2    1    2  501    0  0.14828849042E+03  0.44790681141E+02 -0.85705038091E+03  0.88733506005E+03  0.16980127165E+03 0.  0.
         24    2    3    3    0    0  0.17582887625E+03  0.27009530751E+02 -0.74884012211E+03  0.77417061213E+03  0.83266438226E+02 0.  0.
         -6    2    1    2    0  502 -0.14828849042E+03 -0.44790681141E+02 -0.24590038382E+03  0.33749530044E+03  0.17158204321E+03 0.  0.
        -24    2    5    5    0    0 -0.12497856880E+02 -0.36512277249E+01 -0.13474451393E+03  0.15719203315E+03  0.79898206247E+02 0.  0.
          5    1    3    3  501    0 -0.27540385829E+02  0.17781150390E+02 -0.10821025881E+03  0.11316444791E+03  0.47000000000E+01 0. -1.
        -11    1    4    4    0    0  0.11163211789E+03  0.25815689179E+02 -0.30690573053E+03  0.32759625606E+03  0.00000000000E+00 0.  1.
         12    1    4    4    0    0  0.64196758363E+02  0.11938415726E+01 -0.44193439158E+03  0.44657435607E+03  0.00000000000E+00 0. -1.
         -5    1    5    5    0  502 -0.13579063354E+03 -0.41139453416E+02 -0.11115586988E+03  0.18030326729E+03  0.47000000000E+01 0.  1.
         11    1    6    6    0    0 -0.17191301043E+02 -0.35770876718E+02 -0.37229939297E+02  0.54416586008E+02  0.00000000000E+00 0. -1.
        -12    1    6    6    0    0  0.46934441637E+01  0.32119648993E+02 -0.97514574636E+02  0.10277544715E+03  0.00000000000E+00 0.  1.
</event>
<event>
12    1  0.8526130E-002  0.1785470E+03  0.7818608E-02  0.1169801E+00
         21   -1    0    0  503  502  0.00000000000E+00  0.00000000000E+00  0.10350263230E+04  0.10350263230E+04  0.00000000000E+00 0. -1.
         21   -1    0    0  501  503 -0.00000000000E+00 -0.00000000000E+00 -0.31512045409E+02  0.31512045409E+02  0.00000000000E+00 0. -1.
          6    2    1    2  501    0  0.78399674694E+01 -0.41884909729E+02  0.60552837121E+03  0.63130313554E+03  0.17338751351E+03 0.  0.
         24    2    3    3    0    0 -0.18485659551E+02  0.99423300179E+01  0.14800576175E+03  0.17007853776E+03  0.81119874029E+02 0.  0.
         -6    2    1    2    0  502 -0.78399674694E+01  0.41884909729E+02  0.39798590636E+03  0.43523523285E+03  0.17094184831E+03 0.  0.
        -24    2    5    5    0    0  0.16293217307E+02 -0.26270542704E+02  0.10086655596E+03  0.12940917986E+03  0.74947070510E+02 0.  0.
          5    1    3    3  501    0  0.26325627020E+02 -0.51827239747E+02  0.45752260947E+03  0.46122459777E+03  0.47000000000E+01 0. -1.
        -13    1    4    4    0    0 -0.98447762797E+01  0.43691521623E+02  0.10864821609E+03  0.11751724785E+03  0.00000000000E+00 0.  1.
         14    1    4    4    0    0 -0.86408832712E+01 -0.33749191605E+02  0.39357545655E+02  0.52561289917E+02  0.00000000000E+00 0. -1.
         -5    1    5    5    0  502 -0.24133184776E+02  0.68155452433E+02  0.29711935040E+03  0.30582605299E+03  0.47000000000E+01 0.  1.
         11    1    6    6    0    0 -0.29904842930E+02 -0.63870091375E+01  0.42575812908E+02  0.52419398711E+02  0.00000000000E+00 0. -1.
        -12    1    6    6    0    0  0.46198060237E+02 -0.19883533567E+02  0.58290743047E+02  0.76989781152E+02  0.00000000000E+00 0.  1.
</event>
<event>
12    1  0.8526130E-002  0.1776541E+03  0.7818608E-02  0.1170801E+00
         21   -1    0    0  501  502  0.00000000000E+00  0.00000000000E+00  0.14470553624E+04  0.14470553624E+04  0.00000000000E+00 0. -1.
         21   -1    0    0  502  503 -0.00000000000E+00 -0.00000000000E+00 -0.21737038873E+02  0.21737038873E+02  0.00000000000E+00 0. -1.
         -6    2    1    2    0  503  0.15058335950E+02  0.35350802056E+02  0.62435577771E+03  0.64836447990E+03  0.17052838167E+03 0.  0.
        -24    2    3    3    0    0  0.55680900606E+02  0.65228851568E+02  0.50737849682E+03  0.52089422908E+03  0.80886915380E+02 0.  0.
          6    2    1    2  501    0 -0.15058335950E+02 -0.35350802056E+02  0.80096254579E+03  0.82042792135E+03  0.17344895985E+03 0.  0.
         24    2    5    5    0    0  0.13794065534E+02 -0.26532392708E+02  0.77659000889E+03  0.78135957137E+03  0.80848585377E+02 0.  0.
          5    1    5    5  501    0 -0.28852401484E+02 -0.88184093474E+01  0.24372536908E+02  0.39068349980E+02  0.47000000000E+01 0. -1.
        -13    1    6    6    0    0 -0.21347323493E+02  0.65438968287E+01  0.50650638289E+03  0.50699827092E+03  0.00000000000E+00 0.  1.
         14    1    6    6    0    0  0.35141389027E+02 -0.33076289537E+02  0.27008362599E+03  0.27436130044E+03  0.00000000000E+00 0. -1.
         -5    1    3    3    0  503 -0.40622564657E+02 -0.29878049513E+02  0.11697728089E+03  0.12747025083E+03  0.47000000000E+01 0.  1.
         11    1    4    4    0    0  0.27878399057E+02  0.43329073590E+02  0.45358770025E+03  0.45650456249E+03  0.00000000000E+00 0. -1.
        -12    1    4    4    0    0  0.27802501549E+02  0.21899777979E+02  0.53790796568E+02  0.64389666588E+02  0.00000000000E+00 0.  1.
</event>
<event>
12    1  0.8526130E-002  0.1988304E+03  0.7818608E-02  0.1151920E+00
         21   -1    0    0  501  502  0.00000000000E+00  0.00000000000E+00  0.24518079173E+03  0.24518079173E+03  0.00000000000E+00 0. -1.
         21   -1    0    0  502  503 -0.00000000000E+00 -0.00000000000E+00 -0.16783039266E+03  0.16783039266E+03  0.00000000000E+00 0. -1.
         -6    2    1    2    0  503 -0.65650230645E+02 -0.76255467262E+02 -0.13756610569E+02  0.19930568672E+03  0.17148954299E+03 0.  0.
        -24    2    3    3    0    0  0.26984725107E+02 -0.53034554483E+02  0.77708819139E+01  0.10129564259E+03  0.81606257384E+02 0.  0.
          6    2    1    2  501    0  0.65650230645E+02  0.76255467262E+02  0.91107009636E+02  0.21370549768E+03  0.16505969666E+03 0.  0.
         24    2    5    5    0    0 -0.57455211272E+01  0.58552515760E+02  0.23032547978E+01  0.98297765108E+02  0.78713007360E+02 0.  0.
          5    1    5    5  501    0  0.71395751772E+02  0.17702951502E+02  0.88803754838E+02  0.11540773257E+03  0.47000000000E+01 0. -1.
        -13    1    6    6    0    0 -0.36372502720E+02  0.10423711095E+02 -0.11610931510E+02  0.39578105533E+02  0.00000000000E+00 0.  1.
         14    1    6    6    0    0  0.30626981592E+02  0.48128804665E+02  0.13914186307E+02  0.58719659575E+02  0.00000000000E+00 0. -1.
         -5    1    3    3    0  503 -0.92634955751E+02 -0.23220912779E+02 -0.21527492483E+02  0.98010044128E+02  0.47000000000E+01 0.  1.
         11    1    4    4    0    0  0.17629192787E+02 -0.66595262205E+02 -0.17547620057E+02  0.71088932726E+02  0.00000000000E+00 0. -1.
        -12    1    4    4    0    0  0.93555323192E+01  0.13560707721E+02  0.25318501971E+02  0.30206709866E+02  0.00000000000E+00 0.  1.
</event>
<event>
12    1  0.8526130E-002  0.1750773E+03  0.7818608E-02  0.1173095E+00
         21   -1    0    0  503  502  0.00000000000E+00  0.00000000000E+00  0.64196521731E+02  0.64196521731E+02  0.00000000000E+00 0. -1.
         21   -1    0    0  501  503 -0.00000000000E+00 -0.00000000000E+00 -0.47281340317E+03  0.47281340317E+03  0.00000000000E+00 0. -1.
          6    2    1    2  501    0 -0.12677500223E+02  0.19407843113E+02 -0.19943778563E+03  0.26423168336E+03  0.17177185092E+03 0.  0.
         24    2    3    3    0    0 -0.46936556284E+01 -0.36207696509E+01 -0.17975663315E+02  0.81079695617E+02  0.78839407619E+02 0.  0.
         -6    2    1    2    0  502  0.12677500223E+02 -0.19407843113E+02 -0.20917909581E+03  0.27277824153E+03  0.17353585090E+03 0.  0.
        -24    2    5    5    0    0  0.25256794771E+02  0.22633519428E+02 -0.32311366297E+02  0.90487269302E+02  0.77419245863E+02 0.  0.
          5    1    3    3  501    0 -0.79838445944E+01  0.23028612764E+02 -0.18146212231E+03  0.18315198775E+03  0.47000000000E+01 0. -1.
        -13    1    4    4    0    0 -0.25441669622E+02  0.20374973154E+02  0.14506770093E+02  0.35677226108E+02  0.00000000000E+00 0.  1.
         14    1    4    4    0    0  0.20748013994E+02 -0.23995742805E+02 -0.32482433408E+02  0.45402469509E+02  0.00000000000E+00 0. -1.
         -5    1    5    5    0  502 -0.12579294548E+02 -0.42041362541E+02 -0.17686772951E+03  0.18229097223E+03  0.47000000000E+01 0.  1.
         13    1    6    6    0    0 -0.24993838399E+02  0.49601547969E+00 -0.24537462481E+02  0.35028917401E+02  0.00000000000E+00 0. -1.
        -14    1    6    6    0    0  0.50250633170E+02  0.22137503949E+02 -0.77739038165E+01  0.55458351901E+02  0.00000000000E+00 0.  1.
</event>
<event>
12    1  0.8526130E-002  0.1788520E+03  0.7818608E-02  0.1169026E+00
         21   -1    0    0  503  502  0.00000000000E+00  0.00000000000E+00  0.28151228030E+02  0.28151228030E+02  0.00000000000E+00 0.  1.
         21   -1    0    0  501  503 -0.00000000000E+00 -0.00000000000E+00 -0.12189137819E+04  0.12189137819E+04  0.00000000000E+00 0.  1.
          6    2    1    2  501    0 -0.45542897134E+02 -0.17709268605E+02 -0.75975977647E+03  0.78042656084E+03  0.17158940888E+03 0.  0.
         24    2    3    3    0    0 -0.28656976945E+02  0.52711996641E+02 -0.34226154410E+03  0.35666819462E+03  0.80432950772E+02 0.  0.
         -6    2    1    2    0  502  0.45542897134E+02  0.17709268605E+02 -0.43100277739E+03  0.46663844909E+03  0.17204730273E+03 0.  0.
        -24    2    5    5    0    0  0.78311752501E+02  0.16432983198E+02 -0.41445874922E+03  0.42960843890E+03  0.79903582227E+02 0.  0.
          5    1    3    3  501    0 -0.16885920189E+02 -0.70421265245E+02 -0.41749823238E+03  0.42375836622E+03  0.47000000000E+01 0. -1.
        -13    1    4    4    0    0  0.88773900458E+01  0.10031367998E+02 -0.23409470107E+03  0.23447764385E+03  0.00000000000E+00 0.  1.
         14    1    4    4    0    0 -0.37534366991E+02  0.42680628643E+02 -0.10816684303E+03  0.12219055077E+03  0.00000000000E+00 0. -1.
         -5    1    5    5    0  502 -0.32768855367E+02  0.12762854069E+01 -0.16544028172E+02  0.37030010189E+02  0.47000000000E+01 0.  1.
         13    1    6    6    0    0  0.32274088637E+02  0.38078059211E+02 -0.30306466670E+03  0.30714776183E+03  0.00000000000E+00 0. -1.
        -14    1    6    6    0    0  0.46037663864E+02 -0.21645076013E+02 -0.11139408251E+03  0.12246067707E+03  0.00000000000E+00 0.  1.
</event>
<event>
12    1  0.8526130E-002  0.2401827E+03  0.7818608E-02  0.1119909E+00
         21   -1    0    0  503  502  0.00000000000E+00  0.00000000000E+00  0.52497434676E+03  0.52497434676E+03  0.00000000000E+00 0. -1.
         21   -1    0    0  501  503 -0.00000000000E+00 -0.00000000000E+00 -0.11737067588E+03  0.11737067588E+03  0.00000000000E+00 0.  1.
          6    2    1    2  501    0  0.12207658251E+03  0.11516331529E+03  0.11980918917E+03  0.26840639664E+03  0.17182104284E+03 0.  0.
         24    2    3    3    0    0  0.83070274510E+02  0.14797891721E+03  0.10756401549E+03  0.21577190156E+03  0.78670614777E+02 0.  0.
         -6    2    1    2    0  502 -0.12207658251E+03 -0.11516331529E+03  0.28779448171E+03  0.37393862601E+03  0.16982093844E+03 0.  0.
        -24    2    5    5    0    0 -0.31631670788E+02 -0.11763840218E+03  0.14805516782E+03  0.20739861893E+03  0.79085385191E+02 0.  0.
          5    1    3    3  501    0  0.39006307996E+02 -0.32815601923E+02  0.12245173679E+02  0.52634495072E+02  0.47000000000E+01 0. -1.
        -11    1    4    4    0    0  0.81119140288E+02  0.12233232916E+03  0.11768020056E+03  0.18813331253E+03  0.00000000000E+00 0.  1.
         12    1    4    4    0    0  0.19511342228E+01  0.25646588053E+02 -0.10116185071E+02  0.27638589036E+02  0.00000000000E+00 0. -1.
         -5    1    5    5    0  502 -0.90444911719E+02  0.24750868923E+01  0.13973931389E+03  0.16654000708E+03  0.47000000000E+01 0.  1.
         13    1    6    6    0    0 -0.50876146883E+02 -0.70114952089E+02  0.59575221183E+02  0.10513655790E+03  0.00000000000E+00 0. -1.
        -14    1    6    6    0    0  0.19244476095E+02 -0.47523450094E+02  0.88479946640E+02  0.10226206103E+03  0.00000000000E+00 0.  1.
</event>
<event>
12    1  0.8526130E-002  0.2281496E+03  0.7818608E-02  0.1128209E+00
         21   -1    0    0  503  502  0.00000000000E+00  0.00000000000E+00  0.27083403813E+02  0.27083403813E+02  0.00000000000E+00 0. -1.
         21   -1    0    0  501  503 -0.00000000000E+00 -0.00000000000E+00 -0.20585129467E+04  0.20585129467E+04  0.00000000000E+00 0. -1.
          6    2    1    2  501    0  0.21857676669E+02  0.14634115329E+03 -0.12991331637E+04  0.13190144837E+04  0.17366271864E+03 0.  0.
         24    2    3    3    0    0  0.35127778529E+02  0.16260028108E+03 -0.86791787617E+03  0.88726320218E+03  0.79257415665E+02 0.  0.
         -6    2    1    2    0  502 -0.21857676669E+02 -0.14634115329E+03 -0.73229637919E+03  0.76658186688E+03  0.17174481208E+03 0.  0.
        -24    2    5    5    0    0 -0.64353166540E+01 -0.67467788413E+02 -0.18925574276E+03  0.21760638501E+03  0.83315585919E+02 0.  0.
          5    1    3    3  501    0 -0.13270101860E+02 -0.16259127789E+02 -0.43121528756E+03  0.43175128148E+03  0.47000000000E+01 0. -1.
        -11    1    4    4    0    0  0.14744836613E+02  0.13960777681E+03 -0.80606961696E+03  0.81820288984E+03  0.00000000000E+00 0.  1.
         12    1    4    4    0    0  0.20382941916E+02  0.22992504268E+02 -0.61848259211E+02  0.69060312344E+02  0.00000000000E+00 0. -1.
         -5    1    5    5    0  502 -0.15422360015E+02 -0.78873364877E+02 -0.54304063643E+03  0.54897548186E+03  0.47000000000E+01 0.  1.
         11    1    6    6    0    0  0.37946249323E+02 -0.29509337376E+02 -0.99827734016E+02  0.11079844452E+03  0.00000000000E+00 0. -1.
        -12    1    6    6    0    0 -0.44381565977E+02 -0.37958451037E+02 -0.89428008745E+02  0.10680794049E+03  0.00000000000E+00 0.  1.
</event>
<event>
12    1  0.8526130E-002  0.1827952E+03  0.7818608E-02  0.1165189E+00
         21   -1    0    0  503  502  0.00000000000E+00  0.00000000000E+00  0.51594497215E+03  0.51594497215E+03  0.00000000000E+00 0.  1.
         21   -1    0    0  501  503 -0.00000000000E+00 -0.00000000000E+00 -0.11488074322E+03  0.11488074322E+03  0.00000000000E+00 0. -1.
          6    2    1    2  501    0 -0.35482993061E+02 -0.55228818720E+02 -0.79138194449E+01  0.18296637911E+03  0.17060129581E+03 0.  0.
         24    2    3    3    0    0 -0.72392310886E+02 -0.63787203271E+02  0.30803259650E+02  0.12859133058E+03  0.79230268963E+02 0.  0.
         -6    2    1    2    0  502  0.35482993061E+02  0.55228818720E+02  0.40897804838E+03  0.44785933626E+03  0.17031052758E+03 0.  0.
        -24    2    5    5    0    0 -0.34432324100E+02  0.52223907550E+02  0.15527440451E+03  0.18463925728E+03  0.77901175666E+02 0.  0.
          5    1    3    3  501    0  0.36909317825E+02  0.85583845509E+01 -0.38717079095E+02  0.54375048524E+02  0.47000000000E+01 0. -1.
        -11    1    4    4    0    0 -0.59419942925E+02 -0.18428529168E+02  0.47790272127E+02  0.78449030679E+02  0.00000000000E+00 0.  1.
         12    1    4    4    0    0 -0.12972367961E+02 -0.45358674104E+02 -0.16987012477E+02  0.50142299906E+02  0.00000000000E+00 0. -1.
         -5    1    5    5    0  502  0.69915317161E+02  0.30049111709E+01  0.25370364387E+03  0.26322007898E+03  0.47000000000E+01 0.  1.
         13    1    6    6    0    0 -0.10427811443E+01  0.64262202501E+02  0.95231649027E+02  0.11489031743E+03  0.00000000000E+00 0. -1.
        -14    1    6    6    0    0 -0.33389542956E+02 -0.12038294951E+02  0.60042755483E+02  0.69748939850E+02  0.00000000000E+00 0.  1.
</event>
<event>
12    1  0.8526130E-002  0.2713339E+03  0.7818608E-02  0.1100627E+00
         21   -1    0    0  501  502  0.00000000000E+00  0.00000000000E+00  0.14779296282E+03  0.14779296282E+03  0.00000000000E+00 0. -1.
         21   -1    0    0  502  503 -0.00000000000E+00 -0.00000000000E+00 -0.56062276325E+03  0.56062276325E+03  0.00000000000E+00 0.  1.
         -6    2    1    2    0  503  0.15631412482E+03  0.14081143783E+03 -0.32572085947E+03  0.42344190853E+03  0.17013819373E+03 0.  0.
        -24    2    3    3    0    0  0.79826511784E+02  0.30852531685E+02 -0.23089338946E+03  0.25926013410E+03  0.81116639120E+02 0.  0.
          6    2    1    2  501    0 -0.15631412482E+03 -0.14081143783E+03 -0.87108940953E+02  0.28497381754E+03  0.17134801560E+03 0.  0.
         24    2    5    5    0    0 -0.38092582067E+02 -0.21847932067E+02 -0.64257385027E+02  0.11564298018E+03  0.85533095292E+02 0.  0.
          5    1    5    5  501    0 -0.11822154275E+03 -0.11896350576E+03 -0.22851555926E+02  0.16933083736E+03  0.47000000000E+01 0. -1.
        -13    1    6    6    0    0 -0.44145324507E+02 -0.28652306191E+02 -0.80992993859E+02  0.96590006626E+02  0.00000000000E+00 0.  1.
         14    1    6    6    0    0  0.60527424395E+01  0.68043741241E+01  0.16735608832E+02  0.19052973553E+02  0.00000000000E+00 0. -1.
         -5    1    3    3    0  503  0.76487613035E+02  0.10995890614E+03 -0.94827470018E+02  0.16418177444E+03  0.47000000000E+01 0.  1.
         11    1    4    4    0    0 -0.10354399773E+02  0.10218736441E+02 -0.53829548589E+01  0.15511685019E+02  0.00000000000E+00 0. -1.
        -12    1    4    4    0    0  0.90180911557E+02  0.20633795245E+02 -0.22551043460E+03  0.24374844908E+03  0.00000000000E+00 0.  1.
</event>
<event>
12    1  0.8526130E-002  0.1871176E+03  0.7818608E-02  0.1161519E+00
         21   -1    0    0  503  502  0.00000000000E+00  0.00000000000E+00  0.70361563503E+02  0.70361563503E+02  0.00000000000E+00 0. -1.
         21   -1    0    0  501  503 -0.00000000000E+00 -0.00000000000E+00 -0.50744590235E+03  0.50744590235E+03  0.00000000000E+00 0. -1.
          6    2    1    2  501    0  0.23616293939E+02 -0.63968560930E+02 -0.26892635547E+03  0.32761925881E+03  0.17425064691E+03 0.  0.
         24    2    3    3    0    0 -0.18461091307E+02  0.22882123836E+02 -0.85470196832E+02  0.12027461833E+03  0.79350020692E+02 0.  0.
         -6    2    1    2    0  502 -0.23616293939E+02  0.63968560930E+02 -0.16815798338E+03  0.25018820705E+03  0.17224205481E+03 0.  0.
        -24    2    5    5    0    0  0.92910679455E+01  0.38366126158E+02 -0.18609507336E+03  0.20455698605E+03  0.75192424046E+02 0.  0.
          5    1    3    3  501    0  0.42077385246E+02 -0.86850684767E+02 -0.18345615864E+03  0.20734464048E+03  0.47000000000E+01 0. -1.
        -13    1    4    4    0    0 -0.25760285496E+02  0.33682228367E+02 -0.95061935046E+02  0.10409061587E+03  0.00000000000E+00 0.  1.
         14    1    4    4    0    0  0.72991941883E+01 -0.10800104531E+02  0.95917382147E+01  0.16184002461E+02  0.00000000000E+00 0. -1.
         -5    1    5    5    0  502 -0.32907361884E+02  0.25602434773E+02  0.17937089982E+02  0.45631220995E+02  0.47000000000E+01 0.  1.
         11    1    6    6    0    0 -0.22004683374E+01  0.53812044218E+02 -0.78161780979E+02  0.94920188420E+02  0.00000000000E+00 0. -1.
        -12    1    6    6    0    0  0.11491536283E+02 -0.15445918060E+02 -0.10793329238E+03  0.10963679763E+03  0.00000000000E+00 0.  1.
</event>
<event>
12    1  0.8526130E-002  0.1959228E+03  0.7818608E-02  0.1153593E+00
         21   -1    0    0  501  502  0.00000000000E+00  0.00000000000E+00  0.46882610358E+03  0.46882610358E+03  0.00000000000E+00 0.  1.
         21   -1    0    0  502  503 -0.00000000000E+00 -0.00000000000E+00 -0.82550413908E+02  0.82550413908E+02  0.00000000000E+00 0.  1.
         -6    2    1    2    0  503 -0.46060099680E+02  0.80549363292E+02  0.15833336863E+03  0.25190315729E+03  0.17255727258E+03 0.  0.
        -24    2    3    3    0    0 -0.18354110044E+02  0.12047953092E+03  0.13151532664E+03  0.19619554986E+03  0.79650624089E+02 0.  0.
          6    2    1    2  501    0  0.46060099680E+02 -0.80549363292E+02  0.22794232104E+03  0.29947336020E+03  0.17063662865E+03 0.  0.
         24    2    5    5    0    0  0.81548801024E+02 -0.53579355028E+02  0.92084167886E+02  0.15641268409E+03  0.80401987144E+02 0.  0.
          5    1    5    5  501    0 -0.35488701343E+02 -0.26970008264E+02  0.13585815316E+03  0.14306067611E+03  0.47000000000E+01 0. -1.
        -13    1    6    6    0    0  0.35612486083E+02 -0.60978092704E+02  0.83053837549E+02  0.10901613131E+03  0.00000000000E+00 0.  1.
         14    1    6    6    0    0  0.45936314941E+02  0.73987376760E+01  0.90303303361E+01  0.47396552781E+02  0.00000000000E+00 0. -1.
         -5    1    3    3    0  503 -0.27705989636E+02 -0.39930167632E+02  0.26818041991E+02  0.55707607425E+02  0.47000000000E+01 0.  1.
         13    1    4    4    0    0  0.17604808400E+02  0.43412650777E+02  0.10040351731E+02  0.47910293144E+02  0.00000000000E+00 0. -1.
        -14    1    4    4    0    0 -0.35958918444E+02  0.77066880147E+02  0.12147497491E+03  0.14828525672E+03  0.00000000000E+00 0.  1.
</event>
<event>
12    1  0.8526130E-002  0.2210010E+03  0.7818608E-02  0.1133441E+00
         21   -1    0    0  501  502  0.00000000000E+00  0.00000000000E+00  0.13598155663E+04  0.13598155663E+04  0.00000000000E+00 0. -1.
         21   -1    0    0  502  503 -0.00000000000E+00 -0.00000000000E+00 -0.36596757510E+02  0.36596757510E+02  0.00000000000E+00 0.  1.
         -6    2    1    2    0  503 -0.87029845079E+02 -0.10584059829E+03  0.77129193773E+03  0.80188332558E+03  0.17131604845E+03 0.  0.
        -24    2    3    3    0    0  0.18143901119E+02 -0.67748365938E+02  0.32911847870E+03  0.34575615809E+03  0.79431137459E+02 0.  0.
          6    2    1    2  501    0  0.87029845079E+02  0.10584059829E+03  0.55192687102E+03  0.59452899819E+03  0.17339271194E+03 0.  0.
         24    2    5    5    0    0  0.73818039674E+01 -0.97026305372E+01  0.21272868913E+03  0.22741655659E+03  0.79474291208E+02 0.  0.
          5    1    5    5  501    0  0.79648041112E+02  0.11554322882E+03  0.33919818189E+03  0.36711244160E+03  0.47000000000E+01 0. -1.
        -11    1    6    6    0    0  0.22319886902E+02 -0.15754498917E+02  0.19616997376E+02  0.33633438324E+02  0.00000000000E+00 0.  1.
         12    1    6    6    0    0 -0.14938082935E+02  0.60518683799E+01  0.19311169175E+03  0.19378311826E+03  0.00000000000E+00 0. -1.
         -5    1    3    3    0  503 -0.10517374620E+03 -0.38092232349E+02  0.44217345903E+03  0.45612716750E+03  0.47000000000E+01 0.  1.
         11    1    4    4    0    0 -0.21869523234E+02 -0.49179651453E+02  0.24423073763E+03  0.25009111813E+03  0.00000000000E+00 0. -1.
        -12    1    4    4    0    0  0.40013424353E+02 -0.18568714484E+02  0.84887741064E+02  0.95665039952E+02  0.00000000000E+00 0.  1.
</event>
<event>
12    1  0.8526130E-002  0.2655645E+03  0.7818608E-02  0.1103891E+00
         21   -1    0    0  503  502  0.00000000000E+00  0.00000000000E+00  0.32727146182E+03  0.32727146182E+03  0.00000000000E+00 0.  1.
         21   -1    0    0  501  503 -0.00000000000E+00 -0.00000000000E+00 -0.43175615416E+03  0.43175615416E+03  0.00000000000E+00 0.  1.
          6    2    1    2  501    0  0.17066935765E+03 -0.10701831160E+03 -0.32101237872E+03  0.41662148015E+03  0.17304208095E+03 0.  0.
         24    2    3    3    0    0  0.17476144291E+03 -0.96146451126E+02 -0.33487131575E+03  0.39793719136E+03  0.80184213943E+02 0.  0.
         -6    2    1    2    0  502 -0.17066935765E+03  0.10701831160E+03  0.21652768638E+03  0.34240613583E+03  0.17255948026E+03 0.  0.
        -24    2    5    5    0    0 -0.50821979529E+01  0.53327474320E+02  0.63315148928E+02  0.11046220921E+03  0.72961930663E+02 0.  0.
          5    1    3    3  501    0 -0.40920852597E+01 -0.10871860477E+02  0.13858937033E+02  0.18684288793E+02  0.47000000000E+01 0. -1.
        -13    1    4    4    0    0  0.57656440939E+01 -0.10865783560E+02 -0.77386915228E+02  0.78358423623E+02  0.00000000000E+00 0.  1.
         14    1    4    4    0    0  0.16899579882E+03 -0.85280667566E+02 -0.25748440052E+03  0.31957876774E+03  0.00000000000E+00 0. -1.
         -5    1    5    5    0  502 -0.16558715970E+03  0.53690837282E+02  0.15321253745E+03  0.23194392662E+03  0.47000000000E+01 0.  1.
         11    1    6    6    0    0 -0.10254639381E+02  0.47138585334E+02  0.79149329563E+02  0.92692072080E+02  0.00000000000E+00 0. -1.
        -12    1    6    6    0    0  0.51724414280E+01  0.61888889860E+01 -0.15834180635E+02  0.17770137129E+02  0.00000000000E+00 0.  1.
</event>
<event>
12    1  0.8526130E-002  0.2243637E+03  0.7818608E-02  0.1130843E+00
         21   -1    0    0  503  502  0.00000000000E+00  0.00000000000E+00  0.18630959505E+03  0.18630959505E+03  0.00000000000E+00 0.  1.
         21   -1    0    0  501  503 -0.00000000000E+00 -0.00000000000E+00 -0.32855569441E+03  0.32855569441E+03  0.00000000000E+00 0.  1.
          6    2    1    2  501    0  0.12831057474E+03  0.60953540344E+02 -0.18080036492E+03  0.28814551486E+03  0.17366671560E+03 0.  0.
         24    2    3    3    0    0  0.12852730679E+03  0.46132857175E+00 -0.16802452417E+03  0.22614013796E+03  0.79922711768E+02 0.  0.
         -6    2    1    2    0  502 -0.12831057474E+03 -0.60953540344E+02  0.38554265561E+02  0.22671977460E+03  0.17244270682E+03 0.  0.
        -24    2    5    5    0    0 -0.92629711952E+02  0.23854293214E+02 -0.66960176603E+01  0.12407879481E+03  0.78749094138E+02 0.  0.
          5    1    3    3  501    0 -0.21673205683E+00  0.60492211772E+02 -0.12775840750E+02  0.62005376902E+02  0.47000000000E+01 0. -1.
        -13    1    4    4    0    0  0.59079802083E+02 -0.26640802513E+01 -0.13852736522E+03  0.15062320954E+03  0.00000000000E+00 0.  1.
         14    1    4    4    0    0  0.69447504710E+02  0.31254088230E+01 -0.29497158949E+02  0.75516928413E+02  0.00000000000E+00 0. -1.
         -5    1    5    5    0  502 -0.35680862784E+02 -0.84807833558E+02  0.45250283222E+02  0.10264097980E+03  0.47000000000E+01 0.  1.
         11    1    6    6    0    0 -0.51138886942E+02  0.11901623171E+02  0.35758145449E+02  0.63525422925E+02  0.00000000000E+00 0. -1.
        -12    1    6    6    0    0 -0.41490825010E+02  0.11952670043E+02 -0.42454163109E+02  0.60553371884E+02  0.00000000000E+00 0.  1.
</event>
<event>
12    1  0.8526130E-002  0.1772666E+03  0.7818608E-02  0.1170790E+00
         21   -1    0    0  503  502  0.00000000000E+00  0.00000000000E+00  0.30950167199E+03  0.30950167199E+03  0.00000000000E+00 0.  1.
         21   -1    0    0  501  503 -0.00000000000E+00 -0.00000000000E+00 -0.10762163458E+03  0.10762163458E+03  0.00000000000E+00 0.  1.
          6    2    1    2  501    0  0.38822033663E+02  0.10338797677E+02  0.48779581307E+02  0.18385567386E+03  0.17265404780E+03 0.  0.
         24    2    3    3    0    0 -0.42678366058E+02 -0.13584372641E+02  0.22704791863E+02  0.94880295930E+02  0.80503322123E+02 0.  0.
         -6    2    1    2    0  502 -0.38822033663E+02 -0.10338797677E+02  0.15310045610E+03  0.23326763271E+03  0.17134759344E+03 0.  0.
        -24    2    5    5    0    0 -0.77111690496E+02  0.27972802601E+02  0.13447454677E+03  0.17579684853E+03  0.78054069245E+02 0.  0.
          5    1    3    3  501    0  0.81500399721E+02  0.23923170318E+02  0.26074789444E+02  0.88975377927E+02  0.47000000000E+01 0. -1.
        -13    1    4    4    0    0  0.10760047080E+02  0.23179495971E+02 -0.16185964364E+01  0.25606395706E+02  0.00000000000E+00 0.  1.
         14    1    4    4    0    0 -0.53438413137E+02 -0.36763868612E+02  0.24323388299E+02  0.69273900224E+02  0.00000000000E+00 0. -1.
         -5    1    5    5    0  502  0.38289656834E+02 -0.38311600278E+02  0.18625909328E+02  0.57470784183E+02  0.47000000000E+01 0.  1.
         13    1    6    6    0    0 -0.54448926139E+02  0.29104894743E+02  0.29550334355E+02  0.68447079676E+02  0.00000000000E+00 0. -1.
        -14    1    6    6    0    0 -0.22662764358E+02 -0.11320921423E+01  0.10492421242E+03  0.10734976885E+03  0.00000000000E+00 0.  1.
</event>
<event>
12    1  0.8526130E-002  0.1911434E+03  0.7818608E-02  0.1160308E+00
         21   -1    0    0  501  502  0.00000000000E+00  0.00000000000E+00  0.25431170213E+03  0.25431170213E+03  0.00000000000E+00 0.  1.
         21   -1    0    0  502  503 -0.00000000000E+00 -0.00000000000E+00 -0.14423929502E+03  0.14423929502E+03  0.00000000000E+00 0.  1.
         -6    2    1    2    0  503 -0.40267358936E+02  0.29280709253E+02  0.15650327092E+01  0.17875642354E+03  0.17167582678E+03 0.  0.
        -24    2    3    3    0    0 -0.93067125473E+01 -0.46529659492E+02  0.17656331664E+02  0.95169381863E+02  0.80584372465E+02 0.  0.
          6    2    1    2  501    0  0.40267358936E+02 -0.29280709253E+02  0.10850737440E+03  0.21979457361E+03  0.18454534445E+03 0.  0.
         24    2    5    5    0    0 -0.16323919124E+02 -0.69968121567E+02  0.25223912107E+02  0.11109193627E+03  0.80889827482E+02 0.  0.
          5    1    5    5  501    0  0.56591278060E+02  0.40687412314E+02  0.83283462292E+02  0.10870263734E+03  0.47000000000E+01 0. -1.
        -11    1    6    6    0    0  0.24866804574E+02 -0.60883581466E+02  0.18992500602E+02  0.68453513722E+02  0.00000000000E+00 0.  1.
         12    1    6    6    0    0 -0.41190723698E+02 -0.90845401013E+01  0.62314115056E+01  0.42638422543E+02  0.00000000000E+00 0. -1.
         -5    1    3    3    0  503 -0.30960646389E+02  0.75810368744E+02 -0.16091298955E+02  0.83587041675E+02  0.47000000000E+01 0.  1.
         13    1    4    4    0    0 -0.31701833356E+02 -0.59249947254E+02  0.80400950643E+01  0.67677216376E+02  0.00000000000E+00 0. -1.
        -14    1    4    4    0    0  0.22395120809E+02  0.12720287763E+02  0.96162366000E+01  0.27492165487E+02  0.00000000000E+00 0.  1.
</event>
<event>
12    1  0.8526130E-002  0.4016993E+03  0.7818608E-02  0.1043203E+00
         21   -1    0    0  501  502  0.00000000000E+00  0.00000000000E+00  0.12801177260E+04  0.12801177260E+04  0.00000000000E+00 0. -1.
         21   -1    0    0  502  503 -0.00000000000E+00 -0.00000000000E+00 -0.14210329612E+03  0.14210329612E+03  0.00000000000E+00 0.  1.
         -6    2    1    2    0  503  0.26963525960E+03 -0.24210418770E+03  0.32982502754E+03  0.51975652777E+03  0.17333403718E+03 0.  0.
        -24    2    3    3    0    0  0.11146365741E+03 -0.32624430562E+02  0.14388388557E+03  0.19804823961E+03  0.70936819035E+02 0.  0.
          6    2    1    2  501    0 -0.26963525960E+03  0.24210418770E+03  0.80818940236E+03  0.90246449437E+03  0.17307351789E+03 0.  0.
         24    2    5    5    0    0 -0.18258204708E+03  0.17217940786E+03  0.39869425431E+03  0.47799293711E+03  0.80859057020E+02 0.  0.
          5    1    5    5  501    0 -0.87053212517E+02  0.69924779837E+02  0.40949514806E+03  0.42447155726E+03  0.47000000000E+01 0. -1.
        -13    1    6    6    0    0 -0.56507486593E+02  0.80732884208E+02  0.21929666657E+03  0.24042030406E+03  0.00000000000E+00 0.  1.
         14    1    6    6    0    0 -0.12607456049E+03  0.91446523652E+02  0.17939758774E+03  0.23757263306E+03  0.00000000000E+00 0. -1.
         -5    1    3    3    0  503  0.15817160219E+03 -0.20947975713E+03  0.18594114197E+03  0.32170828815E+03  0.47000000000E+01 0.  1.
         11    1    4    4    0    0  0.22871355759E+02 -0.22965549811E+02  0.85685595843E+02  0.91610789361E+02  0.00000000000E+00 0. -1.
        -12    1    4    4    0    0  0.88592301650E+02 -0.96588807510E+01  0.58198289725E+02  0.10643745025E+03  0.00000000000E+00 0.  1.
</event>
<event>
12    1  0.8526130E-002  0.2388091E+03  0.7818608E-02  0.1120642E+00
         21   -1    0    0  501  502  0.00000000000E+00  0.00000000000E+00  0.38001084173E+03  0.38001084173E+03  0.00000000000E+00 0.  1.
         21   -1    0    0  502  503 -0.00000000000E+00 -0.00000000000E+00 -0.44065720575E+03  0.44065720575E+03  0.00000000000E+00 0. -1.
         -6    2    1    2    0  503 -0.12835593940E+03  0.10301718016E+03 -0.36364400167E+03  0.43487357269E+03  0.17259860279E+03 0.  0.
        -24    2    3    3    0    0 -0.22208953420E+02  0.82099403676E+01 -0.73470790232E+02  0.11164272950E+03  0.80656687888E+02 0.  0.
          6    2    1    2  501    0  0.12835593940E+03 -0.10301718016E+03  0.30299763766E+03  0.38579447479E+03  0.17303763107E+03 0.  0.
         24    2    5    5    0    0  0.81981167077E+02 -0.10495778381E+03  0.12003057879E+03  0.19697334229E+03  0.81572725761E+02 0.  0.
          5    1    5    5  501    0  0.46374772322E+02  0.19406036567E+01  0.18296705887E+03  0.18882113251E+03  0.47000000000E+01 0. -1.
        -11    1    6    6    0    0  0.51176057155E+02 -0.17920025096E+02  0.79286598502E+02  0.96054572132E+02  0.00000000000E+00 0.  1.
         12    1    6    6    0    0  0.30805109922E+02 -0.87037758716E+02  0.40743980290E+02  0.10091877015E+03  0.00000000000E+00 0. -1.
         -5    1    3    3    0  503 -0.10614698598E+03  0.94807239788E+02 -0.29017321144E+03  0.32323084318E+03  0.47000000000E+01 0.  1.
         13    1    4    4    0    0 -0.45547837562E+02  0.22386577006E+02 -0.66140846429E+02  0.83368914489E+02  0.00000000000E+00 0. -1.
        -14    1    4    4    0    0  0.23338884143E+02 -0.14176636638E+02 -0.73299438025E+01  0.28273815016E+02  0.00000000000E+00 0.  1.
</event>
<event>
12    1  0.8526130E-002  0.1934042E+03  0.7818608E-02  0.1156119E+00
         21   -1    0    0  501  502  0.00000000000E+00  0.00000000000E+00  0.27754728147E+02  0.27754728147E+02  0.00000000000E+00 0. -1.
         21   -1    0    0  502  503 -0.00000000000E+00 -0.00000000000E+00 -0.14278874440E+04  0.14278874440E+04  0.00000000000E+00 0. -1.
         -6    2    1    2    0  503  0.80793112304E+02 -0.16252089427E+00 -0.88913206824E+03  0.90926607974E+03  0.17228295210E+03 0.  0.
        -24    2    3    3    0    0  0.77832206810E+02  0.62331308790E+02 -0.61478989063E+03  0.62784119434E+03  0.79214337144E+02 0.  0.
          6    2    1    2  501    0 -0.80793112304E+02  0.16252089427E+00 -0.51100064762E+03  0.54637609242E+03  0.17572028650E+03 0.  0.
         24    2    5    5    0    0  0.29151288291E+01 -0.27187468899E+02 -0.37016355948E+03  0.38020670002E+03  0.82391853524E+02 0.  0.
          5    1    5    5  501    0 -0.83708241133E+02  0.27349989793E+02 -0.14083708814E+03  0.16616939240E+03  0.47000000000E+01 0. -1.
        -13    1    6    6    0    0 -0.16910260820E+02 -0.31940743406E+02 -0.65072249058E+02  0.74434975702E+02  0.00000000000E+00 0.  1.
         14    1    6    6    0    0  0.19825389649E+02  0.47532745074E+01 -0.30509131043E+03  0.30577172431E+03  0.00000000000E+00 0. -1.
         -5    1    3    3    0  503  0.29609054935E+01 -0.62493829684E+02 -0.27434217760E+03  0.28142488540E+03  0.47000000000E+01 0.  1.
         13    1    4    4    0    0  0.36501714516E+02  0.24074906790E+02 -0.90230891205E+02  0.10026759211E+03  0.00000000000E+00 0. -1.
        -14    1    4    4    0    0  0.41330492294E+02  0.38256402000E+02 -0.52455899943E+03  0.52757360223E+03  0.00000000000E+00 0.  1.
</event>
<event>
12    1  0.8526130E-002  0.1939043E+03  0.7818608E-02  0.1155447E+00
         21   -1    0    0  503  502  0.00000000000E+00  0.00000000000E+00  0.10621373294E+03  0.10621373294E+03  0.00000000000E+00 0.  1.
         21   -1    0    0  501  503 -0.00000000000E+00 -0.00000000000E+00 -0.15875741082E+04  0.15875741082E+04  0.00000000000E+00 0.  1.
          6    2    1    2  501    0 -0.33266146817E+01 -0.88678443132E+02 -0.14874699431E+04  0.14997872896E+04  0.17005925424E+03 0.  0.
         24    2    3    3    0    0  0.75139437164E+00 -0.11012890844E+03 -0.77959317793E+03  0.79155826082E+03  0.81670166722E+02 0.  0.
         -6    2    1    2    0  502  0.33266146817E+01  0.88678443132E+02  0.61095678473E+01  0.19400055148E+03  0.17240636448E+03 0.  0.
        -24    2    5    5    0    0 -0.38856057702E+01  0.75518869875E+02 -0.60755440058E+02  0.12531132544E+03  0.79331627657E+02 0.  0.
          5    1    3    3  501    0 -0.40780090533E+01  0.21450465306E+02 -0.70787676515E+03  0.70822902881E+03  0.47000000000E+01 0. -1.
        -11    1    4    4    0    0 -0.20452279983E+02 -0.89739159581E+02 -0.71087266954E+03  0.71680636494E+03  0.00000000000E+00 0.  1.
         12    1    4    4    0    0  0.21203674355E+02 -0.20389748857E+02 -0.68720508393E+02  0.74751895885E+02  0.00000000000E+00 0. -1.
         -5    1    5    5    0  502  0.72122204519E+01  0.13159573257E+02  0.66865007906E+02  0.68689226043E+02  0.47000000000E+01 0.  1.
         13    1    6    6    0    0 -0.36611960785E+02  0.65408126611E+02 -0.36732020122E+02  0.83473948041E+02  0.00000000000E+00 0. -1.
        -14    1    6    6    0    0  0.32726355015E+02  0.10110743264E+02 -0.24023419937E+02  0.41837377396E+02  0.00000000000E+00 0.  1.
</event>
<event>
12    1  0.8526130E-002  0.1729504E+03  0.7818608E-02  0.1175343E+00
         21   -1    0    0  501  502  0.00000000000E+00  0.00000000000E+00  0.31523314947E+03  0.31523314947E+03  0.00000000000E+00 0.  1.
         21   -1    0    0  502  503 -0.00000000000E+00 -0.00000000000E+00 -0.98794153476E+02  0.98794153476E+02  0.00000000000E+00 0.  1.
         -6    2    1    2    0  503 -0.79210287669E+01  0.20487479846E+02  0.15565855613E+03  0.23268308820E+03  0.17154985837E+03 0.  0.
        -24    2    3    3    0    0  0.21521839018E+01  0.25990963018E+02  0.27274650244E+01  0.79249823980E+02  0.74785917666E+02 0.  0.
          6    2    1    2  501    0  0.79210287669E+01 -0.20487479846E+02  0.60780439862E+02  0.18134421475E+03  0.16943725336E+03 0.  0.
         24    2    5    5    0    0  0.66070993368E+02 -0.12763912465E+02  0.63499612620E+02  0.12243279161E+03  0.80182878671E+02 0.  0.
          5    1    5    5  501    0 -0.58149964601E+02 -0.77235673819E+01 -0.27191727581E+01  0.58911423143E+02  0.47000000000E+01 0. -1.
        -13    1    6    6    0    0  0.16407190801E+02  0.24510559180E+02 -0.50671347747E+01  0.29927233018E+02  0.00000000000E+00 0.  1.
         14    1    6    6    0    0  0.49663802567E+02 -0.37274471644E+02  0.68566747395E+02  0.92505558590E+02  0.00000000000E+00 0. -1.
         -5    1    3    3    0  503 -0.10073212669E+02 -0.55034831714E+01  0.15293109111E+03  0.15343326422E+03  0.47000000000E+01 0.  1.
         13    1    4    4    0    0  0.77734804556E+01  0.51710973824E+02  0.63441877983E+01  0.52675426254E+02  0.00000000000E+00 0. -1.
        -14    1    4    4    0    0 -0.56212965538E+01 -0.25720010807E+02 -0.36167227739E+01  0.26574397725E+02  0.00000000000E+00 0.  1.
</event>
<event>
12    1  0.8526130E-002  0.2107333E+03  0.7818608E-02  0.1141676E+00
         21   -1    0    0  503  502  0.00000000000E+00  0.00000000000E+00  0.25698491430E+03  0.25698491430E+03  0.00000000000E+00 0.  1.
         21   -1    0    0  501  503 -0.00000000000E+00 -0.00000000000E+00 -0.15537215221E+04  0.15537215221E+04  0.00000000000E+00 0. -1.
          6    2    1    2  501    0 -0.43624819140E+02 -0.11327231826E+03 -0.15021738014E+04  0.15164056511E+04  0.16800662469E+03 0.  0.
         24    2    3    3    0    0 -0.89832774764E+02 -0.10926314426E+03 -0.10980270174E+04  0.11095789537E+04  0.74119912658E+02 0.  0.
         -6    2    1    2    0  502  0.43624819140E+02  0.11327231826E+03  0.20543719365E+03  0.29430078532E+03  0.17226366064E+03 0.  0.
        -24    2    5    5    0    0 -0.94445477528E+01  0.12587838283E+02  0.48834251898E+02  0.10065086001E+03  0.86591906703E+02 0.  0.
          5    1    3    3  501    0  0.46207955624E+02 -0.40091739940E+01 -0.40414678406E+03  0.40682669739E+03  0.47000000000E+01 0. -1.
        -11    1    4    4    0    0 -0.37662625713E+02 -0.25662672146E+02 -0.15921797594E+03  0.16561222775E+03  0.00000000000E+00 0.  1.
         12    1    4    4    0    0 -0.52170149050E+02 -0.83600472118E+02 -0.93880904143E+03  0.94396672593E+03  0.00000000000E+00 0. -1.
         -5    1    5    5    0  502  0.53069366893E+02  0.10068447998E+03  0.15660294175E+03  0.19364992532E+03  0.47000000000E+01 0.  1.
         13    1    6    6    0    0  0.26695523689E+02 -0.23822453890E+02  0.27337692893E+02  0.45027877444E+02  0.00000000000E+00 0. -1.
        -14    1    6    6    0    0 -0.36140071442E+02  0.36410292174E+02  0.21496559005E+02  0.55622982562E+02  0.00000000000E+00 0.  1.
</event>
<event>
12    1  0.8526130E-002  0.1821419E+03  0.7818608E-02  0.1166914E+00
         21   -1    0    0  501  502  0.00000000000E+00  0.00000000000E+00  0.35106186347E+03  0.35106186347E+03  0.00000000000E+00 0.  1.
         21   -1    0    0  502  503 -0.00000000000E+00 -0.00000000000E+00 -0.18603474266E+03  0.18603474266E+03  0.00000000000E+00 0.  1.
         -6    2    1    2    0  503 -0.33500233050E+02  0.22707054514E+02 -0.10784643470E+03  0.21167552578E+03  0.17758884762E+03 0.  0.
        -24    2    3    3    0    0 -0.16509535036E+02 -0.55688805486E+02 -0.79169095108E+02  0.12635803350E+03  0.79528606207E+02 0.  0.
          6    2    1    2  501    0  0.33500233050E+02 -0.22707054514E+02  0.27287355551E+03  0.32542108034E+03  0.17262973757E+03 0.  0.
         24    2    5    5    0    0  0.31121953131E+02 -0.77945077342E+02  0.22490076909E+03  0.25207005023E+03  0.76908668157E+02 0.  0.
          5    1    5    5  501    0  0.23782799191E+01  0.55238022828E+02  0.47972786419E+02  0.73351030110E+02  0.47000000000E+01 0. -1.
        -13    1    6    6    0    0 -0.67089145292E+01 -0.38268064662E+02  0.17037734110E+03  0.17475094468E+03  0.00000000000E+00 0.  1.
         14    1    6    6    0    0  0.37830867660E+02 -0.39677012680E+02  0.54523427993E+02  0.77319105551E+02  0.00000000000E+00 0. -1.
         -5    1    3    3    0  503 -0.16990698015E+02  0.78395860000E+02 -0.28677339590E+02  0.85317492287E+02  0.47000000000E+01 0.  1.
         13    1    4    4    0    0 -0.43211993035E+02 -0.55380639230E+02 -0.66772297533E+02  0.96916620151E+02  0.00000000000E+00 0. -1.
        -14    1    4    4    0    0  0.26702457999E+02 -0.30816625585E+00 -0.12396797575E+02  0.29441413345E+02  0.00000000000E+00 0.  1.
</event>
<event>
12    1  0.8526130E-002  0.1970648E+03  0.7818608E-02  0.1152306E+00
         21   -1    0    0  503  502  0.00000000000E+00  0.00000000000E+00  0.97191388862E+03  0.97191388862E+03  0.00000000000E+00 0.  1.
         21   -1    0    0  501  503 -0.00000000000E+00 -0.00000000000E+00 -0.45033315557E+02  0.45033315557E+02  0.00000000000E+00 0.  1.
          6    2    1    2  501    0 -0.86028641052E+02 -0.41186612315E+02  0.29198619524E+03  0.35226479300E+03  0.17244501171E+03 0.  0.
         24    2    3    3    0    0 -0.91084814091E+01 -0.31356978600E+02  0.54607299469E+02  0.10249657482E+03  0.80357738605E+02 0.  0.
         -6    2    1    2    0  502  0.86028641052E+02  0.41186612315E+02  0.63489437782E+03  0.66468241117E+03  0.17208885093E+03 0.  0.
        -24    2    5    5    0    0 -0.21816592856E+02  0.82261119660E+00  0.26946749402E+03  0.28151306941E+03  0.78487180486E+02 0.  0.
          5    1    3    3  501    0 -0.76920159642E+02 -0.98296337147E+01  0.23737889577E+03  0.24976821818E+03  0.47000000000E+01 0. -1.
        -11    1    4    4    0    0 -0.36182656440E+02  0.26873929808E+01  0.45257483056E+02  0.58005572841E+02  0.00000000000E+00 0.  1.
         12    1    4    4    0    0  0.27074175031E+02 -0.34044371581E+02  0.93498164125E+01  0.44491001977E+02  0.00000000000E+00 0. -1.
         -5    1    5    5    0  502  0.10784523391E+03  0.40364001118E+02  0.36542688380E+03  0.38316934177E+03  0.47000000000E+01 0.  1.
         13    1    6    6    0    0  0.12688330099E+02  0.31308312086E+02  0.87064875308E+02  0.93388953516E+02  0.00000000000E+00 0. -1.
        -14    1    6    6    0    0 -0.34504922955E+02 -0.30485700890E+02  0.18240261871E+03  0.18812411589E+03  0.00000000000E+00 0.  1.
</event>
<event>
12    1  0.8526130E-002  0.1938185E+03  0.7818608E-02  0.1155304E+00
         21   -1    0    0  501  502  0.00000000000E+00  0.00000000000E+00  0.54802520940E+03  0.54802520940E+03  0.00000000000E+00 0.  1.
         21   -1    0    0  502  503 -0.00000000000E+00 -0.00000000000E+00 -0.56817915267E+03  0.56817915267E+03  0.00000000000E+00 0.  1.
         -6    2    1    2    0  503  0.59126112820E+02 -0.65907469781E+02 -0.53363847567E+03  0.56774608962E+03  0.17241202908E+03 0.  0.
        -24    2    3    3    0    0 -0.36759558047E+01 -0.43932407095E+02 -0.45637655885E+03  0.46567505066E+03  0.81425550637E+02 0.  0.
          6    2    1    2  501    0 -0.59126112820E+02  0.65907469781E+02  0.51348453239E+03  0.54845827245E+03  0.17117365400E+03 0.  0.
         24    2    5    5    0    0  0.10322764640E+01  0.80631815995E+02  0.21312239643E+03  0.24174123528E+03  0.80716253800E+02 0.  0.
          5    1    5    5  501    0 -0.60158389284E+02 -0.14724346214E+02  0.30036213596E+03  0.30671703717E+03  0.47000000000E+01 0. -1.
        -11    1    6    6    0    0 -0.22306979119E+02  0.12102769293E+02  0.12569426110E+03  0.12823075144E+03  0.00000000000E+00 0.  1.
         12    1    6    6    0    0  0.23339255583E+02  0.68529046703E+02  0.87428135333E+02  0.11351048384E+03  0.00000000000E+00 0. -1.
         -5    1    3    3    0  503  0.62802068624E+02 -0.21975062686E+02 -0.77261916825E+02  0.10207103896E+03  0.47000000000E+01 0.  1.
         13    1    4    4    0    0  0.17938495021E+01 -0.45446934850E+02 -0.10716360723E+03  0.11641598042E+03  0.00000000000E+00 0. -1.
        -14    1    4    4    0    0 -0.54698053068E+01  0.15145277551E+01 -0.34921295162E+03  0.34925907024E+03  0.00000000000E+00 0.  1.
</event>
<event>
12    1  0.8526130E-002  0.1807606E+03  0.7818608E-02  0.1167673E+00
         21   -1    0    0  501  502  0.00000000000E+00  0.00000000000E+00  0.26078028798E+04  0.26078028798E+04  0.00000000000E+00 0. -1.
         21   -1    0    0  502  503 -0.00000000000E+00 -0.00000000000E+00 -0.12781522205E+02  0.12781522205E+02  0.00000000000E+00 0. -1.
         -6    2    1    2    0  503 -0.13622215343E+02  0.45530777973E+02  0.10500746262E+04  0.10650990165E+04  0.17181553453E+03 0.  0.
        -24    2    3    3    0    0 -0.30186513662E+02  0.68031439504E+02  0.41237736861E+03  0.42677265949E+03  0.80872160684E+02 0.  0.
          6    2    1    2  501    0  0.13622215343E+02 -0.45530777973E+02  0.15449467314E+04  0.15554853855E+04  0.17440116146E+03 0.  0.
         24    2    5    5    0    0  0.19350430005E+02  0.39068152734E+02  0.63651621666E+03  0.64309408696E+03  0.80723917866E+02 0.  0.
          5    1    5    5  501    0 -0.57282146617E+01 -0.84598930707E+02  0.90843051475E+03  0.91239129854E+03  0.47000000000E+01 0. -1.
        -11    1    6    6    0    0 -0.35940599569E+01  0.37071730379E+02  0.59013724531E+03  0.59131142282E+03  0.00000000000E+00 0.  1.
         12    1    6    6    0    0  0.22944489962E+02  0.19964223550E+01  0.46378971354E+02  0.51782664142E+02  0.00000000000E+00 0. -1.
         -5    1    3    3    0  503  0.16564298319E+02 -0.22500661532E+02  0.63769725754E+03  0.63832635699E+03  0.47000000000E+01 0.  1.
         13    1    4    4    0    0  0.27587256191E+02  0.20265568973E+02  0.10770603285E+03  0.11301477559E+03  0.00000000000E+00 0. -1.
        -14    1    4    4    0    0 -0.57773769853E+02  0.47765870531E+02  0.30467133577E+03  0.31375788390E+03  0.00000000000E+00 0.  1.
</event>
<event>
12    1  0.8526130E-002  0.1858023E+03  0.7818608E-02  0.1163135E+00
         21   -1    0    0  503  502  0.00000000000E+00  0.00000000000E+00  0.18126300223E+04  0.18126300223E+04  0.00000000000E+00 0. -1.
         21   -1    0    0  501  503 -0.00000000000E+00 -0.00000000000E+00 -0.19146046322E+02  0.19146046322E+02  0.00000000000E+00 0. -1.
          6    2    1    2  501    0 -0.55734582155E+02  0.49726766893E+01  0.76281191593E+03  0.78511434276E+03  0.17717629909E+03 0.  0.
         24    2    3    3    0    0 -0.67516318826E+02 -0.58039767778E+02  0.45113768019E+03  0.46688125727E+03  0.80782633957E+02 0.  0.
         -6    2    1    2    0  502  0.55734582155E+02 -0.49726766893E+01  0.10306720600E+04  0.10466617258E+04  0.17344970989E+03 0.  0.
        -24    2    5    5    0    0  0.36171319129E+02  0.60350438059E+02  0.50082186702E+03  0.51242100518E+03  0.82475477361E+02 0.  0.
          5    1    3    3  501    0  0.11781736672E+02  0.63012444467E+02  0.31167423574E+03  0.31823308549E+03  0.47000000000E+01 0. -1.
        -11    1    4    4    0    0 -0.71123872959E+02 -0.13527463658E+02  0.22448813740E+03  0.23587395238E+03  0.00000000000E+00 0.  1.
         12    1    4    4    0    0  0.36075541326E+01 -0.44512304120E+02  0.22664954279E+03  0.23100730489E+03  0.00000000000E+00 0. -1.
         -5    1    5    5    0  502  0.19563263025E+02 -0.65323114748E+02  0.52985019300E+03  0.53424072065E+03  0.47000000000E+01 0.  1.
         11    1    6    6    0    0  0.13926661617E+01  0.48012242986E+01 -0.19717864161E+01  0.53739385440E+01  0.00000000000E+00 0. -1.
        -12    1    6    6    0    0  0.34778652968E+02  0.55549213760E+02  0.50279365344E+03  0.50704706664E+03  0.00000000000E+00 0.  1.
</event>
<event>
12    1  0.8526130E-002  0.2256568E+03  0.7818608E-02  0.1130761E+00
         21   -1    0    0  501  502  0.00000000000E+00  0.00000000000E+00  0.21471681940E+03  0.21471681940E+03  0.00000000000E+00 0.  1.
         21   -1    0    0  502  503 -0.00000000000E+00 -0.00000000000E+00 -0.55351369594E+03  0.55351369594E+03  0.00000000000E+00 0.  1.
         -6    2    1    2    0  503  0.45290381281E+02 -0.13830000441E+03 -0.46157020519E+03  0.51133696734E+03  0.16504644800E+03 0.  0.
        -24    2    3    3    0    0 -0.33646733029E+02 -0.45841355849E+02 -0.18481061427E+03  0.20901655640E+03  0.79368918041E+02 0.  0.
          6    2    1    2  501    0 -0.45290381281E+02  0.13830000441E+03  0.12277332865E+03  0.25689354800E+03  0.17246128528E+03 0.  0.
         24    2    5    5    0    0 -0.30662527729E+02  0.12684933542E+03  0.22194029275E+02  0.15450518254E+03  0.79676420552E+02 0.  0.
          5    1    5    5  501    0 -0.14627853552E+02  0.11450668991E+02  0.10057929937E+03  0.10238836546E+03  0.47000000000E+01 0. -1.
        -11    1    6    6    0    0 -0.35700716021E+01  0.20764852547E+02 -0.27186675866E+02  0.34395346446E+02  0.00000000000E+00 0.  1.
         12    1    6    6    0    0 -0.27092456127E+02  0.10608448287E+03  0.49380705141E+02  0.12010983609E+03  0.00000000000E+00 0. -1.
         -5    1    3    3    0  503  0.78937114310E+02 -0.92458648560E+02 -0.27675959092E+03  0.30232041095E+03  0.47000000000E+01 0.  1.
         13    1    4    4    0    0  0.39637773717E+00 -0.11777570574E+02  0.52853113045E+01  0.12915215814E+02  0.00000000000E+00 0. -1.
        -14    1    4    4    0    0 -0.34043110766E+02 -0.34063785275E+02 -0.19009592558E+03  0.19610134058E+03  0.00000000000E+00 0.  1.
</event>
<event>
12    1  0.8526130E-002  0.2146005E+03  0.7818608E-02  0.1138453E+00
         21   -1    0    0  503  502  0.00000000000E+00  0.00000000000E+00  0.56770746187E+02  0.56770746187E+02  0.00000000000E+00 0.  1.
         21   -1    0    0  501  503 -0.00000000000E+00 -0.00000000000E+00 -0.17566286935E+04  0.17566286935E+04  0.00000000000E+00 0. -1.
          6    2    1    2  501    0 -0.12619808653E+03  0.40949629089E+01 -0.15206159405E+04  0.15356842852E+04  0.17352423277E+03 0.  0.
         24    2    3    3    0    0 -0.11691236646E+02  0.33220153096E+02 -0.86197529198E+03  0.86651338825E+03  0.81263672263E+02 0.  0.
         -6    2    1    2    0  502  0.12619808653E+03 -0.40949629089E+01 -0.17924200673E+03  0.27771515447E+03  0.17045610660E+03 0.  0.
        -24    2    5    5    0    0  0.51134174099E+02 -0.51930292804E+02 -0.14837411198E+03  0.18338739258E+03  0.79401508668E+02 0.  0.
          5    1    3    3  501    0 -0.11450684989E+03 -0.29125190187E+02 -0.65864064855E+03  0.66917089693E+03  0.47000000000E+01 0. -1.
        -11    1    4    4    0    0  0.13353029012E+02  0.29350524397E+02 -0.12466382600E+03  0.12876655692E+03  0.00000000000E+00 0.  1.
         12    1    4    4    0    0 -0.25044265658E+02  0.38696286988E+01 -0.73731146598E+03  0.73774683133E+03  0.00000000000E+00 0. -1.
         -5    1    5    5    0  502  0.75063912436E+02  0.47835329895E+02 -0.30867894748E+02  0.94327761887E+02  0.47000000000E+01 0.  1.
         11    1    6    6    0    0  0.25084011668E+02 -0.26162987586E+02 -0.64561267612E+01  0.36815637079E+02  0.00000000000E+00 0. -1.
        -12    1    6    6    0    0  0.26050162430E+02 -0.25767305218E+02 -0.14191798522E+03  0.14657175550E+03  0.00000000000E+00 0.  1.
</event>
<event>
12    1  0.8526130E-002  0.1755635E+03  0.7818608E-02  0.1172950E+00
         21   -1    0    0  501  502  0.00000000000E+00  0.00000000000E+00  0.15261497659E+03  0.15261497659E+03  0.00000000000E+00 0.  1.
         21   -1    0    0  502  503 -0.00000000000E+00 -0.00000000000E+00 -0.20134162620E+03  0.20134162620E+03  0.00000000000E+00 0.  1.
         -6    2    1    2    0  503  0.16473146896E+02 -0.42003950333E+02 -0.32163803997E+01  0.17559295033E+03  0.16966685796E+03 0.  0.
        -24    2    3    3    0    0  0.61537402891E+02 -0.17681460981E+02 -0.35659353970E+02  0.11478993074E+03  0.88349604740E+02 0.  0.
          6    2    1    2  501    0 -0.16473146896E+02  0.42003950333E+02 -0.45510269207E+02  0.17836365247E+03  0.16645333131E+03 0.  0.
         24    2    5    5    0    0 -0.45539164538E+02  0.78728198308E+02 -0.50660000221E+02  0.13101269154E+03  0.79535809589E+02 0.  0.
          5    1    5    5  501    0  0.29066017642E+02 -0.36724247974E+02  0.51497310132E+01  0.47350960923E+02  0.47000000000E+01 0. -1.
        -13    1    6    6    0    0 -0.50185721771E+02  0.66463113550E+02 -0.49179749878E+01  0.83427445187E+02  0.00000000000E+00 0.  1.
         14    1    6    6    0    0  0.46465572328E+01  0.12265084758E+02 -0.45742025233E+02  0.47585246355E+02  0.00000000000E+00 0. -1.
         -5    1    3    3    0  503 -0.45064255994E+02 -0.24322489353E+02  0.32442973570E+02  0.60803019586E+02  0.47000000000E+01 0.  1.
         11    1    4    4    0    0  0.16618793008E+02  0.28829594768E+02 -0.37458477309E+02  0.50104564041E+02  0.00000000000E+00 0. -1.
        -12    1    4    4    0    0  0.44918609883E+02 -0.46511055748E+02  0.17991233390E+01  0.64685366702E+02  0.00000000000E+00 0.  1.
</event>
<event>
12    1  0.8526130E-002  0.2483180E+03  0.7818608E-02  0.1114801E+00
         21   -1    0    0  501  502  0.00000000000E+00  0.00000000000E+00  0.37178578803E+03  0.37178578803E+03  0.00000000000E+00 0. -1.
         21   -1    0    0  502  503 -0.00000000000E+00 -0.00000000000E+00 -0.10958018279E+04  0.10958018279E+04  0.00000000000E+00 0.  1.
         -6    2    1    2    0  503 -0.12464698853E+03  0.12644470889E+03 -0.10383459160E+04  0.10670066580E+04  0.16975226293E+03 0.  0.
        -24    2    3    3    0    0 -0.14191458622E+03  0.57269335179E+02 -0.71914407786E+03  0.73990528879E+03  0.82898161216E+02 0.  0.
          6    2    1    2  501    0  0.12464698853E+03 -0.12644470889E+03  0.31432987616E+03  0.40058095791E+03  0.17359924147E+03 0.  0.
         24    2    5    5    0    0  0.48110352506E+02  0.14515164387E+01  0.74916399762E+02  0.11852386478E+03  0.78222289983E+02 0.  0.
          5    1    5    5  501    0  0.76536636023E+02 -0.12789622533E+03  0.23941347640E+03  0.28205709314E+03  0.47000000000E+01 0. -1.
        -13    1    6    6    0    0  0.42182679168E+02  0.20236340268E+02  0.84523515046E+02  0.96608035302E+02  0.00000000000E+00 0.  1.
         14    1    6    6    0    0  0.59276733376E+01 -0.18784823830E+02 -0.96071152835E+01  0.21915829475E+02  0.00000000000E+00 0. -1.
         -5    1    3    3    0  503  0.17267597693E+02  0.69175373715E+02 -0.31920183813E+03  0.32710136919E+03  0.47000000000E+01 0.  1.
         13    1    4    4    0    0 -0.16468214039E+02  0.34523036404E+02 -0.87063256944E+02  0.95094967406E+02  0.00000000000E+00 0. -1.
        -14    1    4    4    0    0 -0.12544637218E+03  0.22746298775E+02 -0.63208082091E+03  0.64481032139E+03  0.00000000000E+00 0.  1.
</event>
<event>
12    1  0.8526130E-002  0.3261911E+03  0.7818608E-02  0.1072923E+00
         21   -1    0    0  503  502  0.00000000000E+00  0.00000000000E+00  0.43273229634E+02  0.43273229634E+02  0.00000000000E+00 0. -1.
         21   -1    0    0  501  503 -0.00000000000E+00 -0.00000000000E+00 -0.24554183126E+04  0.24554183126E+04  0.00000000000E+00 0. -1.
          6    2    1    2  501    0 -0.24420546127E+03 -0.13330821567E+03 -0.11644021875E+04  0.12090160143E+04  0.16875983177E+03 0.  0.
         24    2    3    3    0    0 -0.76765332300E+02 -0.32870024262E+02 -0.32766358057E+03  0.34978518765E+03  0.89514807315E+02 0.  0.
         -6    2    1    2    0  502  0.24420546127E+03  0.13330821567E+03 -0.12477428954E+04  0.12896755279E+04  0.17027403374E+03 0.  0.
        -24    2    5    5    0    0  0.12112521569E+03  0.13560486470E+03 -0.86672729816E+03  0.88923951954E+03  0.80440764146E+02 0.  0.
          5    1    3    3  501    0 -0.16744012897E+03 -0.10043819141E+03 -0.83673860695E+03  0.85923082664E+03  0.47000000000E+01 0. -1.
        -13    1    4    4    0    0 -0.81319113795E+02 -0.14915257439E+02 -0.15098879257E+03  0.17214203047E+03  0.00000000000E+00 0.  1.
         14    1    4    4    0    0  0.45537814951E+01 -0.17954766823E+02 -0.17667478799E+03  0.17764315717E+03  0.00000000000E+00 0. -1.
         -5    1    5    5    0  502  0.12308024558E+03 -0.22966490301E+01 -0.38101559727E+03  0.40043600839E+03  0.47000000000E+01 0.  1.
         13    1    6    6    0    0  0.82198676221E+02  0.46654924342E+02 -0.30928783347E+03  0.32340727925E+03  0.00000000000E+00 0. -1.
        -14    1    6    6    0    0  0.38926539470E+02  0.88949940360E+02 -0.55743946469E+03  0.56583224029E+03  0.00000000000E+00 0.  1.
</event>
<event>
12    1  0.8526130E-002  0.2161869E+03  0.7818608E-02  0.1136859E+00
         21   -1    0    0  501  502  0.00000000000E+00  0.00000000000E+00  0.31599362757E+02  0.31599362757E+02  0.00000000000E+00 0. -1.
         21   -1    0    0  502  503 -0.00000000000E+00 -0.00000000000E+00 -0.14976703727E+04  0.14976703727E+04  0.00000000000E+00 0. -1.
         -6    2    1    2    0  503  0.45948894484E+02  0.12148002658E+03 -0.63895003246E+03  0.67436278512E+03  0.17216075104E+03 0.  0.
        -24    2    3    3    0    0 -0.17984909282E+01  0.17567973677E+02 -0.41309553072E+03  0.42116350883E+03  0.80118134038E+02 0.  0.
          6    2    1    2  501    0 -0.45948894484E+02 -0.12148002658E+03 -0.82712097744E+03  0.85490695030E+03  0.17282385424E+03 0.  0.
         24    2    5    5    0    0  0.35165671698E+02 -0.38923291095E+02 -0.28776818782E+03  0.30325605609E+03  0.80012865063E+02 0.  0.
          5    1    5    5  501    0 -0.81114566182E+02 -0.82556735486E+02 -0.53935278961E+03  0.55165089421E+03  0.47000000000E+01 0. -1.
        -11    1    6    6    0    0  0.29353949062E+02 -0.22317400960E+02 -0.28249191036E+03  0.28488839943E+03  0.00000000000E+00 0.  1.
         12    1    6    6    0    0  0.58117226361E+01 -0.16605890135E+02 -0.52762774611E+01  0.18367656656E+02  0.00000000000E+00 0. -1.
         -5    1    3    3    0  503  0.47747385412E+02  0.10391205290E+03 -0.22585450174E+03  0.25319927628E+03  0.47000000000E+01 0.  1.
         13    1    4    4    0    0  0.14003800233E+02  0.42581970299E+02 -0.15421276776E+03  0.16059548050E+03  0.00000000000E+00 0. -1.
        -14    1    4    4    0    0 -0.15802291162E+02 -0.25013996622E+02 -0.25888276296E+03  0.26056802834E+03  0.00000000000E+00 0.  1.
</event>
<event>
12    1  0.8526130E-002  0.2163629E+03  0.7818608E-02  0.1136649E+00
         21   -1    0    0  501  502  0.00000000000E+00  0.00000000000E+00  0.59149393810E+03  0.59149393810E+03  0.00000000000E+00 0. -1.
         21   -1    0    0  502  503 -0.00000000000E+00 -0.00000000000E+00 -0.13383983608E+03  0.13383983608E+03  0.00000000000E+00 0. -1.
         -6    2    1    2    0  503 -0.91710904832E+02  0.94844424698E+02 -0.30768200884E+01  0.21638474667E+03  0.17148334265E+03 0.  0.
        -24    2    3    3    0    0 -0.76512566221E+02  0.11139204364E+03 -0.49519211430E+02  0.16457935213E+03  0.79823872819E+02 0.  0.
          6    2    1    2  501    0  0.91710904832E+02 -0.94844424698E+02  0.46073092211E+03  0.50894902751E+03  0.17131776046E+03 0.  0.
         24    2    5    5    0    0  0.77052440562E+02 -0.45694866088E+01  0.33877047878E+03  0.35643386512E+03  0.79509144780E+02 0.  0.
          5    1    5    5  501    0  0.14658464270E+02 -0.90274938089E+02  0.12196044333E+03  0.15251516239E+03  0.47000000000E+01 0. -1.
        -13    1    6    6    0    0  0.32913611037E+02  0.56107511658E+01  0.31698743284E+02  0.46039077379E+02  0.00000000000E+00 0.  1.
         14    1    6    6    0    0  0.44138829525E+02 -0.10180237775E+02  0.30707173550E+03  0.31039478774E+03  0.00000000000E+00 0. -1.
         -5    1    3    3    0  503 -0.15198338610E+02 -0.16547618944E+02  0.46442391342E+02  0.51805394534E+02  0.47000000000E+01 0.  1.
         13    1    4    4    0    0 -0.18892676625E+02  0.81019665556E+02 -0.54176291141E+02  0.99278345870E+02  0.00000000000E+00 0. -1.
        -14    1    4    4    0    0 -0.57619889597E+02  0.30372378085E+02  0.46570797109E+01  0.65301006264E+02  0.00000000000E+00 0.  1.
</event>
<event>
12    1  0.8526130E-002  0.2366890E+03  0.7818608E-02  0.1122056E+00
         21   -1    0    0  501  502  0.00000000000E+00  0.00000000000E+00  0.10079764104E+03  0.10079764104E+03  0.00000000000E+00 0.  1.
         21   -1    0    0  502  503 -0.00000000000E+00 -0.00000000000E+00 -0.57464699244E+03  0.57464699244E+03  0.00000000000E+00 0. -1.
         -6    2    1    2    0  503 -0.70693548273E+02 -0.14653856684E+03 -0.29905235683E+03  0.38138431311E+03  0.17190274232E+03 0.  0.
        -24    2    3    3    0    0 -0.64202736632E+02 -0.23772149253E+02 -0.11868047015E+03  0.16305009355E+03  0.88392152029E+02 0.  0.
          6    2    1    2  501    0  0.70693548273E+02  0.14653856684E+03 -0.17479699456E+03  0.29406032037E+03  0.17159939793E+03 0.  0.
         24    2    5    5    0    0  0.83100265976E+02  0.11175603626E+03 -0.19420172026E+03  0.25207955743E+03  0.80216764303E+02 0.  0.
          5    1    5    5  501    0 -0.12406717703E+02  0.34782530580E+02  0.19404725698E+02  0.41980762941E+02  0.47000000000E+01 0. -1.
        -13    1    6    6    0    0  0.32307806898E+02  0.10136501257E+03 -0.10878705883E+03  0.15216203314E+03  0.00000000000E+00 0.  1.
         14    1    6    6    0    0  0.50792459078E+02  0.10391023688E+02 -0.85414661435E+02  0.99917524291E+02  0.00000000000E+00 0. -1.
         -5    1    3    3    0  503 -0.64908116411E+01 -0.12276641759E+03 -0.18037188668E+03  0.21833421955E+03  0.47000000000E+01 0.  1.
         13    1    4    4    0    0 -0.41718814757E+02 -0.29739113915E+02 -0.12809047579E+03  0.13795667577E+03  0.00000000000E+00 0. -1.
        -14    1    4    4    0    0 -0.22483921876E+02  0.59669646621E+01  0.94100056328E+01  0.25093417786E+02  0.00000000000E+00 0.  1.
</event>
<event>
12    1  0.8526130E-002  0.3285950E+03  0.7818608E-02  0.1071813E+00
         21   -1    0    0  503  502  0.00000000000E+00  0.00000000000E+00  0.37456078887E+03  0.37456078887E+03  0.00000000000E+00 0. -1.
         21   -1    0    0  501  503 -0.00000000000E+00 -0.00000000000E+00 -0.31607450374E+03  0.31607450374E+03  0.00000000000E+00 0. -1.
          6    2    1    2  501    0  0.26277688256E+03 -0.95470140465E+02 -0.73957791083E+02  0.33635277760E+03  0.17174748444E+03 0.  0.
         24    2    3    3    0    0  0.18767639575E+03 -0.13193039697E+03 -0.71053780841E+02  0.25268703372E+03  0.78575047393E+02 0.  0.
         -6    2    1    2    0  502 -0.26277688256E+03  0.95470140465E+02  0.13244407622E+03  0.35428251500E+03  0.17265117834E+03 0.  0.
        -24    2    5    5    0    0 -0.80054139075E+02  0.75322658733E+02  0.13936384862E+02  0.13551395026E+03  0.78023328508E+02 0.  0.
          5    1    3    3  501    0  0.75100486810E+02  0.36460256508E+02 -0.29040102420E+01  0.83665743881E+02  0.47000000000E+01 0. -1.
        -13    1    4    4    0    0  0.16646024786E+03 -0.10804329247E+03 -0.30059646574E+02  0.20071360073E+03  0.00000000000E+00 0.  1.
         14    1    4    4    0    0  0.21216147888E+02 -0.23887104505E+02 -0.40994134267E+02  0.51973432994E+02  0.00000000000E+00 0. -1.
         -5    1    5    5    0  502 -0.18272274348E+03  0.20147481732E+02  0.11850769136E+03  0.21876856474E+03  0.47000000000E+01 0.  1.
         13    1    6    6    0    0 -0.88855360417E+02  0.82652823042E+02  0.58530964423E+01  0.12149495039E+03  0.00000000000E+00 0. -1.
        -14    1    6    6    0    0  0.88012213413E+01 -0.73301643085E+01  0.80832884192E+01  0.14018999877E+02  0.00000000000E+00 0.  1.
</event>
<event>
12    1  0.8526130E-002  0.2107090E+03  0.7818608E-02  0.1141174E+00
         21   -1    0    0  503  502  0.00000000000E+00  0.00000000000E+00  0.86575653777E+02  0.86575653777E+02  0.00000000000E+00 0. -1.
         21   -1    0    0  501  503 -0.00000000000E+00 -0.00000000000E+00 -0.55980532839E+03  0.55980532839E+03  0.00000000000E+00 0.  1.
          6    2    1    2  501    0  0.25462145639E+01 -0.12215988735E+03 -0.14138939658E+03  0.25375038364E+03  0.17166471520E+03 0.  0.
         24    2    3    3    0    0  0.17168779795E+01 -0.96603790282E+02 -0.16045139044E+02  0.12573837329E+03  0.78850821574E+02 0.  0.
         -6    2    1    2    0  502 -0.25462145639E+01  0.12215988735E+03 -0.33184027803E+03  0.39263059853E+03  0.17062032555E+03 0.  0.
        -24    2    5    5    0    0 -0.37500244642E+01  0.39248465005E+02 -0.57310696221E+02  0.10581300074E+03  0.79733120691E+02 0.  0.
          5    1    3    3  501    0  0.82933658442E+00 -0.25556097068E+02 -0.12534425754E+03  0.12801201035E+03  0.47000000000E+01 0. -1.
        -11    1    4    4    0    0 -0.28828250196E+02 -0.20274129762E+02  0.14394377994E+02  0.38069757876E+02  0.00000000000E+00 0.  1.
         12    1    4    4    0    0  0.30545128175E+02 -0.76329660520E+02 -0.30439517038E+02  0.87668615410E+02  0.00000000000E+00 0. -1.
         -5    1    5    5    0  502  0.12038099003E+01  0.82911422344E+02 -0.27452958181E+03  0.28681759779E+03  0.47000000000E+01 0.  1.
         13    1    6    6    0    0 -0.30769019560E+02  0.50778152696E+02 -0.34962962673E+02  0.68902555212E+02  0.00000000000E+00 0. -1.
        -14    1    6    6    0    0  0.27018995095E+02 -0.11529687691E+02 -0.22347733547E+02  0.36910445526E+02  0.00000000000E+00 0.  1.
</event>
<event>
12    1  0.8526130E-002  0.2113192E+03  0.7818608E-02  0.1140588E+00
         21   -1    0    0  503  502  0.00000000000E+00  0.00000000000E+00  0.31075183394E+03  0.31075183394E+03  0.00000000000E+00 0. -1.
         21   -1    0    0  501  503 -0.00000000000E+00 -0.00000000000E+00 -0.43952355645E+03  0.43952355645E+03  0.00000000000E+00 0. -1.
          6    2    1    2  501    0 -0.12210987997E+03 -0.13625546380E+02 -0.37224318126E+03  0.42788718615E+03  0.17154002385E+03 0.  0.
         24    2    3    3    0    0 -0.56645399403E+02  0.49537237959E+02 -0.13293822828E+03  0.17183233644E+03  0.78683798149E+02 0.  0.
         -6    2    1    2    0  502  0.12210987997E+03  0.13625546380E+02  0.24347145874E+03  0.32238820423E+03  0.17192825453E+03 0.  0.
        -24    2    5    5    0    0  0.14087032267E+03 -0.26358656051E+02  0.21123945837E+03  0.26750940593E+03  0.79999668319E+02 0.  0.
          5    1    3    3  501    0 -0.65464480565E+02 -0.63162784339E+02 -0.23930495298E+03  0.25605484971E+03  0.47000000000E+01 0. -1.
        -11    1    4    4    0    0 -0.62663640465E+02  0.30839852831E+02 -0.13508664498E+03  0.15207310745E+03  0.00000000000E+00 0.  1.
         12    1    4    4    0    0  0.60182410619E+01  0.18697385127E+02  0.21484166954E+01  0.19759228993E+02  0.00000000000E+00 0. -1.
         -5    1    5    5    0  502 -0.18760442707E+02  0.39984202431E+02  0.32232000373E+02  0.54878798298E+02  0.47000000000E+01 0.  1.
         11    1    6    6    0    0  0.61457936858E+02 -0.50945526122E+02  0.87556655768E+02  0.11848498894E+03  0.00000000000E+00 0. -1.
        -12    1    6    6    0    0  0.79412385816E+02  0.24586870071E+02  0.12368280260E+03  0.14902441699E+03  0.00000000000E+00 0.  1.
</event>
<event>
12    1  0.8526130E-002  0.2098321E+03  0.7818608E-02  0.1141852E+00
         21   -1    0    0  503  502  0.00000000000E+00  0.00000000000E+00  0.87753267417E+02  0.87753267417E+02  0.00000000000E+00 0.  1.
         21   -1    0    0  501  503 -0.00000000000E+00 -0.00000000000E+00 -0.55964201265E+03  0.55964201265E+03  0.00000000000E+00 0.  1.
          6    2    1    2  501    0 -0.23232993047E+02 -0.11623815060E+03 -0.34208928714E+03  0.40131605800E+03  0.17314276888E+03 0.  0.
         24    2    3    3    0    0 -0.78687717945E+02 -0.89947613555E+02 -0.27482005915E+03  0.31013679564E+03  0.79852595175E+02 0.  0.
         -6    2    1    2    0  502  0.23232993047E+02  0.11623815060E+03 -0.12979945809E+03  0.24607922206E+03  0.17220918845E+03 0.  0.
        -24    2    5    5    0    0 -0.45812748481E+02  0.21519096635E+02 -0.57993124518E+01  0.75383177213E+02  0.55561784875E+02 0.  0.
          5    1    3    3  501    0  0.55454724898E+02 -0.26290537048E+02 -0.67269227990E+02  0.91179262369E+02  0.47000000000E+01 0. -1.
        -11    1    4    4    0    0 -0.52666111772E+02 -0.19546265848E+02 -0.58230310803E+02  0.80910721996E+02  0.00000000000E+00 0.  1.
         12    1    4    4    0    0 -0.26021606173E+02 -0.70401347707E+02 -0.21658974835E+03  0.22922607364E+03  0.00000000000E+00 0. -1.
         -5    1    5    5    0  502  0.69045741527E+02  0.94719053969E+02 -0.12400014564E+03  0.17069604485E+03  0.47000000000E+01 0.  1.
         11    1    6    6    0    0 -0.54105729911E+02  0.58861935886E+01 -0.13515005274E+02  0.56077915900E+02  0.00000000000E+00 0. -1.
        -12    1    6    6    0    0  0.82929814301E+01  0.15632903046E+02  0.77156928218E+01  0.19305261313E+02  0.00000000000E+00 0.  1.
</event>
<event>
12    1  0.8526130E-002  0.2640434E+03  0.7818608E-02  0.1104907E+00
         21   -1    0    0  503  502  0.00000000000E+00  0.00000000000E+00  0.10603034953E+03  0.10603034953E+03  0.00000000000E+00 0.  1.
         21   -1    0    0  501  503 -0.00000000000E+00 -0.00000000000E+00 -0.73074340057E+03  0.73074340057E+03  0.00000000000E+00 0. -1.
          6    2    1    2  501    0  0.12279372180E+03 -0.15694280736E+03 -0.17676243826E+03  0.31679424864E+03  0.17147680164E+03 0.  0.
         24    2    3    3    0    0  0.14365148216E+03 -0.17104807845E+03 -0.16024447136E+03  0.28631576327E+03  0.80032694726E+02 0.  0.
         -6    2    1    2    0  502 -0.12279372180E+03  0.15694280736E+03 -0.44795061278E+03  0.51997950145E+03  0.17323275540E+03 0.  0.
        -24    2    5    5    0    0 -0.68046055803E+01  0.23272354902E+02 -0.98589382802E+02  0.12832069081E+03  0.78475653094E+02 0.  0.
          5    1    3    3  501    0 -0.20857760367E+02  0.14105271094E+02 -0.16517966904E+02  0.30478485375E+02  0.47000000000E+01 0. -1.
        -11    1    4    4    0    0  0.90126924704E+02 -0.15743549933E+03 -0.13149131449E+03  0.22405080850E+03  0.00000000000E+00 0.  1.
         12    1    4    4    0    0  0.53524557461E+02 -0.13612579122E+02 -0.28753156863E+02  0.62264954761E+02  0.00000000000E+00 0. -1.
         -5    1    5    5    0  502 -0.11598911622E+03  0.13367045245E+03 -0.34936122998E+03  0.39165881064E+03  0.47000000000E+01 0.  1.
         13    1    6    6    0    0 -0.21432535289E+02  0.29468608616E+02 -0.10503553977E+03  0.11117651316E+03  0.00000000000E+00 0. -1.
        -14    1    6    6    0    0  0.14627929709E+02 -0.61962537141E+01  0.64461569696E+01  0.17144177651E+02  0.00000000000E+00 0.  1.
</event>
<event>
12    1  0.8526130E-002  0.2179825E+03  0.7818608E-02  0.1135916E+00
         21   -1    0    0  501  502  0.00000000000E+00  0.00000000000E+00  0.23161528337E+03  0.23161528337E+03  0.00000000000E+00 0. -1.
         21   -1    0    0  502  503 -0.00000000000E+00 -0.00000000000E+00 -0.26402167925E+03  0.26402167925E+03  0.00000000000E+00 0.  1.
         -6    2    1    2    0  503 -0.11183444457E+03 -0.66465992865E+02 -0.13566894345E+03  0.25443261787E+03  0.17147951370E+03 0.  0.
        -24    2    3    3    0    0 -0.39347107450E+02 -0.91105512722E+02 -0.38899852750E+02  0.13095036450E+03  0.76068325244E+02 0.  0.
          6    2    1    2  501    0  0.11183444457E+03  0.66465992865E+02  0.10326254757E+03  0.24120434475E+03  0.17490486270E+03 0.  0.
         24    2    5    5    0    0  0.12404876989E+02 -0.22911559334E+01  0.85016846892E+02  0.11885737906E+03  0.82098002001E+02 0.  0.
          5    1    5    5  501    0  0.99429567584E+02  0.68757148798E+02  0.18245700676E+02  0.12234696569E+03  0.47000000000E+01 0. -1.
        -13    1    6    6    0    0 -0.25573082188E+02 -0.23952975347E+02  0.19522590305E+02  0.40110585794E+02  0.00000000000E+00 0.  1.
         14    1    6    6    0    0  0.37977959177E+02  0.21661819413E+02  0.65494256587E+02  0.78746793264E+02  0.00000000000E+00 0. -1.
         -5    1    3    3    0  503 -0.72487337122E+02  0.24639519857E+02 -0.96769090703E+02  0.12348225337E+03  0.47000000000E+01 0.  1.
         13    1    4    4    0    0 -0.34763035807E+02 -0.96692175281E+00 -0.11469021454E+02  0.36618875587E+02  0.00000000000E+00 0. -1.
        -14    1    4    4    0    0 -0.45840716439E+01 -0.90138590969E+02 -0.27430831296E+02  0.94331488912E+02  0.00000000000E+00 0.  1.
</event>
<event>
12    1  0.8526130E-002  0.1738020E+03  0.7818608E-02  0.1174136E+00
         21   -1    0    0  503  502  0.00000000000E+00  0.00000000000E+00  0.51984116138E+03  0.51984116138E+03  0.00000000000E+00 0. -1.
         21   -1    0    0  501  503 -0.00000000000E+00 -0.00000000000E+00 -0.97726221310E+02  0.97726221310E+02  0.00000000000E+00 0. -1.
          6    2    1    2  501    0 -0.19308779354E+02  0.10187748175E+02  0.13535895876E+02  0.17355839684E+03  0.17164695588E+03 0.  0.
         24    2    3    3    0    0  0.16142801010E+02 -0.61190574646E+00  0.69293989996E+02  0.10644280897E+03  0.79167228569E+02 0.  0.
         -6    2    1    2    0  502  0.19308779354E+02 -0.10187748175E+02  0.40857904419E+03  0.44400898585E+03  0.17242541862E+03 0.  0.
        -24    2    5    5    0    0  0.42742164309E+02 -0.34489189881E+02  0.12192398631E+03  0.15533460906E+03  0.79037873880E+02 0.  0.
          5    1    3    3  501    0 -0.35451580364E+02  0.10799653921E+02 -0.55758094120E+02  0.67115587869E+02  0.47000000000E+01 0. -1.
        -13    1    4    4    0    0 -0.18490086879E+02 -0.30030737391E+02  0.27785901009E+02  0.44897492089E+02  0.00000000000E+00 0.  1.
         14    1    4    4    0    0  0.34632887889E+02  0.29418831645E+02  0.41508088987E+02  0.61545316883E+02  0.00000000000E+00 0. -1.
         -5    1    5    5    0  502 -0.23433384956E+02  0.24301441706E+02  0.28665505789E+03  0.28867437678E+03  0.47000000000E+01 0.  1.
         11    1    6    6    0    0  0.49402878995E+02 -0.41793649333E+02  0.12821370290E+03  0.14361792085E+03  0.00000000000E+00 0. -1.
        -12    1    6    6    0    0 -0.66607146853E+01  0.73044594523E+01 -0.62897165900E+01  0.11716688218E+02  0.00000000000E+00 0.  1.
</event>
<event>
12    1  0.8526130E-002  0.1814347E+03  0.7818608E-02  0.1166477E+00
         21   -1    0    0  501  502  0.00000000000E+00  0.00000000000E+00  0.55231000478E+02  0.55231000478E+02  0.00000000000E+00 0. -1.
         21   -1    0    0  502  503 -0.00000000000E+00 -0.00000000000E+00 -0.10985051931E+04  0.10985051931E+04  0.00000000000E+00 0. -1.
         -6    2    1    2    0  503 -0.53833057864E+02 -0.21270825625E+02 -0.91226982371E+03  0.93013697578E+03  0.17195382032E+03 0.  0.
        -24    2    3    3    0    0 -0.42653694827E+02 -0.45218041795E+02 -0.28354227071E+03  0.30083667130E+03  0.79009331936E+02 0.  0.
          6    2    1    2  501    0  0.53833057864E+02  0.21270825625E+02 -0.13100436891E+03  0.22359921779E+03  0.17170911269E+03 0.  0.
         24    2    5    5    0    0  0.20010072272E+02 -0.55290948265E+02 -0.83839569926E+02  0.12741030035E+03  0.75807777951E+02 0.  0.
          5    1    5    5  501    0  0.33822985591E+02  0.76561773889E+02 -0.47164798984E+02  0.96188917442E+02  0.47000000000E+01 0. -1.
        -11    1    6    6    0    0  0.28933630068E+02 -0.76061209252E+01 -0.71272064589E+02  0.77296282028E+02  0.00000000000E+00 0.  1.
         12    1    6    6    0    0 -0.89235577960E+01 -0.47684827340E+02 -0.12567505336E+02  0.50114018323E+02  0.00000000000E+00 0. -1.
         -5    1    3    3    0  503 -0.11179363037E+02  0.23947216171E+02 -0.62872755300E+03  0.62930030448E+03  0.47000000000E+01 0.  1.
         13    1    4    4    0    0  0.17950395211E+02 -0.34575403772E+02 -0.10570391230E+03  0.11265430444E+03  0.00000000000E+00 0. -1.
        -14    1    4    4    0    0 -0.60604090038E+02 -0.10642638023E+02 -0.17783835841E+03  0.18818236686E+03  0.00000000000E+00 0.  1.
</event>
<event>
12    1  0.8526130E-002  0.1745519E+03  0.7818608E-02  0.1173270E+00
         21   -1    0    0  503  502  0.00000000000E+00  0.00000000000E+00  0.13860210481E+04  0.13860210481E+04  0.00000000000E+00 0.  1.
         21   -1    0    0  501  503 -0.00000000000E+00 -0.00000000000E+00 -0.45291476566E+02  0.45291476566E+02  0.00000000000E+00 0.  1.
          6    2    1    2  501    0  0.65971464720E+01  0.24762831694E+02  0.15680526767E+03  0.23464071372E+03  0.17266051196E+03 0.  0.
         24    2    3    3    0    0 -0.57318362983E+02 -0.12281453161E+02  0.79083357807E+02  0.12730825515E+03  0.80727848485E+02 0.  0.
         -6    2    1    2    0  502 -0.65971464720E+01 -0.24762831694E+02  0.11839243038E+04  0.11966718109E+04  0.17230770632E+03 0.  0.
        -24    2    5    5    0    0  0.19111599505E+02 -0.46218081470E+02  0.11236821106E+04  0.11275886783E+04  0.79330810618E+02 0.  0.
          5    1    3    3  501    0  0.63915509455E+02  0.37044284854E+02  0.77721909859E+02  0.10733245856E+03  0.47000000000E+01 0. -1.
        -11    1    4    4    0    0  0.17533843168E+01  0.10867854456E+02  0.60076377429E+02  0.61076638267E+02  0.00000000000E+00 0.  1.
         12    1    4    4    0    0 -0.59071747299E+02 -0.23149307616E+02  0.19006980379E+02  0.66231616885E+02  0.00000000000E+00 0. -1.
         -5    1    5    5    0  502 -0.25708745977E+02  0.21455249776E+02  0.60242193211E+02  0.69083132569E+02  0.47000000000E+01 0.  1.
         11    1    6    6    0    0  0.38108265990E+02 -0.55061959347E+02  0.99122867665E+03  0.99348797110E+03  0.00000000000E+00 0. -1.
        -12    1    6    6    0    0 -0.18996666486E+02  0.88438778775E+01  0.13245343397E+03  0.13410070724E+03  0.00000000000E+00 0.  1.
</event>
<event>
12    1  0.8526130E-002  0.2740218E+03  0.7818608E-02  0.1099037E+00
         21   -1    0    0  501  502  0.00000000000E+00  0.00000000000E+00  0.82205341666E+03  0.82205341666E+03  0.00000000000E+00 0.  1.
         21   -1    0    0  502  503 -0.00000000000E+00 -0.00000000000E+00 -0.14057614026E+03  0.14057614026E+03  0.00000000000E+00 0. -1.
         -6    2    1    2    0  503  0.12988221951E+03  0.16753886462E+03  0.55746770945E+02  0.27963487067E+03  0.17363552723E+03 0.  0.
        -24    2    3    3    0    0  0.14600434139E+03  0.10567752019E+03  0.37054386143E+01  0.19706890298E+03  0.79607890737E+02 0.  0.
          6    2    1    2  501    0 -0.12988221951E+03 -0.16753886462E+03  0.62573050545E+03  0.68299468625E+03  0.17321782209E+03 0.  0.
         24    2    5    5    0    0 -0.11145356261E+03 -0.19215264266E+03  0.49031755653E+03  0.54405509434E+03  0.78994333587E+02 0.  0.
          5    1    5    5  501    0 -0.18428656902E+02  0.24613778033E+02  0.13541294892E+03  0.13893959191E+03  0.47000000000E+01 0. -1.
        -13    1    6    6    0    0 -0.35745763760E+01 -0.94704227513E+01  0.93826412836E+02  0.94370876063E+02  0.00000000000E+00 0.  1.
         14    1    6    6    0    0 -0.10787898623E+03 -0.18268221991E+03  0.39649114370E+03  0.44968421828E+03  0.00000000000E+00 0. -1.
         -5    1    3    3    0  503 -0.16122121884E+02  0.61861344435E+02  0.52041332331E+02  0.82565967687E+02  0.47000000000E+01 0.  1.
         11    1    4    4    0    0  0.14244970005E+03  0.11100505012E+03  0.17917686962E+02  0.18148025155E+03  0.00000000000E+00 0. -1.
        -12    1    4    4    0    0  0.35546413429E+01 -0.53275299333E+01 -0.14212248348E+02  0.15588651429E+02  0.00000000000E+00 0.  1.
</event>
<event>
12    1  0.8526130E-002  0.2340552E+03  0.7818608E-02  0.1124018E+00
         21   -1    0    0  501  502  0.00000000000E+00  0.00000000000E+00  0.74817673593E+02  0.74817673593E+02  0.00000000000E+00 0.  1.
         21   -1    0    0  502  503 -0.00000000000E+00 -0.00000000000E+00 -0.74860450855E+03  0.74860450855E+03  0.00000000000E+00 0. -1.
         -6    2    1    2    0  503  0.11833502201E+03  0.10403412441E+03 -0.40342289309E+03  0.46582115418E+03  0.17150230474E+03 0.  0.
        -24    2    3    3    0    0  0.10261282354E+03  0.14385644512E+03 -0.35465915855E+03  0.40075967127E+03  0.60009391030E+02 0.  0.
          6    2    1    2  501    0 -0.11833502201E+03 -0.10403412441E+03 -0.27036394186E+03  0.35760102796E+03  0.17307673924E+03 0.  0.
         24    2    5    5    0    0 -0.50934712048E+02  0.47141952147E+01 -0.16697465713E+03  0.19303969289E+03  0.82263104605E+02 0.  0.
          5    1    5    5  501    0 -0.67400309963E+02 -0.10874831962E+03 -0.10338928473E+03  0.16456133507E+03  0.47000000000E+01 0. -1.
        -13    1    6    6    0    0 -0.29746862044E+02 -0.39645613486E+01 -0.62010273457E+01  0.30643862164E+02  0.00000000000E+00 0.  1.
         14    1    6    6    0    0 -0.21187850003E+02  0.86787565633E+01 -0.16077362978E+03  0.16239583072E+03  0.00000000000E+00 0. -1.
         -5    1    3    3    0  503  0.15722198467E+02 -0.39822320716E+02 -0.48763734543E+02  0.65061482910E+02  0.47000000000E+01 0.  1.
         11    1    4    4    0    0  0.40883930234E+02  0.10307978690E+03 -0.23885549932E+03  0.26334176990E+03  0.00000000000E+00 0. -1.
        -12    1    4    4    0    0  0.61728893309E+02  0.40776658222E+02 -0.11580365923E+03  0.13741790137E+03  0.00000000000E+00 0.  1.
</event>
<event>
12    1  0.8526130E-002  0.3107981E+03  0.7818608E-02  0.1080048E+00
         21   -1    0    0  503  502  0.00000000000E+00  0.00000000000E+00  0.22037313382E+03  0.22037313382E+03  0.00000000000E+00 0. -1.
         21   -1    0    0  501  503 -0.00000000000E+00 -0.00000000000E+00 -0.46571242319E+03  0.46571242319E+03  0.00000000000E+00 0.  1.
          6    2    1    2  501    0  0.40430783866E+02  0.25559525650E+03 -0.20721087535E+03  0.37295742835E+03  0.17087221268E+03 0.  0.
         24    2    3    3    0    0  0.48106462842E+02  0.17543789751E+03 -0.63826559043E+02  0.20844216945E+03  0.79256676157E+02 0.  0.
         -6    2    1    2    0  502 -0.40430783866E+02 -0.25559525650E+03 -0.38128414018E+02  0.31312812865E+03  0.17213908785E+03 0.  0.
        -24    2    5    5    0    0 -0.28361254586E+02 -0.27455983477E+03 -0.29680189300E+02  0.28865791683E+03  0.79088657096E+02 0.  0.
          5    1    3    3  501    0 -0.76756789763E+01  0.80157358996E+02 -0.14338431631E+03  0.16451525891E+03  0.47000000000E+01 0. -1.
        -13    1    4    4    0    0  0.32341909794E+02  0.14168775945E+03 -0.82134773607E+02  0.16693574016E+03  0.00000000000E+00 0.  1.
         14    1    4    4    0    0  0.15764553048E+02  0.33750138059E+02  0.18308214564E+02  0.41506429289E+02  0.00000000000E+00 0. -1.
         -5    1    5    5    0  502 -0.12069529279E+02  0.18964578265E+02 -0.84482247184E+01  0.24470211824E+02  0.47000000000E+01 0.  1.
         11    1    6    6    0    0 -0.35770367058E+02 -0.83886487855E+02  0.15656343802E+02  0.92528823106E+02  0.00000000000E+00 0. -1.
        -12    1    6    6    0    0  0.74091124717E+01 -0.19067334691E+03 -0.45336533102E+02  0.19612909372E+03  0.00000000000E+00 0.  1.
</event>
<event>
12    1  0.8526130E-002  0.1922625E+03  0.7818608E-02  0.1157604E+00
         21   -1    0    0  501  502  0.00000000000E+00  0.00000000000E+00  0.17634713041E+02  0.17634713041E+02  0.00000000000E+00 0. -1.
         21   -1    0    0  502  503 -0.00000000000E+00 -0.00000000000E+00 -0.21007894715E+04  0.21007894715E+04  0.00000000000E+00 0.  1.
         -6    2    1    2    0  503 -0.28493114763E+02 -0.68072302429E+02 -0.12355340804E+04  0.12504036659E+04  0.17753638462E+03 0.  0.
        -24    2    3    3    0    0  0.27446005435E+02  0.83535270545E+01 -0.81252503900E+03  0.81689607461E+03  0.79367456065E+02 0.  0.
          6    2    1    2  501    0  0.28493114763E+02  0.68072302429E+02 -0.84762067804E+03  0.86802051865E+03  0.17191018294E+03 0.  0.
         24    2    5    5    0    0  0.44331305285E+02  0.38635937719E+02 -0.81609479216E+03  0.82183264873E+03  0.77072643802E+02 0.  0.
          5    1    5    5  501    0 -0.15838190522E+02  0.29436364710E+02 -0.31525885882E+02  0.46187869912E+02  0.47000000000E+01 0. -1.
        -11    1    6    6    0    0  0.84943093125E+01  0.52722586516E+02 -0.33832930643E+03  0.34251794699E+03  0.00000000000E+00 0.  1.
         12    1    6    6    0    0  0.35836995973E+02 -0.14086648797E+02 -0.47776548573E+03  0.47931470175E+03  0.00000000000E+00 0. -1.
         -5    1    3    3    0  503 -0.55939120198E+02 -0.76425829484E+02 -0.42300904138E+03  0.43350759125E+03  0.47000000000E+01 0.  1.
         13    1    4    4    0    0  0.16196966788E+02 -0.34858831744E+02 -0.44810913208E+03  0.44975468218E+03  0.00000000000E+00 0. -1.
        -14    1    4    4    0    0  0.11249038647E+02  0.43212358799E+02 -0.36441590691E+03  0.36714139243E+03  0.00000000000E+00 0.  1.
</event>
<event>
12    1  0.8526130E-002  0.2497534E+03  0.7818608E-02  0.1114490E+00
         21   -1    0    0  501  502  0.00000000000E+00  0.00000000000E+00  0.14395407695E+03  0.14395407695E+03  0.00000000000E+00 0. -1.
         21   -1    0    0  502  503 -0.00000000000E+00 -0.00000000000E+00 -0.52850262924E+03  0.52850262924E+03  0.00000000000E+00 0.  1.
         -6    2    1    2    0  503 -0.17459729365E+03  0.42835203460E+02 -0.34102324602E+03  0.41893898112E+03  0.16399373759E+03 0.  0.
        -24    2    3    3    0    0 -0.51565347801E+02  0.64994336812E+02 -0.13324805708E+03  0.17640958902E+03  0.80511176069E+02 0.  0.
          6    2    1    2  501    0  0.17459729365E+03 -0.42835203460E+02 -0.43525306269E+02  0.25351772507E+03  0.17337160965E+03 0.  0.
         24    2    5    5    0    0  0.19920543081E+03 -0.46007494451E+02 -0.22399682212E+02  0.22059348117E+03  0.79751143952E+02 0.  0.
          5    1    5    5  501    0 -0.24608137157E+02  0.31722909912E+01 -0.21125624056E+02  0.32924243898E+02  0.47000000000E+01 0. -1.
        -13    1    6    6    0    0  0.26572064775E+01 -0.11377048067E+02  0.13458313158E+02  0.17822013412E+02  0.00000000000E+00 0.  1.
         14    1    6    6    0    0  0.19654822433E+03 -0.34630446384E+02 -0.35857995370E+02  0.20277146776E+03  0.00000000000E+00 0. -1.
         -5    1    3    3    0  503 -0.12303194585E+03 -0.22159133353E+02 -0.20777518895E+03  0.24252939210E+03  0.47000000000E+01 0.  1.
         11    1    4    4    0    0 -0.66144714143E+02  0.37279719461E+02 -0.60080930913E+02  0.96822615909E+02  0.00000000000E+00 0. -1.
        -12    1    4    4    0    0  0.14579366342E+02  0.27714617352E+02 -0.73167126163E+02  0.79586973110E+02  0.00000000000E+00 0.  1.
</event>
<event>
12    1  0.8526130E-002  0.2675971E+03  0.7818608E-02  0.1102674E+00
         21   -1    0    0  501  502  0.00000000000E+00  0.00000000000E+00  0.45948408895E+03  0.45948408895E+03  0.00000000000E+00 0. -1.
         21   -1    0    0  502  503 -0.00000000000E+00 -0.00000000000E+00 -0.17653383022E+03  0.17653383022E+03  0.00000000000E+00 0.  1.
         -6    2    1    2    0  503  0.12979675154E+03 -0.15934588008E+03  0.32471638043E+02  0.26948313890E+03  0.17125550696E+03 0.  0.
        -24    2    3    3    0    0  0.13405568809E+03 -0.61583516896E+02  0.15112991979E+01  0.16673952218E+03  0.77693803938E+02 0.  0.
          6    2    1    2  501    0 -0.12979675154E+03  0.15934588008E+03  0.25047862068E+03  0.36653478027E+03  0.17137648473E+03 0.  0.
         24    2    5    5    0    0 -0.36374932949E+02  0.58990336587E+02  0.28532085791E+02  0.10561098747E+03  0.74408367786E+02 0.  0.
          5    1    5    5  501    0 -0.93421818595E+02  0.10035554349E+03  0.22194653489E+03  0.26092379280E+03  0.47000000000E+01 0. -1.
        -11    1    6    6    0    0 -0.26192520467E+02 -0.12349583856E+02  0.13710465266E+02  0.32039619343E+02  0.00000000000E+00 0.  1.
         12    1    6    6    0    0 -0.10182412482E+02  0.71339920443E+02  0.14821620525E+02  0.73571368125E+02  0.00000000000E+00 0. -1.
         -5    1    3    3    0  503 -0.42589365415E+01 -0.97762363184E+02  0.30960338845E+02  0.10274361672E+03  0.47000000000E+01 0.  1.
         13    1    4    4    0    0  0.64975524986E+02 -0.71407499241E+02  0.66643554822E+01  0.96774291158E+02  0.00000000000E+00 0. -1.
        -14    1    4    4    0    0  0.69080163100E+02  0.98239823452E+01 -0.51530562843E+01  0.69965231023E+02  0.00000000000E+00 0.  1.
</event>
<event>
12    1  0.8526130E-002  0.2025700E+03  0.7818608E-02  0.1147650E+00
         21   -1    0    0  501  502  0.00000000000E+00  0.00000000000E+00  0.35407576940E+03  0.35407576940E+03  0.00000000000E+00 0.  1.
         21   -1    0    0  502  503 -0.00000000000E+00 -0.00000000000E+00 -0.18057283896E+03  0.18057283896E+03  0.00000000000E+00 0.  1.
         -6    2    1    2    0  503 -0.10698915446E+03  0.31742459662E+01 -0.73407995301E+02  0.21546071660E+03  0.17198206771E+03 0.  0.
        -24    2    3    3    0    0 -0.11182307315E+03 -0.36177666449E+02 -0.94199027940E+02  0.17044630981E+03  0.79782607275E+02 0.  0.
          6    2    1    2  501    0  0.10698915446E+03 -0.31742459662E+01  0.24691092574E+03  0.31918789176E+03  0.17163668020E+03 0.  0.
         24    2    5    5    0    0  0.13668646169E+03  0.65597219799E+01  0.15368119401E+03  0.22074728496E+03  0.79907669609E+02 0.  0.
          5    1    5    5  501    0 -0.29697307234E+02 -0.97339679461E+01  0.93229731733E+02  0.98440606804E+02  0.47000000000E+01 0. -1.
        -13    1    6    6    0    0  0.86374240331E+02  0.41350242378E+01  0.14615125590E+03  0.16981695269E+03  0.00000000000E+00 0.  1.
         14    1    6    6    0    0  0.50312221363E+02  0.24246977421E+01  0.75299381078E+01  0.50930332274E+02  0.00000000000E+00 0. -1.
         -5    1    3    3    0  503  0.48339186921E+01  0.39351912415E+02  0.20791032640E+02  0.45014406792E+02  0.47000000000E+01 0.  1.
         11    1    4    4    0    0 -0.40349963840E+02 -0.70934136299E+01  0.86467127787E+01  0.41871251960E+02  0.00000000000E+00 0. -1.
        -12    1    4    4    0    0 -0.71473109312E+02 -0.29084252819E+02 -0.10284574072E+03  0.12857505785E+03  0.00000000000E+00 0.  1.
</event>
<event>
12    1  0.8526130E-002  0.2474469E+03  0.7818608E-02  0.1115526E+00
         21   -1    0    0  501  502  0.00000000000E+00  0.00000000000E+00  0.47504402229E+03  0.47504402229E+03  0.00000000000E+00 0.  1.
         21   -1    0    0  502  503 -0.00000000000E+00 -0.00000000000E+00 -0.12698485085E+03  0.12698485085E+03  0.00000000000E+00 0.  1.
         -6    2    1    2    0  503 -0.12782657441E+03  0.11774334586E+03  0.17260112662E+03  0.30169704003E+03  0.17614433410E+03 0.  0.
        -24    2    3    3    0    0 -0.25440685830E+02  0.11434931415E+03  0.74714651428E+02  0.15992877258E+03  0.79195574487E+02 0.  0.
          6    2    1    2  501    0  0.12782657441E+03 -0.11774334586E+03  0.17545804482E+03  0.30033183311E+03  0.17091095889E+03 0.  0.
         24    2    5    5    0    0  0.87635504005E+02 -0.92830973759E+02  0.36584187238E+02  0.15355313321E+03  0.77088200866E+02 0.  0.
          5    1    5    5  501    0  0.40191070406E+02 -0.24912372098E+02  0.13887385759E+03  0.14677869990E+03  0.47000000000E+01 0. -1.
        -11    1    6    6    0    0  0.39396989655E+02 -0.73256486580E+02  0.53401833724E+02  0.98845290556E+02  0.00000000000E+00 0.  1.
         12    1    6    6    0    0  0.48238514350E+02 -0.19574487178E+02 -0.16817646486E+02  0.54707842658E+02  0.00000000000E+00 0. -1.
         -5    1    3    3    0  503 -0.10238588858E+03  0.33940317053E+01  0.97886475187E+02  0.14176826745E+03  0.47000000000E+01 0.  1.
         13    1    4    4    0    0 -0.32123047450E+02  0.29256261039E+02  0.58786267732E+02  0.73100234345E+02  0.00000000000E+00 0. -1.
        -14    1    4    4    0    0  0.66823616201E+01  0.85093053112E+02  0.15928383696E+02  0.86828538234E+02  0.00000000000E+00 0.  1.
</event>
<event>
12    1  0.8526130E-002  0.1809378E+03  0.7818608E-02  0.1167860E+00
         21   -1    0    0  503  502  0.00000000000E+00  0.00000000000E+00  0.55043780182E+02  0.55043780182E+02  0.00000000000E+00 0.  1.
         21   -1    0    0  501  503 -0.00000000000E+00 -0.00000000000E+00 -0.81143695810E+03  0.81143695810E+03  0.00000000000E+00 0.  1.
          6    2    1    2  501    0  0.35826527596E+02 -0.20534780369E+02 -0.60564173467E+03  0.63097177180E+03  0.17209953152E+03 0.  0.
         24    2    3    3    0    0  0.11800184115E+02 -0.23440236145E+02 -0.59988335820E+03  0.60565466782E+03  0.79176032928E+02 0.  0.
         -6    2    1    2    0  502 -0.35826527596E+02  0.20534780369E+02 -0.15075144324E+03  0.23550896648E+03  0.17616259071E+03 0.  0.
        -24    2    5    5    0    0 -0.87749832213E+02  0.37808282995E+02 -0.88215772318E+02  0.15227914254E+03  0.79230142302E+02 0.  0.
          5    1    3    3  501    0  0.24026343481E+02  0.29054557758E+01 -0.57583764692E+01  0.25317103979E+02  0.47000000000E+01 0. -1.
        -13    1    4    4    0    0  0.48511273936E-01  0.58963352413E+01 -0.51571785768E+03  0.51575156602E+03  0.00000000000E+00 0.  1.
         14    1    4    4    0    0  0.11751672842E+02 -0.29336571386E+02 -0.84165500523E+02  0.89903101802E+02  0.00000000000E+00 0. -1.
         -5    1    5    5    0  502  0.51923304617E+02 -0.17273502626E+02 -0.62535670926E+02  0.83229823942E+02  0.47000000000E+01 0.  1.
         13    1    6    6    0    0 -0.38739657957E+02 -0.21248669212E+02 -0.49400026024E+02  0.66276916140E+02  0.00000000000E+00 0. -1.
        -14    1    6    6    0    0 -0.49010174256E+02  0.59056952207E+02 -0.38815746295E+02  0.86002226396E+02  0.00000000000E+00 0.  1.
</event>
<event>
12    1  0.8526130E-002  0.2175527E+03  0.7818608E-02  0.1137901E+00
         21   -1    0    0  503  502  0.00000000000E+00  0.00000000000E+00  0.32808499498E+03  0.32808499498E+03  0.00000000000E+00 0.  1.
         21   -1    0    0  501  503 -0.00000000000E+00 -0.00000000000E+00 -0.13722375384E+03  0.13722375384E+03  0.00000000000E+00 0.  1.
          6    2    1    2  501    0  0.13321496997E+03 -0.54476284538E+01  0.82021715563E+02  0.22204913655E+03  0.15748762598E+03 0.  0.
         24    2    3    3    0    0  0.16541026028E+02  0.24069208497E+02  0.42527022217E+02  0.95297514621E+02  0.80125753255E+02 0.  0.
         -6    2    1    2    0  502 -0.13321496997E+03  0.54476284538E+01  0.10883952558E+03  0.24325961227E+03  0.17191070866E+03 0.  0.
        -24    2    5    5    0    0 -0.37985769560E+02 -0.48359795291E+02  0.20477797192E+02  0.10256944024E+03  0.79495669090E+02 0.  0.
          5    1    3    3  501    0  0.11667394394E+03 -0.29516836951E+02  0.39494693346E+02  0.12675162193E+03  0.47000000000E+01 0. -1.
        -13    1    4    4    0    0  0.39605140772E+02  0.39908282932E+02  0.21090126149E+02  0.60050242657E+02  0.00000000000E+00 0.  1.
         14    1    4    4    0    0 -0.23064114744E+02 -0.15839074436E+02  0.21436896069E+02  0.35247271964E+02  0.00000000000E+00 0. -1.
         -5    1    5    5    0  502 -0.95229200409E+02  0.53807423745E+02  0.88361728389E+02  0.14069017203E+03  0.47000000000E+01 0.  1.
         13    1    6    6    0    0  0.10718681762E+02 -0.45620174719E+02 -0.57000036177E+01  0.47207843854E+02  0.00000000000E+00 0. -1.
        -14    1    6    6    0    0 -0.48704451322E+02 -0.27396205729E+01  0.26177800809E+02  0.55361596389E+02  0.00000000000E+00 0.  1.
</event>
<event>
12    1  0.8526130E-002  0.1762702E+03  0.7818608E-02  0.1171719E+00
         21   -1    0    0  503  502  0.00000000000E+00  0.00000000000E+00  0.38588325118E+02  0.38588325118E+02  0.00000000000E+00 0. -1.
         21   -1    0    0  501  503 -0.00000000000E+00 -0.00000000000E+00 -0.86255765771E+03  0.86255765771E+03  0.00000000000E+00 0. -1.
          6    2    1    2  501    0  0.34523926074E+02  0.20088311005E+02 -0.53171788282E+03  0.55985125982E+03  0.17062849849E+03 0.  0.
         24    2    3    3    0    0  0.54797511193E+02  0.57230578107E+02 -0.24995607151E+03  0.27489095632E+03  0.82516021936E+02 0.  0.
         -6    2    1    2    0  502 -0.34523926074E+02 -0.20088311005E+02 -0.29225144977E+03  0.34129472301E+03  0.17168499163E+03 0.  0.
        -24    2    5    5    0    0 -0.70710205781E+02 -0.38516179292E+02 -0.27389451883E+03  0.29648289329E+03  0.80002933092E+02 0.  0.
          5    1    3    3  501    0 -0.20273585118E+02 -0.37142267103E+02 -0.28176181131E+03  0.28496030350E+03  0.47000000000E+01 0. -1.
        -13    1    4    4    0    0 -0.73689954070E+01  0.29126663986E+02 -0.15548276322E+03  0.15835894136E+03  0.00000000000E+00 0.  1.
         14    1    4    4    0    0  0.62166506600E+02  0.28103914122E+02 -0.94473308289E+02  0.11653201496E+03  0.00000000000E+00 0. -1.
         -5    1    5    5    0  502  0.36186279707E+02  0.18427868287E+02 -0.18356930938E+02  0.44811829712E+02  0.47000000000E+01 0.  1.
         13    1    6    6    0    0 -0.77545136198E+02 -0.25671667318E+02 -0.26900513562E+03  0.28113350146E+03  0.00000000000E+00 0. -1.
        -14    1    6    6    0    0  0.68349304168E+01 -0.12844511974E+02 -0.48893832072E+01  0.15349391838E+02  0.00000000000E+00 0.  1.
</event>
<event>
12    1  0.8526130E-002  0.2878344E+03  0.7818608E-02  0.1092089E+00
         21   -1    0    0  503  502  0.00000000000E+00  0.00000000000E+00  0.23974539337E+03  0.23974539337E+03  0.00000000000E+00 0.  1.
         21   -1    0    0  501  503 -0.00000000000E+00 -0.00000000000E+00 -0.49208621385E+03  0.49208621385E+03  0.00000000000E+00 0. -1.
          6    2    1    2  501    0  0.18262717959E+03 -0.13397461207E+03 -0.33019149567E+03  0.43803543760E+03  0.17761401234E+03 0.  0.
         24    2    3    3    0    0  0.89509438938E+02 -0.14973864236E+03 -0.24739873003E+03  0.31235270085E+03  0.76970627096E+02 0.  0.
         -6    2    1    2    0  502 -0.18262717959E+03  0.13397461207E+03  0.77850675185E+02  0.29379616962E+03  0.17015751012E+03 0.  0.
        -24    2    5    5    0    0 -0.12602992760E+03  0.13590021134E+02  0.43350823805E+02  0.15628970281E+03  0.80491899943E+02 0.  0.
          5    1    3    3  501    0  0.93117740648E+02  0.15764030286E+02 -0.82792765640E+02  0.12568273675E+03  0.47000000000E+01 0. -1.
        -13    1    4    4    0    0  0.88153125956E+02 -0.82938986717E+02 -0.13266257337E+03  0.17958064346E+03  0.00000000000E+00 0.  1.
         14    1    4    4    0    0  0.13563129823E+01 -0.66799655638E+02 -0.11473615666E+03  0.13277205739E+03  0.00000000000E+00 0. -1.
         -5    1    5    5    0  502 -0.56597251990E+02  0.12038459094E+03  0.34499851380E+02  0.13750646680E+03  0.47000000000E+01 0.  1.
         13    1    6    6    0    0 -0.26057059371E+02  0.13434819955E+01 -0.23735622757E+02  0.35272582477E+02  0.00000000000E+00 0. -1.
        -14    1    6    6    0    0 -0.99972868225E+02  0.12246539139E+02  0.67086446562E+02  0.12101712034E+03  0.00000000000E+00 0.  1.
</event>
<event>
12    1  0.8526130E-002  0.1889764E+03  0.7818608E-02  0.1159610E+00
         21   -1    0    0  501  502  0.00000000000E+00  0.00000000000E+00  0.10576452281E+03  0.10576452281E+03  0.00000000000E+00 0.  1.
         21   -1    0    0  502  503 -0.00000000000E+00 -0.00000000000E+00 -0.11139521814E+04  0.11139521814E+04  0.00000000000E+00 0.  1.
         -6    2    1    2    0  503 -0.35298022386E+02  0.65988033473E+02 -0.10141645571E+04  0.10316209737E+04  0.17352727040E+03 0.  0.
        -24    2    3    3    0    0 -0.53485072133E+02  0.10545242858E+03 -0.77139668426E+03  0.78495006472E+03  0.84337962839E+02 0.  0.
          6    2    1    2  501    0  0.35298022386E+02 -0.65988033473E+02  0.59768984953E+01  0.18809573052E+03  0.17246422695E+03 0.  0.
         24    2    5    5    0    0 -0.36083929044E+02 -0.58501252993E+02  0.36274239172E+02  0.11004796486E+03  0.77912050447E+02 0.  0.
          5    1    5    5  501    0  0.71381951430E+02 -0.74867804795E+01 -0.30297340677E+02  0.78047765657E+02  0.47000000000E+01 0. -1.
        -11    1    6    6    0    0 -0.92049079010E+01 -0.24671747985E+02  0.56504022427E+02  0.62338832429E+02  0.00000000000E+00 0.  1.
         12    1    6    6    0    0 -0.26879021143E+02 -0.33829505008E+02 -0.20229783255E+02  0.47709132430E+02  0.00000000000E+00 0. -1.
         -5    1    3    3    0  503  0.18187049746E+02 -0.39464395109E+02 -0.24276787285E+03  0.24667090900E+03  0.47000000000E+01 0.  1.
         11    1    4    4    0    0 -0.34613317586E+02  0.92089140065E+02 -0.36899571344E+03  0.38188522884E+03  0.00000000000E+00 0. -1.
        -12    1    4    4    0    0 -0.18871754547E+02  0.13363288516E+02 -0.40240097082E+03  0.40306483588E+03  0.00000000000E+00 0.  1.
</event>
<event>
12    1  0.8526130E-002  0.1972395E+03  0.7818608E-02  0.1154906E+00
         21   -1    0    0  503  502  0.00000000000E+00  0.00000000000E+00  0.52176451449E+02  0.52176451449E+02  0.00000000000E+00 0. -1.
         21   -1    0    0  501  503 -0.00000000000E+00 -0.00000000000E+00 -0.69942812647E+03  0.69942812647E+03  0.00000000000E+00 0. -1.
          6    2    1    2  501    0  0.65196203184E+02 -0.18942760346E+01 -0.32090021710E+03  0.37667008591E+03  0.18614314677E+03 0.  0.
         24    2    3    3    0    0 -0.40472848649E+02 -0.86618173296E+01 -0.16657280290E+03  0.18945152672E+03  0.80201644328E+02 0.  0.
         -6    2    1    2    0  502 -0.65196203184E+02  0.18942760346E+01 -0.32635145792E+03  0.37493449201E+03  0.17267445098E+03 0.  0.
        -24    2    5    5    0    0 -0.45157051984E+02 -0.62876522060E+02 -0.15603838609E+03  0.19156203960E+03  0.79720892572E+02 0.  0.
          5    1    3    3  501    0  0.10566905183E+03  0.67675412951E+01 -0.15432741420E+03  0.18721855918E+03  0.47000000000E+01 0. -1.
        -13    1    4    4    0    0 -0.10108202854E+02 -0.39581701555E+02 -0.47026465697E+02  0.62292658788E+02  0.00000000000E+00 0.  1.
         14    1    4    4    0    0 -0.30364645795E+02  0.30919884225E+02 -0.11954633721E+03  0.12715886793E+03  0.00000000000E+00 0. -1.
         -5    1    5    5    0  502 -0.20039151200E+02  0.64770798094E+02 -0.17031307183E+03  0.18337245241E+03  0.47000000000E+01 0.  1.
         11    1    6    6    0    0  0.14818227957E+02 -0.89708583068E+01 -0.16732290791E+01  0.17402754785E+02  0.00000000000E+00 0. -1.
        -12    1    6    6    0    0 -0.59975279941E+02 -0.53905663753E+02 -0.15436515701E+03  0.17415928482E+03  0.00000000000E+00 0.  1.
</event>
<event>
12    1  0.8526130E-002  0.2362119E+03  0.7818608E-02  0.1122608E+00
         21   -1    0    0  503  502  0.00000000000E+00  0.00000000000E+00  0.53630751050E+03  0.53630751050E+03  0.00000000000E+00 0.  1.
         21   -1    0    0  501  503 -0.00000000000E+00 -0.00000000000E+00 -0.10335419218E+03  0.10335419218E+03  0.00000000000E+00 0.  1.
          6    2    1    2  501    0 -0.16022305303E+03  0.11855178993E+02  0.21769777880E+03  0.32122951383E+03  0.17315919170E+03 0.  0.
         24    2    3    3    0    0 -0.50601128658E+02 -0.24427818615E+02  0.17156688402E+03  0.19679651310E+03  0.78335683632E+02 0.  0.
         -6    2    1    2    0  502  0.16022305303E+03 -0.11855178993E+02  0.21525553952E+03  0.31843218885E+03  0.17103256885E+03 0.  0.
        -24    2    5    5    0    0  0.13504833947E+03  0.14243329174E+01  0.23561399946E+03  0.28312399531E+03  0.80032226384E+02 0.  0.
          5    1    3    3  501    0 -0.10962192437E+03  0.36282997607E+02  0.46130894780E+02  0.12443300073E+03  0.47000000000E+01 0. -1.
        -13    1    4    4    0    0  0.84188025946E+01  0.19390484248E+02  0.24333887830E+02  0.32233603792E+02  0.00000000000E+00 0.  1.
         14    1    4    4    0    0 -0.59019931253E+02 -0.43818302863E+02  0.14723299619E+03  0.16456290931E+03  0.00000000000E+00 0. -1.
         -5    1    5    5    0  502  0.25174713558E+02 -0.13279511910E+02 -0.20358459944E+02  0.35308193534E+02  0.47000000000E+01 0.  1.
         11    1    6    6    0    0  0.83159980155E+02  0.35851992852E+02  0.10663739934E+03  0.13990168916E+03  0.00000000000E+00 0. -1.
        -12    1    6    6    0    0  0.51888359316E+02 -0.34427659934E+02  0.12897660012E+03  0.14322230615E+03  0.00000000000E+00 0.  1.
</event>
<event>
12    1  0.8526130E-002  0.1816707E+03  0.7818608E-02  0.1167241E+00
         21   -1    0    0  501  502  0.00000000000E+00  0.00000000000E+00  0.40770258343E+03  0.40770258343E+03  0.00000000000E+00 0.  1.
         21   -1    0    0  502  503 -0.00000000000E+00 -0.00000000000E+00 -0.79417037973E+02  0.79417037973E+02  0.00000000000E+00 0.  1.
         -6    2    1    2    0  503  0.41295233291E+02  0.40796551076E+02  0.17897783701E+03  0.25196637345E+03  0.16758380691E+03 0.  0.
        -24    2    3    3    0    0  0.14409062952E+02 -0.93363110053E+01  0.21561525355E+02  0.84520396518E+02  0.79900001587E+02 0.  0.
          6    2    1    2  501    0 -0.41295233291E+02 -0.40796551076E+02  0.14930770845E+03  0.23515324795E+03  0.17214703991E+03 0.  0.
         24    2    5    5    0    0 -0.34809072138E+02 -0.65436958110E+02  0.30263789990E+02  0.11332236325E+03  0.80202207192E+02 0.  0.
          5    1    5    5  501    0 -0.64861611531E+01  0.24640407034E+02  0.11904391846E+03  0.12183088470E+03  0.47000000000E+01 0. -1.
        -11    1    6    6    0    0 -0.54949927927E+02 -0.63877631149E+02  0.37001919019E+02  0.92027106613E+02  0.00000000000E+00 0.  1.
         12    1    6    6    0    0  0.20140855789E+02 -0.15593269607E+01 -0.67381290292E+01  0.21295256638E+02  0.00000000000E+00 0. -1.
         -5    1    3    3    0  503  0.26886170339E+02  0.50132862081E+02  0.15741631166E+03  0.16744597694E+03  0.47000000000E+01 0.  1.
         11    1    4    4    0    0  0.35148962420E+02  0.67115742388E+01 -0.15601086965E+02  0.39037017079E+02  0.00000000000E+00 0. -1.
        -12    1    4    4    0    0 -0.20739899467E+02 -0.16047885244E+02  0.37162612320E+02  0.45483379439E+02  0.00000000000E+00 0.  1.
</event>
<event>
12    1  0.8526130E-002  0.2162421E+03  0.7818608E-02  0.1136724E+00
         21   -1    0    0  503  502  0.00000000000E+00  0.00000000000E+00  0.17971413818E+03  0.17971413818E+03  0.00000000000E+00 0. -1.
         21   -1    0    0  501  503 -0.00000000000E+00 -0.00000000000E+00 -0.46991837541E+03  0.46991837541E+03  0.00000000000E+00 0. -1.
          6    2    1    2  501    0  0.89716990880E+02 -0.95221633062E+02 -0.36211561895E+03  0.42174677065E+03  0.17212297701E+03 0.  0.
         24    2    3    3    0    0  0.35982729945E+02 -0.88249680664E+02 -0.34259104600E+03  0.36396028549E+03  0.77560954254E+02 0.  0.
         -6    2    1    2    0  502 -0.89716990880E+02  0.95221633062E+02  0.71911381721E+02  0.22788574294E+03  0.17217539650E+03 0.  0.
        -24    2    5    5    0    0  0.91266159453E+01  0.40536337229E+02  0.71062250435E+02  0.11482225982E+03  0.80048848585E+02 0.  0.
          5    1    3    3  501    0  0.53734260935E+02 -0.69719523982E+01 -0.19524572947E+02  0.57786485161E+02  0.47000000000E+01 0. -1.
        -11    1    4    4    0    0  0.29096128607E+02  0.13373097383E+00 -0.46232574514E+02  0.54626491102E+02  0.00000000000E+00 0.  1.
         12    1    4    4    0    0  0.68866013378E+01 -0.88383411638E+02 -0.29635847148E+03  0.30933379439E+03  0.00000000000E+00 0. -1.
         -5    1    5    5    0  502 -0.98843606825E+02  0.54685295834E+02  0.84913128582E+00  0.11306348312E+03  0.47000000000E+01 0.  1.
         13    1    6    6    0    0 -0.18058597662E+02  0.50101554202E+02  0.67201852521E+02  0.85745948390E+02  0.00000000000E+00 0. -1.
        -14    1    6    6    0    0  0.27185213607E+02 -0.95652169737E+01  0.38603979141E+01  0.29076311435E+02  0.00000000000E+00 0.  1.
</event>
<event>
12    1  0.8526130E-002  0.2192194E+03  0.7818608E-02  0.1134922E+00
         21   -1    0    0  501  502  0.00000000000E+00  0.00000000000E+00  0.59245516472E+03  0.59245516472E+03  0.00000000000E+00 0.  1.
         21   -1    0    0  502  503 -0.00000000000E+00 -0.00000000000E+00 -0.13165137132E+03  0.13165137132E+03  0.00000000000E+00 0.  1.
         -6    2    1    2    0  503  0.12935199982E+03 -0.38123265481E+02  0.33350144164E+01  0.21682473740E+03  0.16975429655E+03 0.  0.
        -24    2    3    3    0    0  0.42920001481E+02 -0.61712290398E+02  0.49614606585E+02  0.11587513074E+03  0.72903384170E+02 0.  0.
          6    2    1    2  501    0 -0.12935199982E+03  0.38123265481E+02  0.45746877898E+03  0.50728179865E+03  0.17283465009E+03 0.  0.
         24    2    5    5    0    0 -0.49340232064E+02 -0.72435722705E+01  0.36548780650E+03  0.37711797017E+03  0.78420015835E+02 0.  0.
          5    1    5    5  501    0 -0.80011767755E+02  0.45366837752E+02  0.91980972481E+02  0.13016382848E+03  0.47000000000E+01 0. -1.
        -13    1    6    6    0    0 -0.24710269660E+02 -0.42054966055E+02  0.16079976282E+03  0.16803505980E+03  0.00000000000E+00 0.  1.
         14    1    6    6    0    0 -0.24629962404E+02  0.34811393784E+02  0.20468804368E+03  0.20908291037E+03  0.00000000000E+00 0. -1.
         -5    1    3    3    0  503  0.86431998338E+02  0.23589024917E+02 -0.46279592169E+02  0.10094960666E+03  0.47000000000E+01 0.  1.
         11    1    4    4    0    0  0.61251113674E+02 -0.58707997216E+02  0.33271900479E+02  0.91133677776E+02  0.00000000000E+00 0. -1.
        -12    1    4    4    0    0 -0.18331112193E+02 -0.30042931820E+01  0.16342706106E+02  0.24741452961E+02  0.00000000000E+00 0.  1.
</event>
<event>
12    1  0.8526130E-002  0.2877553E+03  0.7818608E-02  0.1091599E+00
         21   -1    0    0  503  502  0.00000000000E+00  0.00000000000E+00  0.17221076346E+04  0.17221076346E+04  0.00000000000E+00 0.  1.
         21   -1    0    0  501  503 -0.00000000000E+00 -0.00000000000E+00 -0.58884004959E+02  0.58884004959E+02  0.00000000000E+00 0. -1.
          6    2    1    2  501    0 -0.17674310342E+03  0.14739224388E+03  0.44797447633E+03  0.53213871562E+03  0.17183679189E+03 0.  0.
         24    2    3    3    0    0 -0.17836081115E+03  0.88124452174E+02  0.27440564076E+03  0.34866250791E+03  0.81783804735E+02 0.  0.
         -6    2    1    2    0  502  0.17674310342E+03 -0.14739224388E+03  0.12152491533E+04  0.12488529239E+04  0.17274409645E+03 0.  0.
        -24    2    5    5    0    0  0.23063503602E+02 -0.83818788243E+02  0.41146524979E+03  0.42803037478E+03  0.79679580109E+02 0.  0.
          5    1    3    3  501    0  0.16177077276E+01  0.59267791708E+02  0.17356883557E+03  0.18347620770E+03  0.47000000000E+01 0. -1.
        -11    1    4    4    0    0  0.25273767453E+01  0.80762815200E+01  0.44833577823E+02  0.45625252403E+02  0.00000000000E+00 0.  1.
         12    1    4    4    0    0 -0.18088818789E+03  0.80048170654E+02  0.22957206294E+03  0.30303725551E+03  0.00000000000E+00 0. -1.
         -5    1    5    5    0  502  0.15367959982E+03 -0.63573455638E+02  0.80378390348E+03  0.82082254913E+03  0.47000000000E+01 0.  1.
         11    1    6    6    0    0  0.35395584905E+02 -0.94917921318E+02  0.35006324136E+03  0.36442630554E+03  0.00000000000E+00 0. -1.
        -12    1    6    6    0    0 -0.12332081304E+02  0.11099133075E+02  0.61402008426E+02  0.63604069233E+02  0.00000000000E+00 0.  1.
</event>
<event>
12    1  0.8526130E-002  0.2579176E+03  0.7818608E-02  0.1108583E+00
         21   -1    0    0  503  502  0.00000000000E+00  0.00000000000E+00  0.12887188782E+04  0.12887188782E+04  0.00000000000E+00 0.  1.
         21   -1    0    0  501  503 -0.00000000000E+00 -0.00000000000E+00 -0.79649202674E+02  0.79649202674E+02  0.00000000000E+00 0.  1.
          6    2    1    2  501    0  0.11771549835E+02  0.19039884052E+03  0.19601404922E+03  0.32299581710E+03  0.17179785365E+03 0.  0.
         24    2    3    3    0    0 -0.15801890043E+02  0.63834605409E+02  0.22996211670E+02  0.10681056713E+03  0.80963664212E+02 0.  0.
         -6    2    1    2    0  502 -0.11771549835E+02 -0.19039884052E+03  0.10130556263E+04  0.10453722638E+04  0.17358335181E+03 0.  0.
        -24    2    5    5    0    0  0.44407405429E+02 -0.68398465527E+02  0.31802907022E+03  0.33747102054E+03  0.78063003114E+02 0.  0.
          5    1    3    3  501    0  0.27573439878E+02  0.12656423511E+03  0.17301783755E+03  0.21618524997E+03  0.47000000000E+01 0. -1.
        -13    1    4    4    0    0 -0.59301453735E+01  0.77262910723E+02  0.36218130776E+02  0.85536407421E+02  0.00000000000E+00 0.  1.
         14    1    4    4    0    0 -0.98717446697E+01 -0.13428305314E+02 -0.13221919106E+02  0.21274159708E+02  0.00000000000E+00 0. -1.
         -5    1    5    5    0  502 -0.56178955263E+02 -0.12200037499E+03  0.69502655611E+03  0.70790124326E+03  0.47000000000E+01 0.  1.
         13    1    6    6    0    0  0.19539596017E+02 -0.19926064906E+02  0.24381712061E+03  0.24540911185E+03  0.00000000000E+00 0. -1.
        -14    1    6    6    0    0  0.24867809411E+02 -0.48472400621E+02  0.74211949608E+02  0.92061908689E+02  0.00000000000E+00 0.  1.
</event>
<event>
12    1  0.8526130E-002  0.2115737E+03  0.7818608E-02  0.1141220E+00
         21   -1    0    0  501  502  0.00000000000E+00  0.00000000000E+00  0.26498909482E+03  0.26498909482E+03  0.00000000000E+00 0.  1.
         21   -1    0    0  502  503 -0.00000000000E+00 -0.00000000000E+00 -0.21085317872E+03  0.21085317872E+03  0.00000000000E+00 0. -1.
         -6    2    1    2    0  503 -0.42310496418E+02  0.11141737629E+03 -0.83228232843E+02  0.22735512926E+03  0.17481248872E+03 0.  0.
        -24    2    3    3    0    0 -0.73902462528E+02  0.16530283959E+02 -0.58660079119E+02  0.12426634815E+03  0.79159940280E+02 0.  0.
          6    2    1    2  501    0  0.42310496418E+02 -0.11141737629E+03  0.13736414895E+03  0.24848714427E+03  0.16933086430E+03 0.  0.
         24    2    5    5    0    0 -0.25037775399E+02 -0.35358977213E+02  0.20951087622E+02  0.93907842183E+02  0.80638621543E+02 0.  0.
          5    1    5    5  501    0  0.67348271816E+02 -0.76058399077E+02  0.11641306132E+03  0.15457930209E+03  0.47000000000E+01 0. -1.
        -13    1    6    6    0    0 -0.41594213735E+02 -0.52800865318E+02  0.12186828730E+02  0.68311995938E+02  0.00000000000E+00 0.  1.
         14    1    6    6    0    0  0.16556438336E+02  0.17441888105E+02  0.87642588919E+01  0.25595846244E+02  0.00000000000E+00 0. -1.
         -5    1    3    3    0  503  0.31591966110E+02  0.94887092332E+02 -0.24568153724E+02  0.10308878111E+03  0.47000000000E+01 0.  1.
         13    1    4    4    0    0 -0.65631887363E+02  0.23089272648E+02 -0.51942387552E+01  0.69768469000E+02  0.00000000000E+00 0. -1.
        -14    1    4    4    0    0 -0.82705751643E+01 -0.65589886892E+01 -0.53465840364E+02  0.54497879151E+02  0.00000000000E+00 0.  1.
</event>
<event>
12    1  0.8526130E-002  0.1828838E+03  0.7818608E-02  0.1165853E+00
         21   -1    0    0  503  502  0.00000000000E+00  0.00000000000E+00  0.28323324076E+02  0.28323324076E+02  0.00000000000E+00 0. -1.
         21   -1    0    0  501  503 -0.00000000000E+00 -0.00000000000E+00 -0.13595286484E+04  0.13595286484E+04  0.00000000000E+00 0. -1.
          6    2    1    2  501    0  0.43135340413E+02  0.32569129667E+02 -0.93735774301E+03  0.95503194376E+03  0.17471425074E+03 0.  0.
         24    2    3    3    0    0 -0.18934811955E+02  0.62992302006E+02 -0.39241264653E+03  0.40570005736E+03  0.79235687485E+02 0.  0.
         -6    2    1    2    0  502 -0.43135340413E+02 -0.32569129667E+02 -0.39384758132E+03  0.43282002873E+03  0.17116031712E+03 0.  0.
        -24    2    5    5    0    0  0.40064208494E+02 -0.24782728732E+02 -0.24199029034E+03  0.25942591175E+03  0.80766197285E+02 0.  0.
          5    1    3    3  501    0  0.62070152368E+02 -0.30423172340E+02 -0.54494509649E+03  0.54933188640E+03  0.47000000000E+01 0. -1.
        -11    1    4    4    0    0  0.18201503982E+02  0.56752416196E+01 -0.22301693875E+02  0.29340563463E+02  0.00000000000E+00 0.  1.
         12    1    4    4    0    0 -0.37136315937E+02  0.57317060387E+02 -0.37011095265E+03  0.37635949390E+03  0.00000000000E+00 0. -1.
         -5    1    5    5    0  502 -0.83199548906E+02 -0.77864009351E+01 -0.15185729098E+03  0.17339411698E+03  0.47000000000E+01 0.  1.
         13    1    6    6    0    0 -0.56510059996E+01 -0.39784760582E+02 -0.68790084831E+02  0.79667037189E+02  0.00000000000E+00 0. -1.
        -14    1    6    6    0    0  0.45715214493E+02  0.15002031851E+02 -0.17320020551E+03  0.17975887456E+03  0.00000000000E+00 0.  1.
</event>
<event>
12    1  0.8526130E-002  0.2196014E+03  0.7818608E-02  0.1134384E+00
         21   -1    0    0  503  502  0.00000000000E+00  0.00000000000E+00  0.86559025748E+02  0.86559025748E+02  0.00000000000E+00 0. -1.
         21   -1    0    0  501  503 -0.00000000000E+00 -0.00000000000E+00 -0.61020846825E+03  0.61020846825E+03  0.00000000000E+00 0. -1.
          6    2    1    2  501    0 -0.12372757766E+03  0.54499821520E+02 -0.15585922025E+03  0.26840501609E+03  0.17166948507E+03 0.  0.
         24    2    3    3    0    0 -0.12131297834E+03  0.72154948938E+02 -0.17676386683E+03  0.24053696875E+03  0.81788711610E+02 0.  0.
         -6    2    1    2    0  502  0.12372757766E+03 -0.54499821520E+02 -0.36779022226E+03  0.42836247791E+03  0.17304918629E+03 0.  0.
        -24    2    5    5    0    0  0.13732312522E+03 -0.83441917118E+02 -0.34439982987E+03  0.38846655999E+03  0.80466335575E+02 0.  0.
          5    1    3    3  501    0 -0.24145993205E+01 -0.17655127418E+02  0.20904646580E+02  0.27868047342E+02  0.47000000000E+01 0. -1.
        -11    1    4    4    0    0 -0.21970963614E+02  0.43136647641E+02 -0.19316921085E+02  0.52121368478E+02  0.00000000000E+00 0.  1.
         12    1    4    4    0    0 -0.99342014729E+02  0.29018301297E+02 -0.15744694574E+03  0.18841560027E+03  0.00000000000E+00 0. -1.
         -5    1    5    5    0  502 -0.13595547559E+02  0.28942095597E+02 -0.23390392387E+02  0.39895917924E+02  0.47000000000E+01 0.  1.
         11    1    6    6    0    0  0.32401152732E+02  0.15110868662E+02 -0.69969689880E+02  0.78574363198E+02  0.00000000000E+00 0. -1.
        -12    1    6    6    0    0  0.10492197249E+03 -0.98552785779E+02 -0.27443013999E+03  0.30989219679E+03  0.00000000000E+00 0.  1.
</event>
<event>
12    1  0.8526130E-002  0.1893618E+03  0.7818608E-02  0.1159984E+00
         21   -1    0    0  501  502  0.00000000000E+00  0.00000000000E+00  0.36389784258E+03  0.36389784258E+03  0.00000000000E+00 0.  1.
         21   -1    0    0  502  503 -0.00000000000E+00 -0.00000000000E+00 -0.34342032483E+03  0.34342032483E+03  0.00000000000E+00 0. -1.
         -6    2    1    2    0  503  0.72736450252E+02  0.17468973043E+02 -0.28966565667E+03  0.34606947703E+03  0.17396015080E+03 0.  0.
        -24    2    3    3    0    0  0.60558430425E+02  0.11917622400E+01 -0.63905834555E+02  0.11934753491E+03  0.80567577891E+02 0.  0.
          6    2    1    2  501    0 -0.72736450252E+02 -0.17468973043E+02  0.31014317441E+03  0.36124869038E+03  0.16945817020E+03 0.  0.
         24    2    5    5    0    0 -0.24121249667E+02  0.53121021638E+02  0.17806706253E+03  0.20372861417E+03  0.79961189642E+02 0.  0.
          5    1    5    5  501    0 -0.48615200585E+02 -0.70589994681E+02  0.13207611189E+03  0.15752007621E+03  0.47000000000E+01 0. -1.
        -13    1    6    6    0    0 -0.14747835362E+02 -0.20145135806E+02  0.50031245822E+02  0.55914673414E+02  0.00000000000E+00 0.  1.
         14    1    6    6    0    0 -0.93734143051E+01  0.73266157444E+02  0.12803581670E+03  0.14781394075E+03  0.00000000000E+00 0. -1.
         -5    1    3    3    0  503  0.12178019827E+02  0.16277210803E+02 -0.22575982211E+03  0.22672194212E+03  0.47000000000E+01 0.  1.
         13    1    4    4    0    0  0.15178982744E+02  0.36621523404E+02 -0.10956994631E+02  0.41128982785E+02  0.00000000000E+00 0. -1.
        -14    1    4    4    0    0  0.45379447681E+02 -0.35429761164E+02 -0.52948839923E+02  0.78218552129E+02  0.00000000000E+00 0.  1.
</event>
<event>
12    1  0.8526130E-002  0.2073106E+03  0.7818608E-02  0.1144078E+00
         21   -1    0    0  501  502  0.00000000000E+00  0.00000000000E+00  0.12594230345E+04  0.12594230345E+04  0.00000000000E+00 0. -1.
         21   -1    0    0  502  503 -0.00000000000E+00 -0.00000000000E+00 -0.35785770230E+02  0.35785770230E+02  0.00000000000E+00 0. -1.
         -6    2    1    2    0  503  0.18511272870E+02 -0.11575261083E+03  0.46291444176E+03  0.50721539837E+03  0.17098639072E+03 0.  0.
        -24    2    3    3    0    0 -0.17653088574E+02 -0.84117345446E+01  0.11306944274E+03  0.13946067291E+03  0.79260277511E+02 0.  0.
          6    2    1    2  501    0 -0.18511272870E+02  0.11575261083E+03  0.76072282251E+03  0.78799340637E+03  0.16879887928E+03 0.  0.
         24    2    5    5    0    0  0.14809877589E+02  0.13999259092E+03  0.64952222593E+03  0.66931089551E+03  0.79250835228E+02 0.  0.
          5    1    5    5  501    0 -0.33321150459E+02 -0.24239980088E+02  0.11120059658E+03  0.11868251085E+03  0.47000000000E+01 0. -1.
        -11    1    6    6    0    0 -0.29587723688E+02  0.30636663469E+02  0.14224663071E+03  0.14848616936E+03  0.00000000000E+00 0.  1.
         12    1    6    6    0    0  0.44397601277E+02  0.10935592745E+03  0.50727559522E+03  0.52082472615E+03  0.00000000000E+00 0. -1.
         -5    1    3    3    0  503  0.36164361444E+02 -0.10734087629E+03  0.34984499902E+03  0.36775472547E+03  0.47000000000E+01 0.  1.
         11    1    4    4    0    0 -0.28520279190E+02 -0.35421472237E+02  0.39122380506E+02  0.59988729584E+02  0.00000000000E+00 0. -1.
        -12    1    4    4    0    0  0.10867190616E+02  0.27009737693E+02  0.73947062235E+02  0.79471943322E+02  0.00000000000E+00 0.  1.
</event>
<event>
12    1  0.8526130E-002  0.1765136E+03  0.7818608E-02  0.1171822E+00
         21   -1    0    0  501  502  0.00000000000E+00  0.00000000000E+00  0.14864356551E+03  0.14864356551E+03  0.00000000000E+00 0.  1.
         21   -1    0    0  502  503 -0.00000000000E+00 -0.00000000000E+00 -0.30935948182E+03  0.30935948182E+03  0.00000000000E+00 0.  1.
         -6    2    1    2    0  503  0.14462724921E+01  0.29789397045E+02 -0.21260272502E+03  0.27632766892E+03  0.17397575131E+03 0.  0.
        -24    2    3    3    0    0  0.11748569545E+02  0.41327322062E+02 -0.36701865583E+02  0.99685478632E+02  0.82123025258E+02 0.  0.
          6    2    1    2  501    0 -0.14462724921E+01 -0.29789397045E+02  0.51886808707E+02  0.18167537842E+03  0.17153484289E+03 0.  0.
         24    2    5    5    0    0 -0.35599958795E+02  0.32653732503E+02  0.58442369747E+02  0.11004658465E+03  0.79756610380E+02 0.  0.
          5    1    5    5  501    0  0.34153686303E+02 -0.62443129548E+02 -0.65555610401E+01  0.71628793766E+02  0.47000000000E+01 0. -1.
        -13    1    6    6    0    0 -0.63007524314E+01  0.40659405185E+02  0.66880350302E+02  0.78523040999E+02  0.00000000000E+00 0.  1.
         14    1    6    6    0    0 -0.29299206364E+02 -0.80056726821E+01 -0.84379805542E+01  0.31523543653E+02  0.00000000000E+00 0. -1.
         -5    1    3    3    0  503 -0.10302297053E+02 -0.11537925018E+02 -0.17590085944E+03  0.17664219028E+03  0.47000000000E+01 0.  1.
         13    1    4    4    0    0 -0.96064405035E+01  0.50624840719E+02  0.51543115531E+01  0.51785375586E+02  0.00000000000E+00 0. -1.
        -14    1    4    4    0    0  0.21355010049E+02 -0.92975186571E+01 -0.41856177136E+02  0.47900103046E+02  0.00000000000E+00 0.  1.
</event>
<event>
12    1  0.8526130E-002  0.2516885E+03  0.7818608E-02  0.1112521E+00
         21   -1    0    0  501  502  0.00000000000E+00  0.00000000000E+00  0.36206453560E+03  0.36206453560E+03  0.00000000000E+00 0. -1.
         21   -1    0    0  502  503 -0.00000000000E+00 -0.00000000000E+00 -0.20414734651E+03  0.20414734651E+03  0.00000000000E+00 0. -1.
         -6    2    1    2    0  503  0.11360933495E+03  0.14401175534E+03 -0.30557352377E+02  0.25177627730E+03  0.16973825544E+03 0.  0.
        -24    2    3    3    0    0  0.83917590847E+02  0.10184946674E+03  0.44481700259E+02  0.16060496784E+03  0.79999113166E+02 0.  0.
          6    2    1    2  501    0 -0.11360933495E+03 -0.14401175534E+03  0.18847454147E+03  0.31443560481E+03  0.17233870757E+03 0.  0.
         24    2    5    5    0    0 -0.13951649211E+03 -0.12857387239E+03  0.11717922675E+03  0.23688161766E+03  0.79911434548E+02 0.  0.
          5    1    5    5  501    0  0.25907157155E+02 -0.15437882951E+02  0.71295314723E+02  0.77553987153E+02  0.47000000000E+01 0. -1.
        -11    1    6    6    0    0 -0.47385392695E+01  0.69304232723E+01 -0.52590173465E+01  0.99066535517E+01  0.00000000000E+00 0.  1.
         12    1    6    6    0    0 -0.13477795284E+03 -0.13550429566E+03  0.12243824409E+03  0.22697496410E+03  0.00000000000E+00 0. -1.
         -5    1    3    3    0  503  0.29691744106E+02  0.42162288599E+02 -0.75039052636E+02  0.91171309459E+02  0.47000000000E+01 0.  1.
         13    1    4    4    0    0  0.48580913496E+02  0.77700800887E+02 -0.90306780865E+01  0.92081880744E+02  0.00000000000E+00 0. -1.
        -14    1    4    4    0    0  0.35336677351E+02  0.24148665853E+02  0.53512378345E+02  0.68523087094E+02  0.00000000000E+00 0.  1.
</event>
<event>
12    1  0.8526130E-002  0.1893923E+03  0.7818608E-02  0.1159202E+00
         21   -1    0    0  501  502  0.00000000000E+00  0.00000000000E+00  0.15941056092E+03  0.15941056092E+03  0.00000000000E+00 0.  1.
         21   -1    0    0  502  503 -0.00000000000E+00 -0.00000000000E+00 -0.41519592877E+03  0.41519592877E+03  0.00000000000E+00 0.  1.
         -6    2    1    2    0  503 -0.60543673834E+02 -0.49030669239E+02  0.66911251275E+02  0.20086451601E+03  0.17262646169E+03 0.  0.
        -24    2    3    3    0    0  0.22898284804E+02 -0.52392248541E+02  0.62455008539E+02  0.11710409113E+03  0.80891661580E+02 0.  0.
          6    2    1    2  501    0  0.60543673834E+02  0.49030669239E+02 -0.32269661913E+03  0.37374197368E+03  0.17169860781E+03 0.  0.
         24    2    5    5    0    0  0.28399093408E+02  0.10117867164E+03 -0.22616853567E+03  0.25931973326E+03  0.71069581615E+02 0.  0.
          5    1    5    5  501    0  0.32144580427E+02 -0.52148002403E+02 -0.96528083456E+02  0.11442224041E+03  0.47000000000E+01 0. -1.
        -13    1    6    6    0    0  0.42659928831E+02  0.25710624301E+02 -0.97048176190E+02  0.10908370287E+03  0.00000000000E+00 0.  1.
         14    1    6    6    0    0 -0.14260835423E+02  0.75468047340E+02 -0.12912035948E+03  0.15023603039E+03  0.00000000000E+00 0. -1.
         -5    1    3    3    0  503 -0.83441958638E+02  0.33615793015E+01  0.44562427355E+01  0.83760424880E+02  0.47000000000E+01 0.  1.
         11    1    4    4    0    0 -0.11816867338E+02  0.14025810452E+02  0.30592342561E+02  0.35668657613E+02  0.00000000000E+00 0. -1.
        -12    1    4    4    0    0  0.34715152142E+02 -0.66418058993E+02  0.31862665978E+02  0.81435433515E+02  0.00000000000E+00 0.  1.
</event>
<event>
12    1  0.8526130E-002  0.3021979E+03  0.7818608E-02  0.1084245E+00
         21   -1    0    0  503  502  0.00000000000E+00  0.00000000000E+00  0.35296914436E+03  0.35296914436E+03  0.00000000000E+00 0. -1.
         21   -1    0    0  501  503 -0.00000000000E+00 -0.00000000000E+00 -0.42571696854E+03  0.42571696854E+03  0.00000000000E+00 0.  1.
          6    2    1    2  501    0 -0.91676240145E+02  0.22994673249E+03 -0.28068199379E+03  0.41186164134E+03  0.17195231077E+03 0.  0.
         24    2    3    3    0    0 -0.33799236073E+02  0.42702488836E+02 -0.14058805092E+03  0.17090820764E+03  0.80490524083E+02 0.  0.
         -6    2    1    2    0  502  0.91676240145E+02 -0.22994673249E+03  0.20793416961E+03  0.36682447157E+03  0.17333072798E+03 0.  0.
        -24    2    5    5    0    0  0.16192018776E+02 -0.17700212246E+03  0.19187477675E+03  0.27311751609E+03  0.78646772429E+02 0.  0.
          5    1    3    3  501    0 -0.57877004072E+02  0.18724424365E+03 -0.14009394287E+03  0.24095343370E+03  0.47000000000E+01 0. -1.
        -11    1    4    4    0    0  0.26554808787E+01  0.25660569503E+02 -0.12519161395E+03  0.12782197232E+03  0.00000000000E+00 0.  1.
         12    1    4    4    0    0 -0.36454716952E+02  0.17041919333E+02 -0.15396436969E+02  0.43086235319E+02  0.00000000000E+00 0. -1.
         -5    1    5    5    0  502  0.75484221369E+02 -0.52944610023E+02  0.16059392860E+02  0.93706955479E+02  0.47000000000E+01 0.  1.
         11    1    6    6    0    0 -0.15943834215E+02 -0.13421692738E+03  0.10528483049E+03  0.17132800406E+03  0.00000000000E+00 0. -1.
        -12    1    6    6    0    0  0.32135852991E+02 -0.42785195087E+02  0.86589946257E+02  0.10178951203E+03  0.00000000000E+00 0.  1.
</event>
<event>
12    1  0.8526130E-002  0.2455114E+03  0.7818608E-02  0.1116795E+00
         21   -1    0    0  501  502  0.00000000000E+00  0.00000000000E+00  0.67398852737E+03  0.67398852737E+03  0.00000000000E+00 0.  1.
         21   -1    0    0  502  503 -0.00000000000E+00 -0.00000000000E+00 -0.39732015032E+03  0.39732015032E+03  0.00000000000E+00 0.  1.
         -6    2    1    2    0  503 -0.89994799926E+02 -0.14396406638E+03 -0.33448831142E+03  0.41268257793E+03  0.17204581724E+03 0.  0.
        -24    2    3    3    0    0 -0.40083123709E+02 -0.12540779671E+02 -0.18925474660E+03  0.21049916105E+03  0.82028103295E+02 0.  0.
          6    2    1    2  501    0  0.89994799926E+02  0.14396406638E+03  0.61115668847E+03  0.65862609977E+03  0.17734465037E+03 0.  0.
         24    2    5    5    0    0  0.98415116528E+01  0.41539090809E+02  0.40385216597E+03  0.41385543100E+03  0.79733270296E+02 0.  0.
          5    1    5    5  501    0  0.80153288273E+02  0.10242497557E+03  0.20730452250E+03  0.24477066877E+03  0.47000000000E+01 0. -1.
        -11    1    6    6    0    0  0.16599780862E+02  0.64448857419E+02  0.29886501593E+03  0.30618541064E+03  0.00000000000E+00 0.  1.
         12    1    6    6    0    0 -0.67582692088E+01 -0.22909766610E+02  0.10498715005E+03  0.10767002036E+03  0.00000000000E+00 0. -1.
         -5    1    3    3    0  503 -0.49911676218E+02 -0.13142328671E+03 -0.14523356482E+03  0.20218341688E+03  0.47000000000E+01 0.  1.
         13    1    4    4    0    0 -0.76759310488E+01  0.32889671244E+02 -0.48639253610E+02  0.59215094223E+02  0.00000000000E+00 0. -1.
        -14    1    4    4    0    0 -0.32407192660E+02 -0.45430450916E+02 -0.14061549299E+03  0.15128406682E+03  0.00000000000E+00 0.  1.
</event>
<event>
12    1  0.8526130E-002  0.1862130E+03  0.7818608E-02  0.1161993E+00
         21   -1    0    0  503  502  0.00000000000E+00  0.00000000000E+00  0.26534158651E+02  0.26534158651E+02  0.00000000000E+00 0. -1.
         21   -1    0    0  501  503 -0.00000000000E+00 -0.00000000000E+00 -0.13086046095E+04  0.13086046095E+04  0.00000000000E+00 0. -1.
          6    2    1    2  501    0 -0.45976299027E+02 -0.54653026261E+02 -0.67817534328E+03  0.70327595879E+03  0.17197239498E+03 0.  0.
         24    2    3    3    0    0 -0.22796329101E+02 -0.50834355612E+01 -0.61689535809E+03  0.62098512143E+03  0.67209554966E+02 0.  0.
         -6    2    1    2    0  502  0.45976299027E+02  0.54653026261E+02 -0.60389510761E+03  0.63186280940E+03  0.17164071648E+03 0.  0.
        -24    2    5    5    0    0  0.17744783989E+02  0.82658044174E+02 -0.32947386124E+03  0.35453554797E+03  0.99975996673E+02 0.  0.
          5    1    3    3  501    0 -0.23179969926E+02 -0.49569590699E+02 -0.61279985193E+02  0.82290837358E+02  0.47000000000E+01 0. -1.
        -13    1    4    4    0    0 -0.11702601857E+02 -0.36181542796E+02 -0.31310616253E+03  0.31540691803E+03  0.00000000000E+00 0.  1.
         14    1    4    4    0    0 -0.11093727244E+02  0.31098107234E+02 -0.30378919556E+03  0.30557820340E+03  0.00000000000E+00 0. -1.
         -5    1    5    5    0  502  0.28231515038E+02 -0.28005017913E+02 -0.27442124638E+03  0.27732726143E+03  0.47000000000E+01 0.  1.
         13    1    6    6    0    0 -0.22416650754E+02 -0.89928272575E+01 -0.11977111041E+03  0.12218222482E+03  0.00000000000E+00 0. -1.
        -14    1    6    6    0    0  0.40161434743E+02  0.91650871431E+02 -0.20970275083E+03  0.23235332315E+03  0.00000000000E+00 0.  1.
</event>
<event>
12    1  0.8526130E-002  0.2550091E+03  0.7818608E-02  0.1110221E+00
         21   -1    0    0  503  502  0.00000000000E+00  0.00000000000E+00  0.17834090835E+03  0.17834090835E+03  0.00000000000E+00 0. -1.
         21   -1    0    0  501  503 -0.00000000000E+00 -0.00000000000E+00 -0.68590832416E+03  0.68590832416E+03  0.00000000000E+00 0.  1.
          6    2    1    2  501    0  0.13971627787E+03  0.12536824115E+03 -0.54963198173E+03  0.60579404211E+03  0.17220125414E+03 0.  0.
         24    2    3    3    0    0  0.15974695988E+03  0.11915495668E+03 -0.39403979198E+03  0.44872446314E+03  0.79807839641E+02 0.  0.
         -6    2    1    2    0  502 -0.13971627787E+03 -0.12536824115E+03  0.42064565929E+02  0.25845519039E+03  0.17260308093E+03 0.  0.
        -24    2    5    5    0    0 -0.36701842468E+02 -0.93862478469E+02 -0.26568282359E+02  0.13063834938E+03  0.78761123637E+02 0.  0.
          5    1    3    3  501    0 -0.20030682010E+02  0.62132844689E+01 -0.15559218975E+03  0.15706957897E+03  0.47000000000E+01 0. -1.
        -11    1    4    4    0    0  0.21847941136E+02  0.57574156071E+02 -0.14399924012E+03  0.15661384720E+03  0.00000000000E+00 0.  1.
         12    1    4    4    0    0  0.13789901874E+03  0.61580800612E+02 -0.25004055186E+03  0.29211061595E+03  0.00000000000E+00 0. -1.
         -5    1    5    5    0  502 -0.10301443540E+03 -0.31505762682E+02  0.68632848288E+02  0.12781684101E+03  0.47000000000E+01 0.  1.
         11    1    6    6    0    0 -0.29862931511E+02 -0.72332877734E+02  0.18333984243E+02  0.80373968783E+02  0.00000000000E+00 0. -1.
        -12    1    6    6    0    0 -0.68389109570E+01 -0.21529600735E+02 -0.44902266602E+02  0.50264380598E+02  0.00000000000E+00 0.  1.
</event>
<event>
12    1  0.8526130E-002  0.2044521E+03  0.7818608E-02  0.1146207E+00
         21   -1    0    0  503  502  0.00000000000E+00  0.00000000000E+00  0.25872525179E+04  0.25872525179E+04  0.00000000000E+00 0.  1.
         21   -1    0    0  501  503 -0.00000000000E+00 -0.00000000000E+00 -0.20162802708E+02  0.20162802708E+02  0.00000000000E+00 0.  1.
          6    2    1    2  501    0  0.83962925431E+02 -0.71874841722E+02  0.69558108600E+03  0.72477217949E+03  0.17101432466E+03 0.  0.
         24    2    3    3    0    0  0.10006876917E+03 -0.88020370425E+02  0.67884581092E+03  0.69609752636E+03  0.77193179981E+02 0.  0.
         -6    2    1    2    0  502 -0.83962925431E+02  0.71874841722E+02  0.18715086291E+04  0.18826431411E+04  0.17200256379E+03 0.  0.
        -24    2    5    5    0    0  0.13364608830E+02  0.64779366706E+02  0.83391632539E+03  0.84046135582E+03  0.81141073232E+02 0.  0.
          5    1    3    3  501    0 -0.16105843741E+02  0.16145528703E+02  0.16735275085E+02  0.28674653126E+02  0.47000000000E+01 0. -1.
        -11    1    4    4    0    0  0.56880765595E+02 -0.35853513321E+02  0.17080570061E+03  0.18356329500E+03  0.00000000000E+00 0.  1.
         12    1    4    4    0    0  0.43188003577E+02 -0.52166857104E+02  0.50804011031E+03  0.51253423136E+03  0.00000000000E+00 0. -1.
         -5    1    5    5    0  502 -0.97327534260E+02  0.70954750163E+01  0.10375923038E+04  0.10421817852E+04  0.47000000000E+01 0.  1.
         13    1    6    6    0    0 -0.76756184488E+00  0.22379080284E+02  0.44839164743E+02  0.50119488030E+02  0.00000000000E+00 0. -1.
        -14    1    6    6    0    0  0.14132170675E+02  0.42400286422E+02  0.78907716064E+03  0.79034186779E+03  0.00000000000E+00 0.  1.
</event>
<event>
12    1  0.8526130E-002  0.2143931E+03  0.7818608E-02  0.1139678E+00
         21   -1    0    0  503  502  0.00000000000E+00  0.00000000000E+00  0.64218555792E+03  0.64218555792E+03  0.00000000000E+00 0.  1.
         21   -1    0    0  501  503 -0.00000000000E+00 -0.00000000000E+00 -0.11011681149E+03  0.11011681149E+03  0.00000000000E+00 0. -1.
          6    2    1    2  501    0  0.12324437007E+03 -0.21299471013E+02  0.39252726658E+02  0.21795684501E+03  0.17413089191E+03 0.  0.
         24    2    3    3    0    0  0.48560913563E+02 -0.75470829006E+02  0.13734785629E+02  0.12211630026E+03  0.81668464521E+02 0.  0.
         -6    2    1    2    0  502 -0.12324437007E+03  0.21299471013E+02  0.49281601977E+03  0.53434552440E+03  0.16436139414E+03 0.  0.
        -24    2    5    5    0    0 -0.26708933679E+02  0.55112565609E+02  0.28953481199E+03  0.30673235413E+03  0.80644700299E+02 0.  0.
          5    1    3    3  501    0  0.74683456504E+02  0.54171357993E+02  0.25517941028E+02  0.95840544742E+02  0.47000000000E+01 0. -1.
        -11    1    4    4    0    0  0.60217162118E+02 -0.23976019678E+02  0.22473563934E+02  0.68600416974E+02  0.00000000000E+00 0.  1.
         12    1    4    4    0    0 -0.11656248556E+02 -0.51494809328E+02 -0.87387783045E+01  0.53515883290E+02  0.00000000000E+00 0. -1.
         -5    1    5    5    0  502 -0.96535436387E+02 -0.33813094597E+02  0.20328120778E+03  0.22761317027E+03  0.47000000000E+01 0.  1.
         13    1    6    6    0    0  0.43247595835E+01 -0.19314165135E+02  0.74196428584E+02  0.76790953470E+02  0.00000000000E+00 0. -1.
        -14    1    6    6    0    0 -0.31033693263E+02  0.74426730744E+02  0.21533838341E+03  0.22994140066E+03  0.00000000000E+00 0.  1.
</event>
<event>
12    1  0.8526130E-002  0.1812682E+03  0.7818608E-02  0.1166752E+00
         21   -1    0    0  501  502  0.00000000000E+00  0.00000000000E+00  0.21329818853E+03  0.21329818853E+03  0.00000000000E+00 0.  1.
         21   -1    0    0  502  503 -0.00000000000E+00 -0.00000000000E+00 -0.36907161974E+03  0.36907161974E+03  0.00000000000E+00 0.  1.
         -6    2    1    2    0  503  0.49365379521E+02 -0.18991744201E+02 -0.30039213939E+03  0.35048033137E+03  0.17263660745E+03 0.  0.
        -24    2    3    3    0    0  0.48856226210E+02 -0.45759197454E+02 -0.87851760267E+02  0.13620887143E+03  0.79712545327E+02 0.  0.
          6    2    1    2  501    0 -0.49365379521E+02  0.18991744201E+02  0.14461870818E+03  0.23188947691E+03  0.17337973267E+03 0.  0.
         24    2    5    5    0    0 -0.12167281643E+02  0.62942792019E+02  0.14517545368E+03  0.17411584057E+03  0.71628037638E+02 0.  0.
          5    1    5    5  501    0 -0.37198097878E+02 -0.43951047818E+02 -0.55674550511E+00  0.57773636337E+02  0.47000000000E+01 0. -1.
        -13    1    6    6    0    0  0.78866516613E+01  0.14781055206E+02  0.10982863595E+03  0.11109909155E+03  0.00000000000E+00 0.  1.
         14    1    6    6    0    0 -0.20053933304E+02  0.48161736813E+02  0.35346817730E+02  0.63016749023E+02  0.00000000000E+00 0. -1.
         -5    1    3    3    0  503  0.50915331030E+00  0.26767453253E+02 -0.21254037912E+03  0.21427145994E+03  0.47000000000E+01 0.  1.
         13    1    4    4    0    0  0.15592337197E+02  0.44977845238E+01  0.11581304403E+02  0.19936841690E+02  0.00000000000E+00 0. -1.
        -14    1    4    4    0    0  0.33263889013E+02 -0.50256981977E+02 -0.99433064670E+02  0.11627202974E+03  0.00000000000E+00 0.  1.
</event>
<event>
12    1  0.8526130E-002  0.2054032E+03  0.7818608E-02  0.1145398E+00
         21   -1    0    0  501  502  0.00000000000E+00  0.00000000000E+00  0.38059449822E+02  0.38059449822E+02  0.00000000000E+00 0. -1.
         21   -1    0    0  502  503 -0.00000000000E+00 -0.00000000000E+00 -0.14882744783E+04  0.14882744783E+04  0.00000000000E+00 0. -1.
         -6    2    1    2    0  503  0.93703138104E+02  0.60045881954E+02 -0.11115715666E+04  0.11302659052E+04  0.17182515120E+03 0.  0.
        -24    2    3    3    0    0  0.12933902289E+03  0.30049385809E+02 -0.91454838863E+03  0.92775682206E+03  0.81868292433E+02 0.  0.
          6    2    1    2  501    0 -0.93703138104E+02 -0.60045881954E+02 -0.33864346189E+03  0.39606802301E+03  0.17264037343E+03 0.  0.
         24    2    5    5    0    0 -0.79270285958E+02 -0.43627848774E+01 -0.31127726134E+03  0.33219382279E+03  0.84595451089E+02 0.  0.
          5    1    5    5  501    0 -0.14432852146E+02 -0.55683097077E+02 -0.27366200551E+02  0.63874200220E+02  0.47000000000E+01 0. -1.
        -11    1    6    6    0    0  0.13882195670E+02  0.21357711029E+01 -0.11324676993E+02  0.18042316476E+02  0.00000000000E+00 0.  1.
         12    1    6    6    0    0 -0.93152481628E+02 -0.64985559804E+01 -0.29995258435E+03  0.31415150631E+03  0.00000000000E+00 0. -1.
         -5    1    3    3    0  503 -0.35635884789E+02  0.29996496146E+02 -0.19702317800E+03  0.20250908309E+03  0.47000000000E+01 0.  1.
         13    1    4    4    0    0  0.53728485552E+02  0.53927042293E+02 -0.40813056290E+03  0.41516916122E+03  0.00000000000E+00 0. -1.
        -14    1    4    4    0    0  0.75610537341E+02 -0.23877656484E+02 -0.50641782573E+03  0.51258766085E+03  0.00000000000E+00 0.  1.
</event>
<event>
12    1  0.8526130E-002  0.2413744E+03  0.7818608E-02  0.1120369E+00
         21   -1    0    0  501  502  0.00000000000E+00  0.00000000000E+00  0.15331984387E+03  0.15331984387E+03  0.00000000000E+00 0.  1.
         21   -1    0    0  502  503 -0.00000000000E+00 -0.00000000000E+00 -0.44230635659E+03  0.44230635659E+03  0.00000000000E+00 0.  1.
         -6    2    1    2    0  503 -0.12776437651E+03  0.89469701993E+02 -0.27020902407E+03  0.36231824286E+03  0.18420919886E+03 0.  0.
        -24    2    3    3    0    0 -0.85809998255E+02  0.21708140060E+02 -0.25437721737E+03  0.28092699497E+03  0.79859931399E+02 0.  0.
          6    2    1    2  501    0  0.12776437651E+03 -0.89469701993E+02 -0.18777488651E+02  0.23330795760E+03  0.17248607340E+03 0.  0.
         24    2    5    5    0    0  0.10811162761E+03 -0.12195514486E+03  0.25938966499E+02  0.17445911820E+03  0.56585974901E+02 0.  0.
          5    1    5    5  501    0  0.19652748893E+02  0.32485442868E+02 -0.44716455150E+02  0.58848839398E+02  0.47000000000E+01 0. -1.
        -11    1    6    6    0    0  0.19943258613E+02 -0.61347102009E+02  0.18983429973E+02  0.67242628611E+02  0.00000000000E+00 0.  1.
         12    1    6    6    0    0  0.88168369001E+02 -0.60608042853E+02  0.69555365257E+01  0.10721648959E+03  0.00000000000E+00 0. -1.
         -5    1    3    3    0  503 -0.41954378251E+02  0.67761561934E+02 -0.15831806704E+02  0.81391247894E+02  0.47000000000E+01 0.  1.
         13    1    4    4    0    0 -0.19897072831E+02 -0.60707043798E+01 -0.48637176593E+01  0.21363583697E+02  0.00000000000E+00 0. -1.
        -14    1    4    4    0    0 -0.65912925425E+02  0.27778844439E+02 -0.24951349971E+03  0.25956341127E+03  0.00000000000E+00 0.  1.
</event>
<event>
12    1  0.8526130E-002  0.1759147E+03  0.7818608E-02  0.1172044E+00
         21   -1    0    0  503  502  0.00000000000E+00  0.00000000000E+00  0.11226956640E+04  0.11226956640E+04  0.00000000000E+00 0. -1.
         21   -1    0    0  501  503 -0.00000000000E+00 -0.00000000000E+00 -0.61837946955E+02  0.61837946955E+02  0.00000000000E+00 0. -1.
          6    2    1    2  501    0  0.26416276445E+02  0.15993212435E+02  0.87970753578E+02  0.19587035223E+03  0.17225776874E+03 0.  0.
         24    2    3    3    0    0  0.40932023013E+02 -0.43893931177E+02  0.87994305698E+02  0.13407013036E+03  0.81422934829E+02 0.  0.
         -6    2    1    2    0  502 -0.26416276445E+02 -0.15993212435E+02  0.97288696349E+03  0.98866325875E+03  0.17318311977E+03 0.  0.
        -24    2    5    5    0    0 -0.81963558978E+02  0.10890080805E+02  0.65608637308E+03  0.66587398363E+03  0.78116670879E+02 0.  0.
          5    1    3    3  501    0 -0.14515746568E+02  0.59887143612E+02 -0.23552120055E-01  0.61800221870E+02  0.47000000000E+01 0. -1.
        -13    1    4    4    0    0 -0.32020666873E+01 -0.17298022496E+02  0.80017063383E+02  0.81928049200E+02  0.00000000000E+00 0.  1.
         14    1    4    4    0    0  0.44134089700E+02 -0.26595908681E+02  0.79772423149E+01  0.52142081155E+02  0.00000000000E+00 0. -1.
         -5    1    5    5    0  502  0.55547282533E+02 -0.26883293240E+02  0.31680059041E+03  0.32278927512E+03  0.47000000000E+01 0.  1.
         13    1    6    6    0    0  0.37102991015E+01 -0.21726155438E+02  0.13390788762E+03  0.13570966994E+03  0.00000000000E+00 0. -1.
        -14    1    6    6    0    0 -0.85673858079E+02  0.32616236243E+02  0.52217848546E+03  0.53016431368E+03  0.00000000000E+00 0.  1.
</event>
<event>
12    1  0.8526130E-002  0.2300770E+03  0.7818608E-02  0.1127660E+00
         21   -1    0    0  503  502  0.00000000000E+00  0.00000000000E+00  0.62316943947E+03  0.62316943947E+03  0.00000000000E+00 0.  1.
         21   -1    0    0  501  503 -0.00000000000E+00 -0.00000000000E+00 -0.17995939473E+03  0.17995939473E+03  0.00000000000E+00 0. -1.
          6    2    1    2  501    0  0.49035658241E+02 -0.14518621124E+03 -0.74889887548E+02  0.23623997988E+03  0.16345427839E+03 0.  0.
         24    2    3    3    0    0  0.13781444093E+02 -0.11980567724E+03 -0.10672163564E+03  0.18218092599E+03  0.85188342982E+02 0.  0.
         -6    2    1    2    0  502 -0.49035658241E+02  0.14518621124E+03  0.51809993229E+03  0.56688885433E+03  0.17161556343E+03 0.  0.
        -24    2    5    5    0    0 -0.56166562993E+02  0.16802015186E+03  0.39067670465E+03  0.43715448113E+03  0.84203910766E+02 0.  0.
          5    1    3    3  501    0  0.35254214148E+02 -0.25380533994E+02  0.31831748090E+02  0.54059053890E+02  0.47000000000E+01 0. -1.
        -13    1    4    4    0    0  0.21580270324E+02  0.16589672758E+01 -0.34275516596E+02  0.40537282563E+02  0.00000000000E+00 0.  1.
         14    1    4    4    0    0 -0.77988262303E+01 -0.12146464452E+03 -0.72446119042E+02  0.14164364343E+03  0.00000000000E+00 0. -1.
         -5    1    5    5    0  502  0.71309047522E+01 -0.22833940618E+02  0.12742322764E+03  0.12973437320E+03  0.47000000000E+01 0.  1.
         11    1    6    6    0    0  0.10749793611E+02  0.75823207876E+01  0.49295165557E+01  0.14048123885E+02  0.00000000000E+00 0. -1.
        -12    1    6    6    0    0 -0.66916356605E+02  0.16043783107E+03  0.38574718809E+03  0.42310635724E+03  0.00000000000E+00 0.  1.
</event>
<event>
12    1  0.8526130E-002  0.2324676E+03  0.7818608E-02  0.1125047E+00
         21   -1    0    0  501  502  0.00000000000E+00  0.00000000000E+00  0.24703962640E+03  0.24703962640E+03  0.00000000000E+00 0. -1.
         21   -1    0    0  502  503 -0.00000000000E+00 -0.00000000000E+00 -0.24126747330E+03  0.24126747330E+03  0.00000000000E+00 0. -1.
         -6    2    1    2    0  503  0.36804318700E+02 -0.15085937473E+03  0.78637596265E+02  0.24468741356E+03  0.17197368982E+03 0.  0.
        -24    2    3    3    0    0  0.53802013123E+02 -0.24965519622E+02  0.58553103857E+02  0.11598752543E+03  0.80664157453E+02 0.  0.
          6    2    1    2  501    0 -0.36804318700E+02  0.15085937473E+03 -0.72865443166E+02  0.24361968614E+03  0.17299731168E+03 0.  0.
         24    2    5    5    0    0 -0.35827690961E+02  0.12331194679E+03 -0.11888215709E+03  0.18977321412E+03  0.73426465684E+02 0.  0.
          5    1    5    5  501    0 -0.97662773956E+00  0.27547427938E+02  0.46016713926E+02  0.53846472013E+02  0.47000000000E+01 0. -1.
        -11    1    6    6    0    0 -0.29971803531E+01 -0.46014553785E+01  0.59181462388E+01  0.80734711601E+01  0.00000000000E+00 0.  1.
         12    1    6    6    0    0 -0.32830510607E+02  0.12791340217E+03 -0.12480030333E+03  0.18169974296E+03  0.00000000000E+00 0. -1.
         -5    1    3    3    0  503 -0.16997694423E+02 -0.12589385511E+03  0.20084492408E+02  0.12869988813E+03  0.47000000000E+01 0.  1.
         11    1    4    4    0    0  0.11345478835E+02 -0.39096063090E+02 -0.19264091915E+01  0.40754546881E+02  0.00000000000E+00 0. -1.
        -12    1    4    4    0    0  0.42456534288E+02  0.14130543468E+02  0.60479513049E+02  0.75232978547E+02  0.00000000000E+00 0.  1.
</event>
<event>
12    1  0.8526130E-002  0.1861213E+03  0.7818608E-02  0.1162077E+00
         21   -1    0    0  503  502  0.00000000000E+00  0.00000000000E+00  0.17845066658E+03  0.17845066658E+03  0.00000000000E+00 0. -1.
         21   -1    0    0  501  503 -0.00000000000E+00 -0.00000000000E+00 -0.19819183956E+03  0.19819183956E+03  0.00000000000E+00 0.  1.
          6    2    1    2  501    0  0.19490658973E+02  0.64708467323E+02 -0.37882319366E+02  0.18963917477E+03  0.17309209964E+03 0.  0.
         24    2    3    3    0    0  0.15019248414E+02  0.59988000304E+02 -0.91001170858E+02  0.13591786890E+03  0.79801729208E+02 0.  0.
         -6    2    1    2    0  502 -0.19490658973E+02 -0.64708467323E+02  0.18141146390E+02  0.18700333136E+03  0.17341877989E+03 0.  0.
        -24    2    5    5    0    0  0.52136097495E+01 -0.58288223880E+02  0.73588653671E+02  0.12578212195E+03  0.83553297256E+02 0.  0.
          5    1    3    3  501    0  0.44714105585E+01  0.47204670185E+01  0.53118851492E+02  0.53721305877E+02  0.47000000000E+01 0. -1.
        -11    1    4    4    0    0 -0.18859501429E+02 -0.10473040819E+02 -0.11631168678E+02  0.24508150949E+02  0.00000000000E+00 0.  1.
         12    1    4    4    0    0  0.33878749843E+02  0.70461041124E+02 -0.79370002180E+02  0.11140971795E+03  0.00000000000E+00 0. -1.
         -5    1    5    5    0  502 -0.24704268722E+02 -0.64202434430E+01 -0.55447507281E+02  0.61221209418E+02  0.47000000000E+01 0.  1.
         13    1    6    6    0    0 -0.22608552847E+02 -0.66701674281E+02  0.38662893689E+02  0.80343508525E+02  0.00000000000E+00 0. -1.
        -14    1    6    6    0    0  0.27822162597E+02  0.84134504012E+01  0.34925759982E+02  0.45438613420E+02  0.00000000000E+00 0.  1.
</event>
<event>
12    1  0.8526130E-002  0.1765790E+03  0.7818608E-02  0.1171246E+00
         21   -1    0    0  503  502  0.00000000000E+00  0.00000000000E+00  0.22047373503E+03  0.22047373503E+03  0.00000000000E+00 0.  1.
         21   -1    0    0  501  503 -0.00000000000E+00 -0.00000000000E+00 -0.28274896767E+03  0.28274896767E+03  0.00000000000E+00 0.  1.
          6    2    1    2  501    0 -0.26983068146E+02  0.28207909811E+02 -0.20922194959E+03  0.27377719953E+03  0.17221021645E+03 0.  0.
         24    2    3    3    0    0 -0.51732885853E+01 -0.51916831037E+02 -0.10916564670E+03  0.14366573067E+03  0.77463433248E+02 0.  0.
         -6    2    1    2    0  502  0.26983068146E+02 -0.28207909811E+02  0.14694671695E+03  0.22944550318E+03  0.17183750802E+03 0.  0.
        -24    2    5    5    0    0 -0.42455122776E+02 -0.33734522151E+02  0.46742910539E+02  0.10731811632E+03  0.79948877223E+02 0.  0.
          5    1    3    3  501    0 -0.21809779561E+02  0.80124740848E+02 -0.10005630288E+03  0.13011146885E+03  0.47000000000E+01 0. -1.
        -11    1    4    4    0    0 -0.50699403345E+00 -0.38825827270E+02 -0.11994766336E+03  0.12607594478E+03  0.00000000000E+00 0.  1.
         12    1    4    4    0    0 -0.46662945519E+01 -0.13091003768E+02  0.10782016661E+02  0.17589785893E+02  0.00000000000E+00 0. -1.
         -5    1    5    5    0  502  0.69438190922E+02  0.55266123397E+01  0.10020380641E+03  0.12212738686E+03  0.47000000000E+01 0.  1.
         11    1    6    6    0    0  0.21072244671E+02 -0.44073302721E+01 -0.26214296090E+01  0.21687230086E+02  0.00000000000E+00 0. -1.
        -12    1    6    6    0    0 -0.63527367447E+02 -0.29327191879E+02  0.49364340148E+02  0.85630886230E+02  0.00000000000E+00 0.  1.
</event>
<event>
12    1  0.8526130E-002  0.2224299E+03  0.7818608E-02  0.1132166E+00
         21   -1    0    0  503  502  0.00000000000E+00  0.00000000000E+00  0.16247596942E+04  0.16247596942E+04  0.00000000000E+00 0. -1.
         21   -1    0    0  501  503 -0.00000000000E+00 -0.00000000000E+00 -0.32969778548E+02  0.32969778548E+02  0.00000000000E+00 0.  1.
          6    2    1    2  501    0 -0.10671991171E+03 -0.91990295154E+02  0.10270286888E+04  0.10507448766E+04  0.17153866654E+03 0.  0.
         24    2    3    3    0    0 -0.34477903573E+02 -0.11728350336E+03  0.64354642755E+03  0.65967021772E+03  0.77901513084E+02 0.  0.
         -6    2    1    2    0  502  0.10671991171E+03  0.91990295154E+02  0.56476122690E+03  0.60698459620E+03  0.17211537600E+03 0.  0.
        -24    2    5    5    0    0  0.48894491847E+02  0.27237824399E+02  0.46191180645E+03  0.47231182635E+03  0.81137993336E+02 0.  0.
          5    1    3    3  501    0 -0.72242008137E+02  0.25293208207E+02  0.38348226123E+03  0.39107465885E+03  0.47000000000E+01 0. -1.
        -11    1    4    4    0    0  0.17725856080E+02 -0.37105129157E+02  0.10640799689E+03  0.11407742277E+03  0.00000000000E+00 0.  1.
         12    1    4    4    0    0 -0.52203759653E+02 -0.80178374204E+02  0.53713843066E+03  0.54559279495E+03  0.00000000000E+00 0. -1.
         -5    1    5    5    0  502  0.57825419863E+02  0.64752470754E+02  0.10284942045E+03  0.13467276984E+03  0.47000000000E+01 0.  1.
         13    1    6    6    0    0  0.38236127917E+02 -0.23747392802E+02  0.17407080429E+03  0.17979595393E+03  0.00000000000E+00 0. -1.
        -14    1    6    6    0    0  0.10658363930E+02  0.50985217201E+02  0.28784100216E+03  0.29251587243E+03  0.00000000000E+00 0.  1.
</event>
<event>
12    1  0.8526130E-002  0.1764753E+03  0.7818608E-02  0.1171897E+00
         21   -1    0    0  501  502  0.00000000000E+00  0.00000000000E+00  0.51267236327E+02  0.51267236327E+02  0.00000000000E+00 0.  1.
         21   -1    0    0  502  503 -0.00000000000E+00 -0.00000000000E+00 -0.63113440552E+03  0.63113440552E+03  0.00000000000E+00 0.  1.
         -6    2    1    2    0  503 -0.17412101384E+02 -0.17080444007E+02 -0.21461369894E+03  0.27785350440E+03  0.17478159885E+03 0.  0.
        -24    2    3    3    0    0  0.11937512387E+02  0.49344510242E+02 -0.87078893646E+02  0.13101723185E+03  0.83698246283E+02 0.  0.
          6    2    1    2  501    0  0.17412101384E+02  0.17080444007E+02 -0.36525347026E+03  0.40454813745E+03  0.17220387665E+03 0.  0.
         24    2    5    5    0    0  0.78353216789E+02  0.10777046229E+02 -0.23140232884E+03  0.25726687445E+03  0.79898908570E+02 0.  0.
          5    1    5    5  501    0 -0.60941115405E+02  0.63033977777E+01 -0.13385114142E+03  0.14728126299E+03  0.47000000000E+01 0. -1.
        -11    1    6    6    0    0  0.10633875431E+02  0.35978487473E+02 -0.54383798536E+02  0.66069118435E+02  0.00000000000E+00 0.  1.
         12    1    6    6    0    0  0.67719341358E+02 -0.25201441244E+02 -0.17701853031E+03  0.19119775602E+03  0.00000000000E+00 0. -1.
         -5    1    3    3    0  503 -0.29349613771E+02 -0.66424954249E+02 -0.12753480529E+03  0.14683627255E+03  0.47000000000E+01 0.  1.
         13    1    4    4    0    0 -0.32335155925E+00  0.37885598549E+02  0.42816379422E+01  0.38128146521E+02  0.00000000000E+00 0. -1.
        -14    1    4    4    0    0  0.12260863947E+02  0.11458911694E+02 -0.91360531588E+02  0.92889085333E+02  0.00000000000E+00 0.  1.
</event>
<event>
12    1  0.8526130E-002  0.2034252E+03  0.7818608E-02  0.1147889E+00
         21   -1    0    0  503  502  0.00000000000E+00  0.00000000000E+00  0.59072486119E+03  0.59072486119E+03  0.00000000000E+00 0.  1.
         21   -1    0    0  501  503 -0.00000000000E+00 -0.00000000000E+00 -0.21737961021E+03  0.21737961021E+03  0.00000000000E+00 0.  1.
          6    2    1    2  501    0 -0.90983173054E+02 -0.49144139898E+02 -0.14711049016E+03  0.25104444706E+03  0.17518200198E+03 0.  0.
         24    2    3    3    0    0 -0.24726148616E+02 -0.37001962546E+02 -0.15795891077E+03  0.18265436015E+03  0.80193953218E+02 0.  0.
         -6    2    1    2    0  502  0.90983173054E+02  0.49144139898E+02  0.52045574115E+03  0.55706002434E+03  0.16955414464E+03 0.  0.
        -24    2    5    5    0    0 -0.84172203043E+01  0.14015380667E+02  0.13877655677E+03  0.16106058279E+03  0.80089313435E+02 0.  0.
          5    1    3    3  501    0 -0.66257024438E+02 -0.12142177351E+02  0.10848420604E+02  0.68390086912E+02  0.47000000000E+01 0. -1.
        -13    1    4    4    0    0 -0.15604773213E+02  0.24296436291E+02 -0.39074027582E+02  0.48586061736E+02  0.00000000000E+00 0.  1.
         14    1    4    4    0    0 -0.91213754025E+01 -0.61298398838E+02 -0.11888488318E+03  0.13406829841E+03  0.00000000000E+00 0. -1.
         -5    1    5    5    0  502  0.99400393358E+02  0.35128759231E+02  0.38167918438E+03  0.39599944156E+03  0.47000000000E+01 0.  1.
         13    1    6    6    0    0 -0.22006214457E+02 -0.28748895952E+02  0.72283913370E+02  0.80843902833E+02  0.00000000000E+00 0. -1.
        -14    1    6    6    0    0  0.13588994153E+02  0.42764276619E+02  0.66492643398E+02  0.80216679954E+02  0.00000000000E+00 0.  1.
</event>
<event>
12    1  0.8526130E-002  0.1736926E+03  0.7818608E-02  0.1175013E+00
         21   -1    0    0  501  502  0.00000000000E+00  0.00000000000E+00  0.36309709394E+02  0.36309709394E+02  0.00000000000E+00 0.  1.
         21   -1    0    0  502  503 -0.00000000000E+00 -0.00000000000E+00 -0.92937331658E+03  0.92937331658E+03  0.00000000000E+00 0.  1.
         -6    2    1    2    0  503 -0.55693966073E+01  0.25916069466E+02 -0.62161948213E+03  0.64543000493E+03  0.17165794435E+03 0.  0.
        -24    2    3    3    0    0 -0.33643174161E+02  0.56832695109E+02 -0.24261983353E+03  0.26410757132E+03  0.80787419862E+02 0.  0.
          6    2    1    2  501    0  0.55693966073E+01 -0.25916069466E+02 -0.27144412505E+03  0.32025302105E+03  0.16786132261E+03 0.  0.
         24    2    5    5    0    0 -0.20800031181E+02 -0.66050813159E+02 -0.23996490272E+03  0.26264073233E+03  0.81250529361E+02 0.  0.
          5    1    5    5  501    0  0.26369427788E+02  0.40134743693E+02 -0.31479222331E+02  0.57612288721E+02  0.47000000000E+01 0. -1.
        -11    1    6    6    0    0 -0.19634854943E+02 -0.44033935854E+02 -0.43481605329E+02  0.64924302364E+02  0.00000000000E+00 0.  1.
         12    1    6    6    0    0 -0.11651762380E+01 -0.22016877305E+02 -0.19648329739E+03  0.19771642996E+03  0.00000000000E+00 0. -1.
         -5    1    3    3    0  503  0.28073777554E+02 -0.30916625643E+02 -0.37899964860E+03  0.38132243360E+03  0.47000000000E+01 0.  1.
         13    1    4    4    0    0  0.16770226690E+02 -0.95264013478E+01 -0.66948192779E+02  0.69671036610E+02  0.00000000000E+00 0. -1.
        -14    1    4    4    0    0 -0.50413400851E+02  0.66359096456E+02 -0.17567164075E+03  0.19443653471E+03  0.00000000000E+00 0.  1.
</event>
<event>
12    1  0.8526130E-002  0.2043399E+03  0.7818608E-02  0.1146995E+00
         21   -1    0    0  503  502  0.00000000000E+00  0.00000000000E+00  0.32061716536E+03  0.32061716536E+03  0.00000000000E+00 0.  1.
         21   -1    0    0  501  503 -0.00000000000E+00 -0.00000000000E+00 -0.13928264012E+03  0.13928264012E+03  0.00000000000E+00 0.  1.
          6    2    1    2  501    0 -0.24180558721E+02  0.99216591498E+02  0.24883177837E+02  0.20584938266E+03  0.17699198952E+03 0.  0.
         24    2    3    3    0    0  0.49874756846E+02  0.26379241838E+02  0.12368266905E+02  0.10112029279E+03  0.82999902514E+02 0.  0.
         -6    2    1    2    0  502  0.24180558721E+02 -0.99216591498E+02  0.15645134740E+03  0.25405042283E+03  0.17215098544E+03 0.  0.
        -24    2    5    5    0    0  0.32087486276E+02 -0.10953726052E+03  0.17534919897E+03  0.23063558765E+03  0.97043363962E+02 0.  0.
          5    1    3    3  501    0 -0.74055315567E+02  0.72837349661E+02  0.12514910932E+02  0.10472908987E+03  0.47000000000E+01 0. -1.
        -13    1    4    4    0    0  0.18768920789E+02  0.54985087522E+02  0.74172268706E+01  0.58571729459E+02  0.00000000000E+00 0.  1.
         14    1    4    4    0    0  0.31105836057E+02 -0.28605845684E+02  0.49510400347E+01  0.42548563331E+02  0.00000000000E+00 0. -1.
         -5    1    5    5    0  502 -0.79069275550E+01  0.10320669026E+02 -0.18897851573E+02  0.23414835182E+02  0.47000000000E+01 0.  1.
         11    1    6    6    0    0  0.11222593777E+02  0.10582584265E+02  0.62946369326E+02  0.64808819710E+02  0.00000000000E+00 0. -1.
        -12    1    6    6    0    0  0.20864892499E+02 -0.12011984479E+03  0.11240282965E+03  0.16582676794E+03  0.00000000000E+00 0.  1.
</event>
<event>
12    1  0.8526130E-002  0.1897136E+03  0.7818608E-02  0.1158840E+00
         21   -1    0    0  501  502  0.00000000000E+00  0.00000000000E+00  0.64286170556E+03  0.64286170556E+03  0.00000000000E+00 0.  1.
         21   -1    0    0  502  503 -0.00000000000E+00 -0.00000000000E+00 -0.57669121795E+02  0.57669121795E+02  0.00000000000E+00 0. -1.
         -6    2    1    2    0  503 -0.77320263163E+02  0.73977690196E+00  0.22963632036E+03  0.29752771342E+03  0.17265842076E+03 0.  0.
        -24    2    3    3    0    0 -0.83005296447E+02 -0.42064727369E+02  0.22213739488E+03  0.25344972489E+03  0.78945679530E+02 0.  0.
          6    2    1    2  501    0  0.77320263163E+02 -0.73977690196E+00  0.35555626341E+03  0.40300311394E+03  0.17324053518E+03 0.  0.
         24    2    5    5    0    0  0.31809299630E+02 -0.45500152766E+02  0.30862659372E+03  0.32363546974E+03  0.80046533184E+02 0.  0.
          5    1    5    5  501    0  0.45510963533E+02  0.44760375864E+02  0.46929669688E+02  0.79367644202E+02  0.47000000000E+01 0. -1.
        -13    1    6    6    0    0  0.30698112897E+02  0.70761621755E+01  0.20523114592E+03  0.20763494277E+03  0.00000000000E+00 0.  1.
         14    1    6    6    0    0  0.11111867325E+01 -0.52576314942E+02  0.10339544781E+03  0.11600052696E+03  0.00000000000E+00 0. -1.
         -5    1    3    3    0  503  0.56850332846E+01  0.42804504271E+02  0.74989254791E+01  0.44077988528E+02  0.47000000000E+01 0.  1.
         11    1    4    4    0    0 -0.84312690618E+01  0.19774561646E+02  0.20302686821E+02  0.29568880236E+02  0.00000000000E+00 0. -1.
        -12    1    4    4    0    0 -0.74574027385E+02 -0.61839289015E+02  0.20183470806E+03  0.22388084465E+03  0.00000000000E+00 0.  1.
</event>
<event>
12    1  0.8526130E-002  0.2427829E+03  0.7818608E-02  0.1118128E+00
         21   -1    0    0  503  502  0.00000000000E+00  0.00000000000E+00  0.14262950142E+04  0.14262950142E+04  0.00000000000E+00 0.  1.
         21   -1    0    0  501  503 -0.00000000000E+00 -0.00000000000E+00 -0.51716959484E+02  0.51716959484E+02  0.00000000000E+00 0.  1.
          6    2    1    2  501    0  0.14464667491E+03 -0.93179732763E+02  0.35195301185E+03  0.42696226088E+03  0.16976668255E+03 0.  0.
         24    2    3    3    0    0  0.18303990227E+02 -0.12372144087E+02  0.18631604279E+03  0.20346721422E+03  0.78721874058E+02 0.  0.
         -6    2    1    2    0  502 -0.14464667491E+03  0.93179732763E+02  0.10226250429E+04  0.10510497128E+04  0.17128455076E+03 0.  0.
        -24    2    5    5    0    0 -0.76339126320E+02  0.11900961869E+03  0.57830249192E+03  0.60074123689E+03  0.80407151362E+02 0.  0.
          5    1    3    3  501    0  0.12634268469E+03 -0.80807588676E+02  0.16563696907E+03  0.22349504666E+03  0.47000000000E+01 0. -1.
        -13    1    4    4    0    0  0.39877607349E+02 -0.21184261523E+02  0.60402214618E+02  0.75415011999E+02  0.00000000000E+00 0.  1.
         14    1    4    4    0    0 -0.21573617122E+02  0.88121174357E+01  0.12591382817E+03  0.12805220222E+03  0.00000000000E+00 0. -1.
         -5    1    5    5    0  502 -0.68307548594E+02 -0.25829885931E+02  0.44432255096E+03  0.45030847593E+03  0.47000000000E+01 0.  1.
         13    1    6    6    0    0  0.11968195740E+02  0.37046562576E+02  0.19867147255E+03  0.20245009141E+03  0.00000000000E+00 0. -1.
        -14    1    6    6    0    0 -0.88307322059E+02  0.81963056118E+02  0.37963101938E+03  0.39829114549E+03  0.00000000000E+00 0.  1.
</event>
<event>
12    1  0.8526130E-002  0.1904092E+03  0.7818608E-02  0.1158347E+00
         21   -1    0    0  503  502  0.00000000000E+00  0.00000000000E+00  0.25713018520E+04  0.25713018520E+04  0.00000000000E+00 0. -1.
         21   -1    0    0  501  503 -0.00000000000E+00 -0.00000000000E+00 -0.32803092576E+02  0.32803092576E+02  0.00000000000E+00 0. -1.
          6    2    1    2  501    0 -0.32554953782E+02  0.74144589120E+02  0.28550797230E+03  0.34317702586E+03  0.17233230608E+03 0.  0.
         24    2    3    3    0    0 -0.55377703747E+02 -0.15003297961E+02  0.14604311788E+03  0.17602212971E+03  0.79770977473E+02 0.  0.
         -6    2    1    2    0  502  0.32554953782E+02 -0.74144589120E+02  0.22529907871E+04  0.22609279187E+04  0.17108571435E+03 0.  0.
        -24    2    5    5    0    0  0.16617274689E+01 -0.10925027704E+03  0.18999906032E+04  0.19048127398E+04  0.80055589069E+02 0.  0.
          5    1    3    3  501    0  0.22822749965E+02  0.89147887081E+02  0.13946485442E+03  0.16715489615E+03  0.47000000000E+01 0. -1.
        -11    1    4    4    0    0  0.15128325721E+02  0.14948040447E+02  0.25594894693E+02  0.33277752127E+02  0.00000000000E+00 0.  1.
         12    1    4    4    0    0 -0.70506029468E+02 -0.29951338407E+02  0.12044822319E+03  0.14274437759E+03  0.00000000000E+00 0. -1.
         -5    1    5    5    0  502  0.30893226313E+02  0.35105687920E+02  0.35300018394E+03  0.35611517887E+03  0.47000000000E+01 0.  1.
         13    1    6    6    0    0 -0.17269942706E+02 -0.42622651238E+02  0.13040013714E+04  0.13048120623E+04  0.00000000000E+00 0. -1.
        -14    1    6    6    0    0  0.18931670175E+02 -0.66627625802E+02  0.59598923180E+03  0.60000067756E+03  0.00000000000E+00 0.  1.
</event>
<event>
12    1  0.8526130E-002  0.2019523E+03  0.7818608E-02  0.1149195E+00
         21   -1    0    0  503  502  0.00000000000E+00  0.00000000000E+00  0.38553516440E+03  0.38553516440E+03  0.00000000000E+00 0. -1.
         21   -1    0    0  501  503 -0.00000000000E+00 -0.00000000000E+00 -0.13350758434E+03  0.13350758434E+03  0.00000000000E+00 0. -1.
          6    2    1    2  501    0 -0.93325173224E+02  0.94565683433E+01  0.89121311802E+00  0.19677856929E+03  0.17297975728E+03 0.  0.
         24    2    3    3    0    0 -0.18968749054E+02  0.42874421347E+02  0.45860233183E+02  0.10355875658E+03  0.80145028735E+02 0.  0.
         -6    2    1    2    0  502  0.93325173224E+02 -0.94565683433E+01  0.25113636695E+03  0.32226417945E+03  0.17884549732E+03 0.  0.
        -24    2    5    5    0    0  0.10998022816E+03  0.37450951471E+02  0.14126734795E+03  0.20155379214E+03  0.84671383457E+02 0.  0.
          5    1    3    3  501    0 -0.74356424170E+02 -0.33417853004E+02 -0.44969020065E+02  0.93219812703E+02  0.47000000000E+01 0. -1.
        -13    1    4    4    0    0 -0.74885743259E+01 -0.23921416971E+02  0.13035919967E+02  0.28253285556E+02  0.00000000000E+00 0.  1.
         14    1    4    4    0    0 -0.11480174728E+02  0.66795838318E+02  0.32824313216E+02  0.75305471027E+02  0.00000000000E+00 0. -1.
         -5    1    5    5    0  502 -0.16655054937E+02 -0.46907519814E+02  0.10986901900E+03  0.12071038731E+03  0.47000000000E+01 0.  1.
         11    1    6    6    0    0  0.32303810042E+02  0.16827559528E+02  0.10904464365E+03  0.11496711360E+03  0.00000000000E+00 0. -1.
        -12    1    6    6    0    0  0.77676418119E+02  0.20623391943E+02  0.32222704306E+02  0.86586678536E+02  0.00000000000E+00 0.  1.
</event>
<event>
12    1  0.8526130E-002  0.1938726E+03  0.7818608E-02  0.1156150E+00
         21   -1    0    0  501  502  0.00000000000E+00  0.00000000000E+00  0.30399596370E+02  0.30399596370E+02  0.00000000000E+00 0. -1.
         21   -1    0    0  502  503 -0.00000000000E+00 -0.00000000000E+00 -0.28601329078E+04  0.28601329078E+04  0.00000000000E+00 0. -1.
         -6    2    1    2    0  503 -0.41036691909E+02 -0.77239007074E+02 -0.25224885653E+04  0.25299278945E+04  0.17302229597E+03 0.  0.
        -24    2    3    3    0    0 -0.55967221220E+01 -0.10120476512E+03 -0.22803020162E+04  0.22839466684E+04  0.79758204850E+02 0.  0.
          6    2    1    2  501    0  0.41036691909E+02  0.77239007074E+02 -0.30724474611E+03  0.36060460967E+03  0.16729159037E+03 0.  0.
         24    2    5    5    0    0  0.25943205532E+02  0.76901026386E+02 -0.96844635912E+02  0.14961118813E+03  0.80111212301E+02 0.  0.
          5    1    5    5  501    0  0.15093486377E+02  0.33798068759E+00 -0.21040011020E+03  0.21099342154E+03  0.47000000000E+01 0. -1.
        -13    1    6    6    0    0  0.19237533323E+02  0.24815268647E+02 -0.91602709111E+02  0.96834583507E+02  0.00000000000E+00 0.  1.
         14    1    6    6    0    0  0.67056722092E+01  0.52085757739E+02 -0.52419268011E+01  0.52776604624E+02  0.00000000000E+00 0. -1.
         -5    1    3    3    0  503 -0.35439969787E+02  0.23965758051E+02 -0.24218654912E+03  0.24598122610E+03  0.47000000000E+01 0.  1.
         13    1    4    4    0    0 -0.60372282363E+01 -0.57045596097E+02 -0.53141004340E+03  0.53449722393E+03  0.00000000000E+00 0. -1.
        -14    1    4    4    0    0  0.44050611430E+00 -0.44159169028E+02 -0.17488919728E+04  0.17494494444E+04  0.00000000000E+00 0.  1.
</event>
<event>
12    1  0.8526130E-002  0.2724477E+03  0.7818608E-02  0.1099899E+00
         21   -1    0    0  503  502  0.00000000000E+00  0.00000000000E+00  0.57878975548E+02  0.57878975548E+02  0.00000000000E+00 0.  1.
         21   -1    0    0  501  503 -0.00000000000E+00 -0.00000000000E+00 -0.15929090349E+04  0.15929090349E+04  0.00000000000E+00 0.  1.
          6    2    1    2  501    0 -0.19909757180E+03 -0.58915381378E+02 -0.11320371514E+04  0.11643406555E+04  0.17626736704E+03 0.  0.
         24    2    3    3    0    0 -0.15387027376E+03 -0.47050123532E+01 -0.51559255162E+03  0.54384866750E+03  0.78977816936E+02 0.  0.
         -6    2    1    2    0  502  0.19909757180E+03  0.58915381378E+02 -0.40299290792E+03  0.48644735490E+03  0.17639977322E+03 0.  0.
        -24    2    5    5    0    0  0.19491080233E+03  0.13048345653E+02 -0.25356336755E+03  0.33001017409E+03  0.80323430253E+02 0.  0.
          5    1    3    3  501    0 -0.45227298047E+02 -0.54210369025E+02 -0.61644459978E+03  0.62049198802E+03  0.47000000000E+01 0. -1.
        -11    1    4    4    0    0 -0.12735636760E+03  0.17320651392E+02 -0.46637331646E+03  0.48375998144E+03  0.00000000000E+00 0.  1.
         12    1    4    4    0    0 -0.26513906158E+02 -0.22025663745E+02 -0.49219235158E+02  0.60088686063E+02  0.00000000000E+00 0. -1.
         -5    1    5    5    0  502  0.41867694711E+01  0.45867035726E+02 -0.14942954037E+03  0.15643718081E+03  0.47000000000E+01 0.  1.
         11    1    6    6    0    0  0.36175272287E+02 -0.57046298418E+01 -0.10719829319E+03  0.11328136294E+03  0.00000000000E+00 0. -1.
        -12    1    6    6    0    0  0.15873553004E+03  0.18752975494E+02 -0.14636507436E+03  0.21672881114E+03  0.00000000000E+00 0.  1.
</event>
<event>
12    1  0.8526130E-002  0.2347419E+03  0.7818608E-02  0.1123502E+00
         21   -1    0    0  503  502  0.00000000000E+00  0.00000000000E+00  0.41144253934E+03  0.41144253934E+03  0.00000000000E+00 0. -1.
         21   -1    0    0  501  503 -0.00000000000E+00 -0.00000000000E+00 -0.17246922085E+03  0.17246922085E+03  0.00000000000E+00 0.  1.
          6    2    1    2  501    0 -0.12962895414E+03 -0.92417045318E+02 -0.19273067474E+02  0.23553179502E+03  0.17250854854E+03 0.  0.
         24    2    3    3    0    0 -0.14694405739E+03 -0.30779948990E+02 -0.96023859463E+01  0.17061217914E+03  0.80475764008E+02 0.  0.
         -6    2    1    2    0  502  0.12962895414E+03  0.92417045318E+02  0.25824638596E+03  0.34837996517E+03  0.17126829319E+03 0.  0.
        -24    2    5    5    0    0  0.14756085408E+03  0.11581777939E+03  0.23051756379E+03  0.30763533399E+03  0.79455571422E+02 0.  0.
          5    1    3    3  501    0  0.17315103253E+02 -0.61637096328E+02 -0.96706815281E+01  0.64919615877E+02  0.47000000000E+01 0. -1.
        -11    1    4    4    0    0 -0.50264746564E+02  0.25905562158E+02 -0.14690344833E+02  0.58424730459E+02  0.00000000000E+00 0.  1.
         12    1    4    4    0    0 -0.96679310830E+02 -0.56685511147E+02  0.50879588868E+01  0.11218744868E+03  0.00000000000E+00 0. -1.
         -5    1    5    5    0  502 -0.17931899935E+02 -0.23400734069E+02  0.27728822174E+02  0.40744631173E+02  0.47000000000E+01 0.  1.
         13    1    6    6    0    0 -0.20620861987E+01  0.28981636968E+02  0.48386157445E+02  0.56439416308E+02  0.00000000000E+00 0. -1.
        -14    1    6    6    0    0  0.14962294027E+03  0.86836142418E+02  0.18213140634E+03  0.25119591769E+03  0.00000000000E+00 0.  1.
</event>
<event>
12    1  0.8526130E-002  0.1763437E+03  0.7818608E-02  0.1174320E+00
         21   -1    0    0  501  502  0.00000000000E+00  0.00000000000E+00  0.57156405195E+03  0.57156405195E+03  0.00000000000E+00 0.  1.
         21   -1    0    0  502  503 -0.00000000000E+00 -0.00000000000E+00 -0.70197836055E+02  0.70197836055E+02  0.00000000000E+00 0.  1.
         -6    2    1    2    0  503  0.39636955754E+02  0.26335492220E+01  0.76674395110E+02  0.18191382759E+03  0.16011137986E+03 0.  0.
        -24    2    3    3    0    0 -0.12916034108E+02 -0.34864922589E+02  0.75536693311E+02  0.11717329549E+03  0.81494799684E+02 0.  0.
          6    2    1    2  501    0 -0.39636955754E+02 -0.26335492220E+01  0.42469182078E+03  0.45984806041E+03  0.17181115266E+03 0.  0.
         24    2    5    5    0    0 -0.65932984209E+02 -0.53602141535E+02  0.31643670492E+03  0.33724896324E+03  0.79901983741E+02 0.  0.
          5    1    5    5  501    0  0.26296028455E+02  0.50968592313E+02  0.10825511587E+03  0.12259909717E+03  0.47000000000E+01 0. -1.
        -13    1    6    6    0    0  0.63711029797E+01  0.15221875145E+02  0.36837142787E+02  0.40364235715E+02  0.00000000000E+00 0.  1.
         14    1    6    6    0    0 -0.72304087189E+02 -0.68824016680E+02  0.27959956213E+03  0.29688472753E+03  0.00000000000E+00 0. -1.
         -5    1    3    3    0  503  0.52552989861E+02  0.37498471811E+02  0.11377017995E+01  0.64740532103E+02  0.47000000000E+01 0.  1.
         11    1    4    4    0    0 -0.85262549042E+01 -0.11848145968E+02  0.88973104676E+02  0.90162569513E+02  0.00000000000E+00 0. -1.
        -12    1    4    4    0    0 -0.43897792034E+01 -0.23016776621E+02 -0.13436411365E+02  0.27010725977E+02  0.00000000000E+00 0.  1.
</event>
<event>
12    1  0.8526130E-002  0.2103783E+03  0.7818608E-02  0.1141364E+00
         21   -1    0    0  503  502  0.00000000000E+00  0.00000000000E+00  0.18741535223E+03  0.18741535223E+03  0.00000000000E+00 0. -1.
         21   -1    0    0  501  503 -0.00000000000E+00 -0.00000000000E+00 -0.24268417877E+03  0.24268417877E+03  0.00000000000E+00 0.  1.
          6    2    1    2  501    0  0.25826748209E+02  0.11936214816E+03 -0.64401577820E+02  0.22001498355E+03  0.17130290839E+03 0.  0.
         24    2    3    3    0    0 -0.19566844027E+02  0.11671355581E+03 -0.35176310506E+01  0.14387998351E+03  0.81756714896E+02 0.  0.
         -6    2    1    2    0  502 -0.25826748209E+02 -0.11936214816E+03  0.91327512813E+01  0.21008454745E+03  0.17069788105E+03 0.  0.
        -24    2    5    5    0    0  0.22995159821E+02 -0.12312368843E+03 -0.26652844310E+02  0.14925341446E+03  0.76668035008E+02 0.  0.
          5    1    3    3  501    0  0.45393592236E+02  0.26485923518E+01 -0.60883946769E+02  0.76135000044E+02  0.47000000000E+01 0. -1.
        -11    1    4    4    0    0 -0.46424820123E+02  0.68438011079E+02  0.17928377053E+02  0.84619453955E+02  0.00000000000E+00 0.  1.
         12    1    4    4    0    0  0.26857976096E+02  0.48275544734E+02 -0.21446008104E+02  0.59260529553E+02  0.00000000000E+00 0. -1.
         -5    1    5    5    0  502 -0.48821908030E+02  0.37615402635E+01  0.35785595591E+02  0.60831132989E+02  0.47000000000E+01 0.  1.
         11    1    6    6    0    0  0.70694522406E+01  0.10163559719E+02 -0.46599863985E+01  0.13228400295E+02  0.00000000000E+00 0. -1.
        -12    1    6    6    0    0  0.15925707580E+02 -0.13328724815E+03 -0.21992857911E+02  0.13602501417E+03  0.00000000000E+00 0.  1.
</event>
<event>
12    1  0.8526130E-002  0.1958652E+03  0.7818608E-02  0.1155578E+00
         21   -1    0    0  503  502  0.00000000000E+00  0.00000000000E+00  0.59305477984E+03  0.59305477984E+03  0.00000000000E+00 0.  1.
         21   -1    0    0  501  503 -0.00000000000E+00 -0.00000000000E+00 -0.62460622773E+02  0.62460622773E+02  0.00000000000E+00 0. -1.
          6    2    1    2  501    0 -0.44166477530E+02  0.82647257604E+02  0.30245789378E+03  0.35483394319E+03  0.16014088424E+03 0.  0.
         24    2    3    3    0    0 -0.58817619849E+02  0.90977092394E+02  0.30843305511E+03  0.33634517168E+03  0.79125098949E+02 0.  0.
         -6    2    1    2    0  502  0.44166477530E+02 -0.82647257604E+02  0.22813626329E+03  0.30068145942E+03  0.17199400712E+03 0.  0.
        -24    2    5    5    0    0  0.92459207813E+02 -0.55804388952E+02  0.10789868180E+03  0.16827340303E+03  0.70788259601E+02 0.  0.
          5    1    3    3  501    0  0.14651142319E+02 -0.83298347898E+01 -0.59751613334E+01  0.18488771507E+02  0.47000000000E+01 0. -1.
        -13    1    4    4    0    0 -0.29098546759E+02  0.91382547136E+02  0.27678350943E+03  0.29292764710E+03  0.00000000000E+00 0.  1.
         14    1    4    4    0    0 -0.29719073090E+02 -0.40545474191E+00  0.31649545685E+02  0.43417524583E+02  0.00000000000E+00 0. -1.
         -5    1    5    5    0  502 -0.48292730283E+02 -0.26842868653E+02  0.12023758149E+03  0.13240805639E+03  0.47000000000E+01 0.  1.
         13    1    6    6    0    0  0.68264266008E+01 -0.41278098819E+02  0.28757149813E+02  0.50768643941E+02  0.00000000000E+00 0. -1.
        -14    1    6    6    0    0  0.85632781212E+02 -0.14526290133E+02  0.79141531988E+02  0.11750475909E+03  0.00000000000E+00 0.  1.
</event>
<event>
12    1  0.8526130E-002  0.1871906E+03  0.7818608E-02  0.1161970E+00
         21   -1    0    0  501  502  0.00000000000E+00  0.00000000000E+00  0.11746724361E+03  0.11746724361E+03  0.00000000000E+00 0.  1.
         21   -1    0    0  502  503 -0.00000000000E+00 -0.00000000000E+00 -0.36563653523E+03  0.36563653523E+03  0.00000000000E+00 0.  1.
         -6    2    1    2    0  503  0.30111445349E+02  0.60827964949E+02 -0.23370329988E+03  0.29942874172E+03  0.17445228154E+03 0.  0.
        -24    2    3    3    0    0 -0.64008381419E+01 -0.33240903379E+02 -0.94814843552E+02  0.12769000953E+03  0.78542699152E+02 0.  0.
          6    2    1    2  501    0 -0.30111445349E+02 -0.60827964949E+02 -0.14465991741E+02  0.18367503711E+03  0.17006032423E+03 0.  0.
         24    2    5    5    0    0 -0.74738965924E+02 -0.27198938413E+01 -0.57802093375E+01  0.10974468923E+03  0.80107272737E+02 0.  0.
          5    1    5    5  501    0  0.44627520575E+02 -0.58108071108E+02 -0.86857824035E+01  0.73930347873E+02  0.47000000000E+01 0. -1.
        -11    1    6    6    0    0  0.14066352151E+02 -0.13370189437E+02 -0.59649302679E+01  0.20302822994E+02  0.00000000000E+00 0.  1.
         12    1    6    6    0    0 -0.88805318076E+02  0.10650295596E+02  0.18472093039E+00  0.89441866241E+02  0.00000000000E+00 0. -1.
         -5    1    3    3    0  503  0.36512283491E+02  0.94068868329E+02 -0.13888845633E+03  0.17173873219E+03  0.47000000000E+01 0.  1.
         11    1    4    4    0    0  0.62165589233E-02 -0.29444297655E+02  0.29957418956E+01  0.29596303360E+02  0.00000000000E+00 0. -1.
        -12    1    4    4    0    0 -0.64070547008E+01 -0.37966057241E+01 -0.97810585447E+02  0.98093706172E+02  0.00000000000E+00 0.  1.
</event>
<event>
12    1  0.8526130E-002  0.1730428E+03  0.7818608E-02  0.1175049E+00
         21   -1    0    0  501  502  0.00000000000E+00  0.00000000000E+00  0.57979225846E+03  0.57979225846E+03  0.00000000000E+00 0. -1.
         21   -1    0    0  502  503 -0.00000000000E+00 -0.00000000000E+00 -0.57442262354E+02  0.57442262354E+02  0.00000000000E+00 0. -1.
         -6    2    1    2    0  503  0.82375245566E+00  0.53139214318E+01  0.15747629258E+03  0.23397136825E+03  0.17295924985E+03 0.  0.
        -24    2    3    3    0    0 -0.34363062503E+02 -0.15945083618E+02  0.19318184628E+02  0.89749975817E+02  0.79036701257E+02 0.  0.
          6    2    1    2  501    0 -0.82375245566E+00 -0.53139214318E+01  0.36487370353E+03  0.40326315256E+03  0.17163750861E+03 0.  0.
         24    2    5    5    0    0 -0.60013552138E+02 -0.27795101176E+02  0.26610171940E+03  0.28584581706E+03  0.80768260918E+02 0.  0.
          5    1    5    5  501    0  0.59189799682E+02  0.22481179744E+02  0.98771984128E+02  0.11741733551E+03  0.47000000000E+01 0. -1.
        -13    1    6    6    0    0 -0.65040302424E+02 -0.14175039171E+02  0.10654831150E+03  0.12563325737E+03  0.00000000000E+00 0.  1.
         14    1    6    6    0    0  0.50267502863E+01 -0.13620062005E+02  0.15955340790E+03  0.16021255969E+03  0.00000000000E+00 0. -1.
         -5    1    3    3    0  503  0.35186814958E+02  0.21259005050E+02  0.13815810795E+03  0.14422139244E+03  0.47000000000E+01 0.  1.
         13    1    4    4    0    0 -0.57605182731E+02 -0.19609465712E+02  0.24599152667E+02  0.65635406107E+02  0.00000000000E+00 0. -1.
        -14    1    4    4    0    0  0.23242120228E+02  0.36643820939E+01 -0.52809680393E+01  0.24114569709E+02  0.00000000000E+00 0.  1.
</event>
<event>
12    1  0.8526130E-002  0.1764188E+03  0.7818608E-02  0.1173361E+00
         21   -1    0    0  501  502  0.00000000000E+00  0.00000000000E+00  0.45188056090E+03  0.45188056090E+03  0.00000000000E+00 0.  1.
         21   -1    0    0  502  503 -0.00000000000E+00 -0.00000000000E+00 -0.26330888039E+03  0.26330888039E+03  0.00000000000E+00 0.  1.
         -6    2    1    2    0  503 -0.20431712467E+01 -0.18447043769E+02  0.40454152918E+03  0.44133596898E+03  0.17543979227E+03 0.  0.
        -24    2    3    3    0    0  0.10753871161E+02  0.86856145578E+01  0.40304446751E+03  0.41093405069E+03  0.78935832043E+02 0.  0.
          6    2    1    2  501    0  0.20431712467E+01  0.18447043769E+02 -0.21596984868E+03  0.27385347231E+03  0.16735674706E+03 0.  0.
         24    2    5    5    0    0  0.12142338643E+01  0.16623690212E+02 -0.23794344850E+03  0.25129375501E+03  0.79079992314E+02 0.  0.
          5    1    5    5  501    0  0.82893738246E+00  0.18233535570E+01  0.21973599824E+02  0.22559717299E+02  0.47000000000E+01 0. -1.
        -11    1    6    6    0    0 -0.15242107437E+02 -0.27386337318E+02 -0.12701008520E+03  0.13082008658E+03  0.00000000000E+00 0.  1.
         12    1    6    6    0    0  0.16456341301E+02  0.44010027530E+02 -0.11093336330E+03  0.12047366843E+03  0.00000000000E+00 0. -1.
         -5    1    3    3    0  503 -0.12797042408E+02 -0.27132658326E+02  0.14970616742E+01  0.30401918293E+02  0.47000000000E+01 0.  1.
         13    1    4    4    0    0  0.18981817637E+02 -0.32233202389E+02  0.15858189455E+03  0.16293405419E+03  0.00000000000E+00 0. -1.
        -14    1    4    4    0    0 -0.82279464758E+01  0.40918816946E+02  0.24446257296E+03  0.24799999650E+03  0.00000000000E+00 0.  1.
</event>
<event>
12    1  0.8526130E-002  0.2420409E+03  0.7818608E-02  0.1118613E+00
         21   -1    0    0  503  502  0.00000000000E+00  0.00000000000E+00  0.37571201196E+03  0.37571201196E+03  0.00000000000E+00 0.  1.
         21   -1    0    0  501  503 -0.00000000000E+00 -0.00000000000E+00 -0.16364732352E+03  0.16364732352E+03  0.00000000000E+00 0. -1.
          6    2    1    2  501    0 -0.16070797654E+03  0.54010722985E+02  0.45175187146E+02  0.24622062944E+03  0.17274139314E+03 0.  0.
         24    2    3    3    0    0 -0.44831056325E+02 -0.34420831391E+02  0.12011071347E+02  0.96656098130E+02  0.77482373647E+02 0.  0.
         -6    2    1    2    0  502  0.16070797654E+03 -0.54010722985E+02  0.16688950129E+03  0.29313870605E+03  0.17127166555E+03 0.  0.
        -24    2    5    5    0    0  0.92128035642E+02  0.10193768725E+01  0.22336143225E+02  0.12387771375E+03  0.79738137610E+02 0.  0.
          5    1    3    3  501    0 -0.11587692022E+03  0.88431554376E+02  0.33164115798E+02  0.14956453131E+03  0.47000000000E+01 0. -1.
        -11    1    4    4    0    0 -0.24129449995E+01  0.13350821915E+02  0.27724420727E+02  0.30866004828E+02  0.00000000000E+00 0.  1.
         12    1    4    4    0    0 -0.42418111326E+02 -0.47771653305E+02 -0.15713349380E+02  0.65790093302E+02  0.00000000000E+00 0. -1.
         -5    1    5    5    0  502  0.68579940899E+02 -0.55030099857E+02  0.14455335807E+03  0.16926099230E+03  0.47000000000E+01 0.  1.
         13    1    6    6    0    0  0.91276277435E+02  0.27363620819E+02  0.14552963651E+02  0.96394581371E+02  0.00000000000E+00 0. -1.
        -14    1    6    6    0    0  0.85175820747E+00 -0.26344243946E+02  0.77831795745E+01  0.27483132380E+02  0.00000000000E+00 0.  1.
</event>
<event>
12    1  0.8526130E-002  0.1743291E+03  0.7818608E-02  0.1173466E+00
         21   -1    0    0  501  502  0.00000000000E+00  0.00000000000E+00  0.13291394788E+03  0.13291394788E+03  0.00000000000E+00 0.  1.
         21   -1    0    0  502  503 -0.00000000000E+00 -0.00000000000E+00 -0.50434679863E+03  0.50434679863E+03  0.00000000000E+00 0.  1.
         -6    2    1    2    0  503 -0.18862310613E+02 -0.14415770997E+02 -0.42137154490E+03  0.45591984299E+03  0.17246832512E+03 0.  0.
        -24    2    3    3    0    0 -0.13196794237E+02 -0.32127490263E+02 -0.42699727871E+03  0.43593129737E+03  0.80641732322E+02 0.  0.
          6    2    1    2  501    0  0.18862310613E+02  0.14415770997E+02  0.49938694149E+02  0.18134090352E+03  0.17270509229E+03 0.  0.
         24    2    5    5    0    0 -0.35424849228E+02  0.58303272259E+02  0.29878364765E+02  0.10855549766E+03  0.78977135255E+02 0.  0.
          5    1    5    5  501    0  0.54287159841E+02 -0.43887501263E+02  0.20060329384E+02  0.72785405857E+02  0.47000000000E+01 0. -1.
        -11    1    6    6    0    0  0.18931038734E+02  0.40616391872E+02  0.24680444365E+02  0.51158575530E+02  0.00000000000E+00 0.  1.
         12    1    6    6    0    0 -0.54355887962E+02  0.17686880387E+02  0.51979203999E+01  0.57396922134E+02  0.00000000000E+00 0. -1.
         -5    1    3    3    0  503 -0.56655163766E+01  0.17711719267E+02  0.56257338129E+01  0.19988545623E+02  0.47000000000E+01 0.  1.
         11    1    4    4    0    0 -0.25297069959E+02 -0.65422153514E+01 -0.39246735487E+02  0.47149216076E+02  0.00000000000E+00 0. -1.
        -12    1    4    4    0    0  0.12100275723E+02 -0.25585274912E+02 -0.38775054322E+03  0.38878208129E+03  0.00000000000E+00 0.  1.
</event>
<event>
12    1  0.8526130E-002  0.1756702E+03  0.7818608E-02  0.1172069E+00
         21   -1    0    0  501  502  0.00000000000E+00  0.00000000000E+00  0.22571179882E+03  0.22571179882E+03  0.00000000000E+00 0.  1.
         21   -1    0    0  502  503 -0.00000000000E+00 -0.00000000000E+00 -0.79401852079E+03  0.79401852079E+03  0.00000000000E+00 0.  1.
         -6    2    1    2    0  503  0.85237185191E+01  0.23824853981E+02 -0.74806383239E+03  0.76841363303E+03  0.17383824853E+03 0.  0.
        -24    2    3    3    0    0 -0.41219833704E+02 -0.36301440156E+02 -0.40372899467E+03  0.41531568245E+03  0.80455861853E+02 0.  0.
          6    2    1    2  501    0 -0.85237185191E+01 -0.23824853981E+02  0.17975711042E+03  0.25131668658E+03  0.17380213106E+03 0.  0.
         24    2    5    5    0    0  0.93907611407E+01 -0.35152096099E+02  0.20409507138E+03  0.21870286529E+03  0.69658372587E+02 0.  0.
          5    1    5    5  501    0 -0.17914479660E+02  0.11327242118E+02 -0.24337960954E+02  0.32613821286E+02  0.47000000000E+01 0. -1.
        -13    1    6    6    0    0  0.34570335759E+02 -0.29034064714E+02  0.16991984609E+03  0.17581478642E+03  0.00000000000E+00 0.  1.
         14    1    6    6    0    0 -0.25179574618E+02 -0.61180313842E+01  0.34175225287E+02  0.42888078873E+02  0.00000000000E+00 0. -1.
         -5    1    3    3    0  503  0.49743552223E+02  0.60126294137E+02 -0.34433483772E+03  0.35309795058E+03  0.47000000000E+01 0.  1.
         13    1    4    4    0    0 -0.46006707604E+01  0.21009603117E+02 -0.41341258771E+02  0.46601172424E+02  0.00000000000E+00 0. -1.
        -14    1    4    4    0    0 -0.36619162943E+02 -0.57311043273E+02 -0.36238773590E+03  0.36871451003E+03  0.00000000000E+00 0.  1.
</event>
<event>
12    1  0.8526130E-002  0.1843686E+03  0.7818608E-02  0.1163656E+00
         21   -1    0    0  501  502  0.00000000000E+00  0.00000000000E+00  0.24545584101E+02  0.24545584101E+02  0.00000000000E+00 0. -1.
         21   -1    0    0  502  503 -0.00000000000E+00 -0.00000000000E+00 -0.21936307425E+04  0.21936307425E+04  0.00000000000E+00 0.  1.
         -6    2    1    2    0  503 -0.64657305660E+02 -0.68201374067E+01 -0.17580671320E+04  0.17677014868E+04  0.17245702113E+03 0.  0.
        -24    2    3    3    0    0 -0.93908488312E+01  0.20987480697E+02 -0.14990996242E+04  0.15014048383E+04  0.79925858071E+02 0.  0.
          6    2    1    2  501    0  0.64657305660E+02  0.68201374067E+01 -0.41101802633E+03  0.45047483979E+03  0.17252443848E+03 0.  0.
         24    2    5    5    0    0  0.22583422640E+02  0.25700286307E+02 -0.38894848973E+03  0.39913454275E+03  0.82806641388E+02 0.  0.
          5    1    5    5  501    0  0.42073883020E+02 -0.18880148900E+02 -0.22069536592E+02  0.51340297041E+02  0.47000000000E+01 0. -1.
        -13    1    6    6    0    0  0.33361436875E+02 -0.22459171185E+02 -0.16965799716E+03  0.17435950172E+03  0.00000000000E+00 0.  1.
         14    1    6    6    0    0 -0.10778014236E+02  0.48159457491E+02 -0.21929049258E+03  0.22477504103E+03  0.00000000000E+00 0. -1.
         -5    1    3    3    0  503 -0.55266456828E+02 -0.27807618104E+02 -0.25896750783E+03  0.26629664847E+03  0.47000000000E+01 0.  1.
         11    1    4    4    0    0  0.80432001332E+01 -0.27808448731E+02 -0.37718076330E+03  0.37829000925E+03  0.00000000000E+00 0. -1.
        -12    1    4    4    0    0 -0.17434048964E+02  0.48795929428E+02 -0.11219188609E+04  0.11231148291E+04  0.00000000000E+00 0.  1.
</event>
<event>
12    1  0.8526130E-002  0.1725414E+03  0.7818608E-02  0.1175223E+00
         21   -1    0    0  501  502  0.00000000000E+00  0.00000000000E+00  0.45402185399E+03  0.45402185399E+03  0.00000000000E+00 0. -1.
         21   -1    0    0  502  503 -0.00000000000E+00 -0.00000000000E+00 -0.72570409605E+02  0.72570409605E+02  0.00000000000E+00 0. -1.
         -6    2    1    2    0  503 -0.89055076061E+01 -0.11561701589E+02  0.10895218335E+03  0.20406106056E+03  0.17192253247E+03 0.  0.
        -24    2    3    3    0    0 -0.45370948758E+02 -0.35912994980E+02  0.11890528406E+03  0.15885190107E+03  0.88018144126E+02 0.  0.
          6    2    1    2  501    0  0.89055076061E+01  0.11561701589E+02  0.27249926104E+03  0.32253120304E+03  0.17192308936E+03 0.  0.
         24    2    5    5    0    0  0.10330916263E+02 -0.55368496265E+02  0.20340901403E+03  0.22621279666E+03  0.81391671418E+02 0.  0.
          5    1    5    5  501    0 -0.14254086569E+01  0.66930197855E+02  0.69090247016E+02  0.96318406380E+02  0.47000000000E+01 0. -1.
        -13    1    6    6    0    0 -0.21353185087E+02 -0.20248650106E+02  0.17189361536E+02  0.34079913358E+02  0.00000000000E+00 0.  1.
         14    1    6    6    0    0  0.31684101350E+02 -0.35119846160E+02  0.18621965249E+03  0.19213288330E+03  0.00000000000E+00 0. -1.
         -5    1    3    3    0  503  0.36465441152E+02  0.24351293391E+02 -0.99531007132E+01  0.45209159493E+02  0.47000000000E+01 0.  1.
         13    1    4    4    0    0  0.49420601793E+01 -0.46928831692E+02  0.84904028324E+02  0.97136158192E+02  0.00000000000E+00 0. -1.
        -14    1    4    4    0    0 -0.50313008938E+02  0.11015836711E+02  0.34001255735E+02  0.61715742873E+02  0.00000000000E+00 0.  1.
</event>
<event>
12    1  0.8526130E-002  0.1730547E+03  0.7818608E-02  0.1174848E+00
         21   -1    0    0  501  502  0.00000000000E+00  0.00000000000E+00  0.50093168296E+03  0.50093168296E+03  0.00000000000E+00 0. -1.
         21   -1    0    0  502  503 -0.00000000000E+00 -0.00000000000E+00 -0.11984289123E+03  0.11984289123E+03  0.00000000000E+00 0. -1.
         -6    2    1    2    0  503  0.17932012644E+02  0.93351198359E+01 -0.29709865386E+02  0.17501289990E+03  0.17128379226E+03 0.  0.
        -24    2    3    3    0    0  0.13695959777E+02 -0.59010137536E+02 -0.35525231631E+02  0.10612947059E+03  0.79571645702E+02 0.  0.
          6    2    1    2  501    0 -0.17932012644E+02 -0.93351198359E+01  0.41079865712E+03  0.44576167429E+03  0.17186981129E+03 0.  0.
         24    2    5    5    0    0 -0.60652139701E+02  0.40748518480E+02  0.23801614669E+03  0.26080420352E+03  0.77640341833E+02 0.  0.
          5    1    5    5  501    0  0.42720127057E+02 -0.50083638316E+02  0.17278251043E+03  0.18495747076E+03  0.47000000000E+01 0. -1.
        -11    1    6    6    0    0  0.16800826182E+02  0.18935760264E+02  0.71880543752E+02  0.76207895570E+02  0.00000000000E+00 0.  1.
         12    1    6    6    0    0 -0.77452965883E+02  0.21812758216E+02  0.16613560294E+03  0.18459630795E+03  0.00000000000E+00 0. -1.
         -5    1    3    3    0  503  0.42360528667E+01  0.68345257372E+02  0.58153662456E+01  0.68883429311E+02  0.47000000000E+01 0.  1.
         13    1    4    4    0    0  0.45372066635E+02 -0.42684962831E+02 -0.32768475516E+02  0.70387523541E+02  0.00000000000E+00 0. -1.
        -14    1    4    4    0    0 -0.31676106858E+02 -0.16325174705E+02 -0.27567561149E+01  0.35741947052E+02  0.00000000000E+00 0.  1.
</event>
<event>
12    1  0.8526130E-002  0.2228509E+03  0.7818608E-02  0.1131818E+00
         21   -1    0    0  503  502  0.00000000000E+00  0.00000000000E+00  0.19735595120E+03  0.19735595120E+03  0.00000000000E+00 0. -1.
         21   -1    0    0  501  503 -0.00000000000E+00 -0.00000000000E+00 -0.55395146335E+03  0.55395146335E+03  0.00000000000E+00 0.  1.
          6    2    1    2  501    0  0.52231605194E+02  0.13095354081E+03 -0.45588738436E+03  0.50733735631E+03  0.17228150063E+03 0.  0.
         24    2    3    3    0    0  0.75918011961E+02  0.15094940697E+03 -0.34814495044E+03  0.39512593712E+03  0.79814357500E+02 0.  0.
         -6    2    1    2    0  502 -0.52231605194E+02 -0.13095354081E+03  0.99291872206E+02  0.24397005824E+03  0.17258488636E+03 0.  0.
        -24    2    5    5    0    0 -0.71098107142E+02 -0.86083548855E+02  0.39422975214E+01  0.13681179926E+03  0.78972200715E+02 0.  0.
          5    1    3    3  501    0 -0.23686406767E+02 -0.19995866167E+02 -0.10774243392E+03  0.11221141919E+03  0.47000000000E+01 0. -1.
        -11    1    4    4    0    0  0.70417734279E+02  0.66155334015E+02 -0.13808795745E+03  0.16853328903E+03  0.00000000000E+00 0.  1.
         12    1    4    4    0    0  0.55002776826E+01  0.84794072960E+02 -0.21005699299E+03  0.22659264809E+03  0.00000000000E+00 0. -1.
         -5    1    5    5    0  502  0.18866501948E+02 -0.44869991954E+02  0.95349574684E+02  0.10715825897E+03  0.47000000000E+01 0.  1.
         11    1    6    6    0    0 -0.26292431789E+02  0.75459111576E+01  0.16984064553E+02  0.32197689254E+02  0.00000000000E+00 0. -1.
        -12    1    6    6    0    0 -0.44805675353E+02 -0.93629460012E+02 -0.13041767031E+02  0.10461411001E+03  0.00000000000E+00 0.  1.
</event>
<event>
12    1  0.8526130E-002  0.1737516E+03  0.7818608E-02  0.1174552E+00
         21   -1    0    0  503  502  0.00000000000E+00  0.00000000000E+00  0.88735019568E+02  0.88735019568E+02  0.00000000000E+00 0. -1.
         21   -1    0    0  501  503 -0.00000000000E+00 -0.00000000000E+00 -0.10410608632E+04  0.10410608632E+04  0.00000000000E+00 0. -1.
          6    2    1    2  501    0 -0.15106231290E+02  0.19088373636E+02 -0.94008930971E+03  0.95561390664E+03  0.16981597126E+03 0.  0.
         24    2    3    3    0    0  0.45367533642E+02 -0.78774648483E+01 -0.34895412830E+03  0.36076339987E+03  0.79126351314E+02 0.  0.
         -6    2    1    2    0  502  0.15106231290E+02 -0.19088373636E+02 -0.12236533961E+02  0.17418197617E+03  0.17203797205E+03 0.  0.
        -24    2    5    5    0    0  0.17896905994E+02 -0.65581730738E+02  0.32036180840E+02  0.10974919418E+03  0.79983161282E+02 0.  0.
          5    1    3    3  501    0 -0.60473764932E+02  0.26965838484E+02 -0.59113518142E+03  0.59485050677E+03  0.47000000000E+01 0. -1.
        -13    1    4    4    0    0 -0.11741756585E+02  0.20463245549E+02 -0.14999231209E+03  0.15183644804E+03  0.00000000000E+00 0.  1.
         14    1    4    4    0    0  0.57109290227E+02 -0.28340710397E+02 -0.19896181620E+03  0.20892695184E+03  0.00000000000E+00 0. -1.
         -5    1    5    5    0  502 -0.27906747040E+01  0.46493357102E+02 -0.44272714802E+02  0.64432781997E+02  0.47000000000E+01 0.  1.
         11    1    6    6    0    0  0.42024151986E+02 -0.49972709855E+02  0.43879298173E+02  0.78668252101E+02  0.00000000000E+00 0. -1.
        -12    1    6    6    0    0 -0.24127245992E+02 -0.15609020882E+02 -0.11843117333E+02  0.31080942074E+02  0.00000000000E+00 0.  1.
</event>
<event>
12    1  0.8526130E-002  0.2268542E+03  0.7818608E-02  0.1129077E+00
         21   -1    0    0  501  502  0.00000000000E+00  0.00000000000E+00  0.90567522237E+02  0.90567522237E+02  0.00000000000E+00 0.  1.
         21   -1    0    0  502  503 -0.00000000000E+00 -0.00000000000E+00 -0.59490225218E+03  0.59490225218E+03  0.00000000000E+00 0. -1.
         -6    2    1    2    0  503  0.17913687652E+02 -0.14608574454E+03 -0.32909198621E+03  0.39970532676E+03  0.17262927879E+03 0.  0.
        -24    2    3    3    0    0  0.75882880647E+02 -0.12024015624E+03 -0.22843716108E+03  0.28061752053E+03  0.79666489320E+02 0.  0.
          6    2    1    2  501    0 -0.17913687652E+02  0.14608574454E+03 -0.17524274373E+03  0.28576444765E+03  0.17114133151E+03 0.  0.
         24    2    5    5    0    0 -0.52015936147E+02  0.14148883604E+03 -0.86597782170E+02  0.19055880638E+03  0.78030343289E+02 0.  0.
          5    1    5    5  501    0  0.34102248496E+02  0.45969084950E+01 -0.88644961564E+02  0.95205641277E+02  0.47000000000E+01 0. -1.
        -13    1    6    6    0    0 -0.51188887657E+02  0.79075493478E+02 -0.86870404240E+02  0.12813938903E+03  0.00000000000E+00 0.  1.
         14    1    6    6    0    0 -0.82704849024E+00  0.62413342563E+02  0.27262207044E+00  0.62419417346E+02  0.00000000000E+00 0. -1.
         -5    1    3    3    0  503 -0.57969192995E+02 -0.25845588299E+02 -0.10065482513E+03  0.11908780623E+03  0.47000000000E+01 0.  1.
         13    1    4    4    0    0 -0.97494905053E+00 -0.39120171201E+02 -0.11460403536E+03  0.12110088043E+03  0.00000000000E+00 0. -1.
        -14    1    4    4    0    0  0.76857829697E+02 -0.81119985036E+02 -0.11383312572E+03  0.15951664010E+03  0.00000000000E+00 0.  1.
</event>
<event>
12    1  0.8526130E-002  0.1948801E+03  0.7818608E-02  0.1154289E+00
         21   -1    0    0  503  502  0.00000000000E+00  0.00000000000E+00  0.20622504018E+03  0.20622504018E+03  0.00000000000E+00 0. -1.
         21   -1    0    0  501  503 -0.00000000000E+00 -0.00000000000E+00 -0.36447339629E+03  0.36447339629E+03  0.00000000000E+00 0. -1.
          6    2    1    2  501    0  0.19610916893E+02  0.90534390197E+02 -0.28028098273E+03  0.34137323082E+03  0.17145608642E+03 0.  0.
         24    2    3    3    0    0  0.16592942895E+01 -0.78320004168E+01 -0.62365447713E+02  0.10156606254E+03  0.79762914335E+02 0.  0.
         -6    2    1    2    0  502 -0.19610916893E+02 -0.90534390197E+02  0.12203262661E+03  0.22932520565E+03  0.17063711237E+03 0.  0.
        -24    2    5    5    0    0  0.25705703609E+02 -0.11939981147E+02  0.10668013889E+03  0.13719233363E+03  0.81472314473E+02 0.  0.
          5    1    3    3  501    0  0.17951622603E+02  0.98366390614E+02 -0.21791553501E+03  0.23980716828E+03  0.47000000000E+01 0. -1.
        -13    1    4    4    0    0 -0.10070814573E+02  0.26311926279E+02  0.14884355687E+01  0.28212660476E+02  0.00000000000E+00 0.  1.
         14    1    4    4    0    0  0.11730108862E+02 -0.34143926696E+02 -0.63853883281E+02  0.73353402063E+02  0.00000000000E+00 0. -1.
         -5    1    5    5    0  502 -0.45316620502E+02 -0.78594409050E+02  0.15352487727E+02  0.92132872022E+02  0.47000000000E+01 0.  1.
         13    1    6    6    0    0  0.31026738263E+02 -0.31923580174E+02  0.21312887495E+02  0.49355978683E+02  0.00000000000E+00 0. -1.
        -14    1    6    6    0    0 -0.53210346539E+01  0.19983599027E+02  0.85367251393E+02  0.87836354946E+02  0.00000000000E+00 0.  1.
</event>
<event>
12    1  0.8526130E-002  0.1885245E+03  0.7818608E-02  0.1162210E+00
         21   -1    0    0  503  502  0.00000000000E+00  0.00000000000E+00  0.32910976686E+03  0.32910976686E+03  0.00000000000E+00 0. -1.
         21   -1    0    0  501  503 -0.00000000000E+00 -0.00000000000E+00 -0.13756216113E+03  0.13756216113E+03  0.00000000000E+00 0. -1.
          6    2    1    2  501    0 -0.30597057537E+02 -0.63384566894E+02  0.21207007213E+03  0.27703370588E+03  0.16376866443E+03 0.  0.
         24    2    3    3    0    0 -0.49258458671E+02 -0.36776666959E+02  0.22147882491E+03  0.24287462422E+03  0.78462055939E+02 0.  0.
         -6    2    1    2    0  502  0.30597057537E+02  0.63384566894E+02 -0.20522466397E+02  0.18963822212E+03  0.17489339727E+03 0.  0.
        -24    2    5    5    0    0  0.35837961409E+02  0.10870863149E+03  0.13671859047E+01  0.13881514878E+03  0.78522928473E+02 0.  0.
          5    1    3    3  501    0  0.18661401133E+02 -0.26607899935E+02 -0.94087527751E+01  0.34159081662E+02  0.47000000000E+01 0. -1.
        -11    1    4    4    0    0  0.89921667529E+01  0.12262248792E+02  0.87140028725E+02  0.88456805360E+02  0.00000000000E+00 0.  1.
         12    1    4    4    0    0 -0.58250625424E+02 -0.49038915751E+02  0.13433879618E+03  0.15441781886E+03  0.00000000000E+00 0. -1.
         -5    1    5    5    0  502 -0.52409038722E+01 -0.45324064597E+02 -0.21889652302E+02  0.50823073332E+02  0.47000000000E+01 0.  1.
         13    1    6    6    0    0  0.47866358530E+02  0.24883624785E+02 -0.28830218839E+01  0.54024946798E+02  0.00000000000E+00 0. -1.
        -14    1    6    6    0    0 -0.12028397120E+02  0.83825006706E+02  0.42502077886E+01  0.84790201986E+02  0.00000000000E+00 0.  1.
</event>
<event>
12    1  0.8526130E-002  0.1817416E+03  0.7818608E-02  0.1166339E+00
         21   -1    0    0  503  502  0.00000000000E+00  0.00000000000E+00  0.58858105987E+03  0.58858105987E+03  0.00000000000E+00 0. -1.
         21   -1    0    0  501  503 -0.00000000000E+00 -0.00000000000E+00 -0.65600012157E+02  0.65600012157E+02  0.00000000000E+00 0. -1.
          6    2    1    2  501    0 -0.42377338924E+02 -0.43321483827E+02  0.13590684558E+03  0.22693759062E+03  0.17134004069E+03 0.  0.
         24    2    3    3    0    0 -0.88747393069E+02 -0.15702862946E+02  0.11923881673E+03  0.17025528891E+03  0.81524771116E+02 0.  0.
         -6    2    1    2    0  502  0.42377338924E+02  0.43321483827E+02  0.38707420214E+03  0.42724348142E+03  0.17040529521E+03 0.  0.
        -24    2    5    5    0    0  0.60857976049E+02  0.86298401202E+02  0.26353740241E+03  0.29506186294E+03  0.80364377641E+02 0.  0.
          5    1    3    3  501    0  0.46370054145E+02 -0.27618620881E+02  0.16668028846E+02  0.56682301703E+02  0.47000000000E+01 0. -1.
        -11    1    4    4    0    0 -0.13039528122E+02 -0.23532390125E+01  0.85125448508E+02  0.86150502095E+02  0.00000000000E+00 0.  1.
         12    1    4    4    0    0 -0.75707864946E+02 -0.13349623933E+02  0.34113368224E+02  0.84104786817E+02  0.00000000000E+00 0. -1.
         -5    1    5    5    0  502 -0.18480637125E+02 -0.42976917376E+02  0.12353679972E+03  0.13218161847E+03  0.47000000000E+01 0.  1.
         11    1    6    6    0    0  0.11003459386E+02  0.78910600419E+02  0.18875780349E+03  0.20488403392E+03  0.00000000000E+00 0. -1.
        -12    1    6    6    0    0  0.49854516663E+02  0.73878007830E+01  0.74779598925E+02  0.90177829024E+02  0.00000000000E+00 0.  1.
</event>
<event>
12    1  0.8526130E-002  0.1715423E+03  0.7818608E-02  0.1177185E+00
         21   -1    0    0  501  502  0.00000000000E+00  0.00000000000E+00  0.86516844306E+03  0.86516844306E+03  0.00000000000E+00 0.  1.
         21   -1    0    0  502  503 -0.00000000000E+00 -0.00000000000E+00 -0.52896860336E+02  0.52896860336E+02  0.00000000000E+00 0.  1.
         -6    2    1    2    0  503 -0.20769384337E+01 -0.61310426284E+01  0.12407118336E+03  0.20880754767E+03  0.16782440247E+03 0.  0.
        -24    2    3    3    0    0 -0.14449298973E+02  0.26748094419E+02  0.14336552447E+03  0.16845318537E+03  0.83057565930E+02 0.  0.
          6    2    1    2  501    0  0.20769384337E+01  0.61310426284E+01  0.68820039936E+03  0.70925775573E+03  0.17142015932E+03 0.  0.
         24    2    5    5    0    0  0.17154386885E+02  0.66955555062E+02  0.36960645539E+03  0.38452533988E+03  0.80457975391E+02 0.  0.
          5    1    5    5  501    0 -0.15077448452E+02 -0.60824512434E+02  0.31859394397E+03  0.32473241584E+03  0.47000000000E+01 0. -1.
        -11    1    6    6    0    0  0.24566948595E+02  0.34320897317E+02  0.32993428285E+03  0.33262304484E+03  0.00000000000E+00 0.  1.
         12    1    6    6    0    0 -0.74125617097E+01  0.32634657745E+02  0.39672172539E+02  0.51902295047E+02  0.00000000000E+00 0. -1.
         -5    1    3    3    0  503  0.12372360539E+02 -0.32879137047E+02 -0.19294341104E+02  0.40354362304E+02  0.47000000000E+01 0.  1.
         11    1    4    4    0    0 -0.30820170101E+02  0.19389308398E+02  0.15903252636E+02  0.39733381552E+02  0.00000000000E+00 0. -1.
        -12    1    4    4    0    0  0.16370871128E+02  0.73587860207E+01  0.12746227183E+03  0.12871980382E+03  0.00000000000E+00 0.  1.
</event>
<event>
12    1  0.8526130E-002  0.2321815E+03  0.7818608E-02  0.1125432E+00
         21   -1    0    0  503  502  0.00000000000E+00  0.00000000000E+00  0.37920792306E+03  0.37920792306E+03  0.00000000000E+00 0.  1.
         21   -1    0    0  501  503 -0.00000000000E+00 -0.00000000000E+00 -0.18774247370E+03  0.18774247370E+03  0.00000000000E+00 0. -1.
          6    2    1    2  501    0 -0.15251715248E+03 -0.18472212125E+02 -0.45926876247E+02  0.23489114405E+03  0.17164459552E+03 0.  0.
         24    2    3    3    0    0 -0.17009527907E+03 -0.20045573988E+02 -0.45828353592E+01  0.18969285073E+03  0.81413427880E+02 0.  0.
         -6    2    1    2    0  502  0.15251715248E+03  0.18472212125E+02  0.23739232560E+03  0.33205925271E+03  0.17408482598E+03 0.  0.
        -24    2    5    5    0    0  0.52780927182E+02  0.68705780970E+02  0.91652980737E+02  0.14839441472E+03  0.78194135508E+02 0.  0.
          5    1    3    3  501    0  0.17578126593E+02  0.15733618630E+01 -0.41344040888E+02  0.45198293320E+02  0.47000000000E+01 0. -1.
        -11    1    4    4    0    0 -0.54290377864E+02 -0.30080147631E+02  0.29273761299E+02  0.68623709538E+02  0.00000000000E+00 0.  1.
         12    1    4    4    0    0 -0.11580490121E+03  0.10034573642E+02 -0.33856596658E+02  0.12106914119E+03  0.00000000000E+00 0. -1.
         -5    1    5    5    0  502  0.99736225296E+02 -0.50233568845E+02  0.14573934487E+03  0.18366483800E+03  0.47000000000E+01 0.  1.
         13    1    6    6    0    0  0.59528799234E+02  0.77932647502E+02  0.60541796509E+02  0.11524966208E+03  0.00000000000E+00 0. -1.
        -14    1    6    6    0    0 -0.67478720518E+01 -0.92268665321E+01  0.31111184228E+02  0.33144752636E+02  0.00000000000E+00 0.  1.
</event>
<event>
12    1  0.8526130E-002  0.1741183E+03  0.7818608E-02  0.1174820E+00
         21   -1    0    0  503  502  0.00000000000E+00  0.00000000000E+00  0.32680634555E+03  0.32680634555E+03  0.00000000000E+00 0.  1.
         21   -1    0    0  501  503 -0.00000000000E+00 -0.00000000000E+00 -0.15019661655E+03  0.15019661655E+03  0.00000000000E+00 0.  1.
          6    2    1    2  501    0 -0.25473827738E+02 -0.63242449338E+01 -0.61587003723E+02  0.18468932876E+03  0.17212866454E+03 0.  0.
         24    2    3    3    0    0 -0.21705302368E+02 -0.30518691928E+02 -0.10350525150E+03  0.13591635935E+03  0.79733361547E+02 0.  0.
         -6    2    1    2    0  502  0.25473827738E+02  0.63242449338E+01  0.23819673272E+03  0.29231363333E+03  0.16739374175E+03 0.  0.
        -24    2    5    5    0    0 -0.16362593438E+02  0.38721763423E+01  0.41831409443E+02  0.91471085639E+02  0.79588720798E+02 0.  0.
          5    1    3    3  501    0 -0.37685253697E+01  0.24194446995E+02  0.41918247773E+02  0.48772969412E+02  0.47000000000E+01 0. -1.
        -11    1    4    4    0    0 -0.54126480311E+01  0.26826030875E+02 -0.23040594512E+02  0.35774316020E+02  0.00000000000E+00 0.  1.
         12    1    4    4    0    0 -0.16292654337E+02 -0.57344722803E+02 -0.80464656984E+02  0.10014204333E+03  0.00000000000E+00 0. -1.
         -5    1    5    5    0  502  0.41836421177E+02  0.24520685916E+01  0.19636532328E+03  0.20084254769E+03  0.47000000000E+01 0.  1.
         13    1    6    6    0    0 -0.29381599143E+02  0.24035261163E+02  0.52843340224E+02  0.65064512243E+02  0.00000000000E+00 0. -1.
        -14    1    6    6    0    0  0.13019005704E+02 -0.20163084821E+02 -0.11011930780E+02  0.26406573396E+02  0.00000000000E+00 0.  1.
</event>
<event>
12    1  0.8526130E-002  0.1999321E+03  0.7818608E-02  0.1150091E+00
         21   -1    0    0  503  502  0.00000000000E+00  0.00000000000E+00  0.40599622130E+03  0.40599622130E+03  0.00000000000E+00 0. -1.
         21   -1    0    0  501  503 -0.00000000000E+00 -0.00000000000E+00 -0.16104750941E+03  0.16104750941E+03  0.00000000000E+00 0. -1.
          6    2    1    2  501    0  0.24198710833E+02 -0.98676905099E+02 -0.55499372565E+02  0.20615331364E+03  0.17057637340E+03 0.  0.
         24    2    3    3    0    0  0.61339118372E+02 -0.15280310648E+02 -0.51857383337E+02  0.11466694349E+03  0.80394927611E+02 0.  0.
         -6    2    1    2    0  502 -0.24198710833E+02  0.98676905099E+02  0.30044808446E+03  0.36089041708E+03  0.17219213825E+03 0.  0.
        -24    2    5    5    0    0 -0.11725163835E+01  0.10036514120E+03  0.30995469206E+03  0.33548330469E+03  0.80016249782E+02 0.  0.
          5    1    3    3  501    0 -0.37140407539E+02 -0.83396594451E+02 -0.36419892277E+01  0.91486370153E+02  0.47000000000E+01 0. -1.
        -11    1    4    4    0    0  0.37984046591E+02 -0.21863172071E+02 -0.71219153269E+02  0.83623883435E+02  0.00000000000E+00 0.  1.
         12    1    4    4    0    0  0.23355071781E+02  0.65828614228E+01  0.19361769931E+02  0.31043060050E+02  0.00000000000E+00 0. -1.
         -5    1    5    5    0  502 -0.23026194449E+02 -0.16882361023E+01 -0.95066076017E+01  0.25407112391E+02  0.47000000000E+01 0.  1.
         13    1    6    6    0    0 -0.25270632243E+02  0.14213115557E+02  0.30599830668E+02  0.42154088114E+02  0.00000000000E+00 0. -1.
        -14    1    6    6    0    0  0.24098115860E+02  0.86152025645E+02  0.27935486139E+03  0.29332921657E+03  0.00000000000E+00 0.  1.
</event>
<event>
12    1  0.8526130E-002  0.1758033E+03  0.7818608E-02  0.1172068E+00
         21   -1    0    0  503  502  0.00000000000E+00  0.00000000000E+00  0.17564209943E+03  0.17564209943E+03  0.00000000000E+00 0. -1.
         21   -1    0    0  501  503 -0.00000000000E+00 -0.00000000000E+00 -0.24097461883E+03  0.24097461883E+03  0.00000000000E+00 0. -1.
          6    2    1    2  501    0 -0.26477945316E+02 -0.86406827215E+01 -0.14129191344E+03  0.22510526216E+03  0.17301222865E+03 0.  0.
         24    2    3    3    0    0 -0.39914342404E+02 -0.15242486779E+02 -0.32468807249E+01  0.86171315117E+02  0.74762725885E+02 0.  0.
         -6    2    1    2    0  502  0.26477945316E+02  0.86406827215E+01  0.75959394035E+02  0.19151145610E+03  0.17358302132E+03 0.  0.
        -24    2    5    5    0    0 -0.25456961647E+02  0.53307257762E+02  0.15645415898E+02  0.10012106577E+03  0.79307806333E+02 0.  0.
          5    1    3    3  501    0  0.13436397088E+02  0.66018040580E+01 -0.13804503271E+03  0.13893394704E+03  0.47000000000E+01 0. -1.
        -11    1    4    4    0    0 -0.37487481088E+01 -0.22496601356E+02  0.29195888579E+02  0.37047943194E+02  0.00000000000E+00 0.  1.
         12    1    4    4    0    0 -0.36165594296E+02  0.72541145762E+01 -0.32442769304E+02  0.49123371924E+02  0.00000000000E+00 0. -1.
         -5    1    5    5    0  502  0.51934906963E+02 -0.44666575041E+02  0.60313978137E+02  0.91390390336E+02  0.47000000000E+01 0.  1.
         13    1    6    6    0    0 -0.28389816796E+02  0.19537460954E+02  0.44026923735E+02  0.55911216154E+02  0.00000000000E+00 0. -1.
        -14    1    6    6    0    0  0.29328551487E+01  0.33769796808E+02 -0.28381507837E+02  0.44209849614E+02  0.00000000000E+00 0.  1.
</event>
<event>
12    1  0.8526130E-002  0.1902358E+03  0.7818608E-02  0.1158993E+00
         21   -1    0    0  503  502  0.00000000000E+00  0.00000000000E+00  0.42844682455E+02  0.42844682455E+02  0.00000000000E+00 0. -1.
         21   -1    0    0  501  503 -0.00000000000E+00 -0.00000000000E+00 -0.87420731209E+03  0.87420731209E+03  0.00000000000E+00 0. -1.
          6    2    1    2  501    0 -0.73027485099E+02 -0.78052372285E+01 -0.52198589004E+03  0.55557081912E+03  0.17548712303E+03 0.  0.
         24    2    3    3    0    0 -0.86472173816E+02 -0.30288515711E+02 -0.20582286791E+03  0.23828954954E+03  0.77614595511E+02 0.  0.
         -6    2    1    2    0  502  0.73027485099E+02  0.78052372285E+01 -0.30937673960E+03  0.36148117542E+03  0.17193236425E+03 0.  0.
        -24    2    5    5    0    0  0.32733289760E+02 -0.51294105443E+02 -0.10658009081E+03  0.14638834607E+03  0.79797735531E+02 0.  0.
          5    1    3    3  501    0  0.13444688717E+02  0.22483278482E+02 -0.31616302212E+03  0.31728126958E+03  0.47000000000E+01 0. -1.
        -11    1    4    4    0    0  0.13409838422E+02  0.35725272284E+01 -0.16383436752E+02  0.21470997115E+02  0.00000000000E+00 0.  1.
         12    1    4    4    0    0 -0.99882012238E+02 -0.33861042939E+02 -0.18943943116E+03  0.21681855243E+03  0.00000000000E+00 0. -1.
         -5    1    5    5    0  502  0.40294195339E+02  0.59099342671E+02 -0.20279664878E+03  0.21509282935E+03  0.47000000000E+01 0.  1.
         13    1    6    6    0    0 -0.20933257636E+02 -0.40471253505E+02 -0.50449138578E+02  0.67979697107E+02  0.00000000000E+00 0. -1.
        -14    1    6    6    0    0  0.53666547396E+02 -0.10822851937E+02 -0.56130952237E+02  0.78408648965E+02  0.00000000000E+00 0.  1.
</event>
<event>
12    1  0.8526130E-002  0.1815633E+03  0.7818608E-02  0.1166342E+00
         21   -1    0    0  501  502  0.00000000000E+00  0.00000000000E+00  0.21949361786E+03  0.21949361786E+03  0.00000000000E+00 0. -1.
         21   -1    0    0  502  503 -0.00000000000E+00 -0.00000000000E+00 -0.40195886036E+03  0.40195886036E+03  0.00000000000E+00 0. -1.
         -6    2    1    2    0  503  0.32396261663E+02  0.46479034525E+02 -0.33724099343E+03  0.38301007989E+03  0.17249758036E+03 0.  0.
        -24    2    3    3    0    0  0.11162219693E+02  0.42159538829E+02 -0.34727181062E+03  0.35867389541E+03  0.78404278823E+02 0.  0.
          6    2    1    2  501    0 -0.32396261663E+02 -0.46479034525E+02  0.15477575093E+03  0.23844239834E+03  0.17230619788E+03 0.  0.
         24    2    5    5    0    0 -0.58394510698E+02  0.52776330991E+01  0.15044597893E+03  0.18017149203E+03  0.79937486035E+02 0.  0.
          5    1    5    5  501    0  0.25998249035E+02 -0.51756667624E+02  0.43297720032E+01  0.58270906309E+02  0.47000000000E+01 0. -1.
        -11    1    6    6    0    0 -0.14715861573E+02  0.21682270687E+02  0.40443179014E+01  0.26514787408E+02  0.00000000000E+00 0.  1.
         12    1    6    6    0    0 -0.43678649125E+02 -0.16404637588E+02  0.14640166102E+03  0.15365670462E+03  0.00000000000E+00 0. -1.
         -5    1    3    3    0  503  0.21234041970E+02  0.43194956965E+01  0.10030817190E+02  0.24336184478E+02  0.47000000000E+01 0.  1.
         13    1    4    4    0    0  0.14835852232E+02  0.43831650113E+02 -0.88474807015E+02  0.99845418220E+02  0.00000000000E+00 0. -1.
        -14    1    4    4    0    0 -0.36736325390E+01 -0.16721112842E+01 -0.25879700360E+03  0.25882847719E+03  0.00000000000E+00 0.  1.
</event>
<event>
12    1  0.8526130E-002  0.3355450E+03  0.7818608E-02  0.1068736E+00
         21   -1    0    0  503  502  0.00000000000E+00  0.00000000000E+00  0.27714196048E+03  0.27714196048E+03  0.00000000000E+00 0.  1.
         21   -1    0    0  501  503 -0.00000000000E+00 -0.00000000000E+00 -0.67582307359E+03  0.67582307359E+03  0.00000000000E+00 0. -1.
          6    2    1    2  501    0 -0.15308489136E+03  0.24379245318E+03 -0.50047752897E+03  0.60255143659E+03  0.17239702008E+03 0.  0.
         24    2    3    3    0    0 -0.11537098345E+03  0.71024375897E+02 -0.19905861875E+03  0.25305666292E+03  0.77835821811E+02 0.  0.
         -6    2    1    2    0  502  0.15308489136E+03 -0.24379245318E+03  0.10179641586E+03  0.35041359749E+03  0.17192275833E+03 0.  0.
        -24    2    5    5    0    0  0.50051216226E+02 -0.75071562778E+02  0.93757723649E+02  0.15250102173E+03  0.79531044891E+02 0.  0.
          5    1    3    3  501    0 -0.37713907913E+02  0.17276807729E+03 -0.30141891022E+03  0.34949477367E+03  0.47000000000E+01 0. -1.
        -11    1    4    4    0    0 -0.10472043690E+03  0.46747547382E+02 -0.10554228161E+03  0.15585530564E+03  0.00000000000E+00 0.  1.
         12    1    4    4    0    0 -0.10650546553E+02  0.24276828514E+02 -0.93516337139E+02  0.97201357277E+02  0.00000000000E+00 0. -1.
         -5    1    5    5    0  502  0.10303367514E+03 -0.16872089041E+03  0.80386922160E+01  0.19791257576E+03  0.47000000000E+01 0.  1.
         13    1    6    6    0    0 -0.10527041793E+02 -0.12705374592E+02 -0.82670451793E+01  0.18455058614E+02  0.00000000000E+00 0. -1.
        -14    1    6    6    0    0  0.60578258019E+02 -0.62366188186E+02  0.10202476883E+03  0.13404596312E+03  0.00000000000E+00 0.  1.
</event>
<event>
12    1  0.8526130E-002  0.2130006E+03  0.7818608E-02  0.1139391E+00
         21   -1    0    0  501  502  0.00000000000E+00  0.00000000000E+00  0.71287573790E+02  0.71287573790E+02  0.00000000000E+00 0. -1.
         21   -1    0    0  502  503 -0.00000000000E+00 -0.00000000000E+00 -0.64760034804E+03  0.64760034804E+03  0.00000000000E+00 0. -1.
         -6    2    1    2    0  503  0.75777600865E+01  0.12478140606E+03 -0.34026139601E+03  0.40094212466E+03  0.17131534655E+03 0.  0.
        -24    2    3    3    0    0  0.55367870654E+02  0.45876936329E+02 -0.11398185796E+03  0.15653604996E+03  0.79632760868E+02 0.  0.
          6    2    1    2  501    0 -0.75777600865E+01 -0.12478140606E+03 -0.23605137824E+03  0.31794579718E+03  0.17245711068E+03 0.  0.
         24    2    5    5    0    0 -0.43555113032E+02  0.12790763202E+02 -0.89148947516E+02  0.11343935270E+03  0.53481776358E+02 0.  0.
          5    1    5    5  501    0  0.35977352946E+02 -0.13757216926E+03 -0.14690243072E+03  0.20450644448E+03  0.47000000000E+01 0. -1.
        -13    1    6    6    0    0 -0.36302404720E+02 -0.14780449568E+02 -0.65797450800E+02  0.76587406339E+02  0.00000000000E+00 0.  1.
         14    1    6    6    0    0 -0.72527083118E+01  0.27571212770E+02 -0.23351496716E+02  0.36851946358E+02  0.00000000000E+00 0. -1.
         -5    1    3    3    0  503 -0.47790110567E+02  0.78904469733E+02 -0.22627953805E+03  0.24440607470E+03  0.47000000000E+01 0.  1.
         13    1    4    4    0    0  0.11736498331E+02  0.42420498645E+02 -0.12094403390E+02  0.45645576914E+02  0.00000000000E+00 0. -1.
        -14    1    4    4    0    0  0.43631372322E+02  0.34564376833E+01 -0.10188745457E+03  0.11089047304E+03  0.00000000000E+00 0.  1.
</event>
<event>
12    1  0.8526130E-002  0.1971373E+03  0.7818608E-02  0.1153283E+00
         21   -1    0    0  503  502  0.00000000000E+00  0.00000000000E+00  0.57955041037E+03  0.57955041037E+03  0.00000000000E+00 0. -1.
         21   -1    0    0  501  503 -0.00000000000E+00 -0.00000000000E+00 -0.16121399483E+03  0.16121399483E+03  0.00000000000E+00 0. -1.
          6    2    1    2  501    0  0.72330575930E+02  0.42175146025E+02 -0.77552573981E+02  0.20712687249E+03  0.17284873276E+03 0.  0.
         24    2    3    3    0    0 -0.15571082776E+02  0.62172213266E+02 -0.39086138498E+02  0.10900276250E+03  0.79031849839E+02 0.  0.
         -6    2    1    2    0  502 -0.72330575930E+02 -0.42175146025E+02  0.49588898953E+03  0.53363753271E+03  0.17847316669E+03 0.  0.
        -24    2    5    5    0    0 -0.65179678467E+02  0.22103032899E+02  0.15795573924E+03  0.18953901299E+03  0.78981563298E+02 0.  0.
          5    1    3    3  501    0  0.87901658707E+02 -0.19997067241E+02 -0.38466435484E+02  0.98124109985E+02  0.47000000000E+01 0. -1.
        -13    1    4    4    0    0  0.92340804974E+00  0.45531262545E+02  0.16691955176E+02  0.48503298021E+02  0.00000000000E+00 0.  1.
         14    1    4    4    0    0 -0.16494490826E+02  0.16640950721E+02 -0.55778093673E+02  0.60499464480E+02  0.00000000000E+00 0. -1.
         -5    1    5    5    0  502 -0.71508974635E+01 -0.64278178924E+02  0.33793325029E+03  0.34409851972E+03  0.47000000000E+01 0.  1.
         11    1    6    6    0    0 -0.86069855475E+01 -0.12315818165E+02  0.10124531607E+03  0.10235415773E+03  0.00000000000E+00 0. -1.
        -12    1    6    6    0    0 -0.56572692919E+02  0.34418851064E+02  0.56710423164E+02  0.87184855268E+02  0.00000000000E+00 0.  1.
</event>
<event>
12    1  0.8526130E-002  0.2320150E+03  0.7818608E-02  0.1125326E+00
         21   -1    0    0  503  502  0.00000000000E+00  0.00000000000E+00  0.52560780166E+03  0.52560780166E+03  0.00000000000E+00 0.  1.
         21   -1    0    0  501  503 -0.00000000000E+00 -0.00000000000E+00 -0.12318480620E+03  0.12318480620E+03  0.00000000000E+00 0.  1.
          6    2    1    2  501    0  0.70005577729E+02  0.13903368198E+03  0.67031047881E+02  0.24097068018E+03  0.17129670659E+03 0.  0.
         24    2    3    3    0    0  0.30786513938E+02  0.14625592401E+03  0.84435577869E+01  0.16994336332E+03  0.80441583283E+02 0.  0.
         -6    2    1    2    0  502 -0.70005577729E+02 -0.13903368198E+03  0.33539194758E+03  0.40782192768E+03  0.17204598383E+03 0.  0.
        -24    2    5    5    0    0  0.18898721460E+02 -0.31867383219E+02  0.99929654040E+02  0.13422885085E+03  0.81601206237E+02 0.  0.
          5    1    3    3  501    0  0.39219063792E+02 -0.72222420290E+01  0.58587490094E+02  0.71027316859E+02  0.47000000000E+01 0. -1.
        -11    1    4    4    0    0  0.30983194280E+02  0.59185719377E+02 -0.31841262093E+02  0.74005227367E+02  0.00000000000E+00 0.  1.
         12    1    4    4    0    0 -0.19668034223E+00  0.87070204631E+02  0.40284819880E+02  0.95938135954E+02  0.00000000000E+00 0. -1.
         -5    1    5    5    0  502 -0.88904299189E+02 -0.10716629876E+03  0.23546229354E+03  0.27359307682E+03  0.47000000000E+01 0.  1.
         11    1    6    6    0    0  0.20761992343E+02 -0.56120335963E+02  0.47386636173E+02  0.76328538060E+02  0.00000000000E+00 0. -1.
        -12    1    6    6    0    0 -0.18632708824E+01  0.24252952744E+02  0.52543017867E+02  0.57900312795E+02  0.00000000000E+00 0.  1.
</event>
<event>
12    1  0.8526130E-002  0.1829463E+03  0.7818608E-02  0.1168010E+00
         21   -1    0    0  501  502  0.00000000000E+00  0.00000000000E+00  0.51814678348E+03  0.51814678348E+03  0.00000000000E+00 0.  1.
         21   -1    0    0  502  503 -0.00000000000E+00 -0.00000000000E+00 -0.34529083430E+03  0.34529083430E+03  0.00000000000E+00 0.  1.
         -6    2    1    2    0  503  0.77396709161E+01 -0.61854134708E+02 -0.30625817811E+03  0.35058317473E+03  0.15883530545E+03 0.  0.
        -24    2    3    3    0    0 -0.14858052737E+02  0.21866637748E+02 -0.12785131201E+03  0.15216209539E+03  0.78156469429E+02 0.  0.
          6    2    1    2  501    0 -0.77396709161E+01  0.61854134708E+02  0.47911412729E+03  0.51285444306E+03  0.17199853577E+03 0.  0.
         24    2    5    5    0    0  0.22219221186E+01  0.23352980293E+02  0.93281787081E+02  0.12494948437E+03  0.79753264608E+02 0.  0.
          5    1    5    5  501    0 -0.99615930347E+01  0.38501154414E+02  0.38583234021E+03  0.38790495869E+03  0.47000000000E+01 0. -1.
        -11    1    6    6    0    0  0.74616677427E+01  0.82524456825E+01  0.10471065747E+03  0.10530005287E+03  0.00000000000E+00 0.  1.
         12    1    6    6    0    0 -0.52397456241E+01  0.15100534611E+02 -0.11428870393E+02  0.19649431498E+02  0.00000000000E+00 0. -1.
         -5    1    3    3    0  503  0.22597723653E+02 -0.83720772455E+02 -0.17840686610E+03  0.19842107934E+03  0.47000000000E+01 0.  1.
         13    1    4    4    0    0 -0.33946492572E+02  0.18660226140E+02 -0.21985423212E+02  0.44541298043E+02  0.00000000000E+00 0. -1.
        -14    1    4    4    0    0  0.19088439835E+02  0.32064116082E+01 -0.10586588880E+03  0.10762079735E+03  0.00000000000E+00 0.  1.
</event>
<event>
12    1  0.8526130E-002  0.3069807E+03  0.7818608E-02  0.1081832E+00
         21   -1    0    0  501  502  0.00000000000E+00  0.00000000000E+00  0.11542193195E+04  0.11542193195E+04  0.00000000000E+00 0.  1.
         21   -1    0    0  502  503 -0.00000000000E+00 -0.00000000000E+00 -0.35320041136E+03  0.35320041136E+03  0.00000000000E+00 0. -1.
         -6    2    1    2    0  503 -0.24883840932E+03 -0.48107693294E+02 -0.26041253644E+03  0.40255662468E+03  0.17321155515E+03 0.  0.
        -24    2    3    3    0    0 -0.25843392495E+03 -0.27655965506E+02 -0.19925504376E+03  0.33719091501E+03  0.80263283722E+02 0.  0.
          6    2    1    2  501    0  0.24883840932E+03  0.48107693294E+02  0.10614314446E+04  0.11048631062E+04  0.17277403672E+03 0.  0.
         24    2    5    5    0    0  0.26565549264E+03  0.58565571036E+02  0.10196632573E+04  0.10583996478E+04  0.80584671360E+02 0.  0.
          5    1    5    5  501    0 -0.16817083326E+02 -0.10457877743E+02  0.41768187336E+02  0.46463458457E+02  0.47000000000E+01 0. -1.
        -13    1    6    6    0    0  0.10595339650E+03  0.43802207904E+02  0.30192714024E+03  0.32296246479E+03  0.00000000000E+00 0.  1.
         14    1    6    6    0    0  0.15970209614E+03  0.14763363132E+02  0.71773611703E+03  0.73543718297E+03  0.00000000000E+00 0. -1.
         -5    1    3    3    0  503  0.95955156291E+01 -0.20451727787E+02 -0.61157492679E+02  0.65365709669E+02  0.47000000000E+01 0.  1.
         11    1    4    4    0    0 -0.75470714379E+02 -0.40503216577E+02 -0.41086583460E+02  0.94997087442E+02  0.00000000000E+00 0. -1.
        -12    1    4    4    0    0 -0.18296321057E+03  0.12847251071E+02 -0.15816846030E+03  0.24219382757E+03  0.00000000000E+00 0.  1.
</event>
<event>
12    1  0.8526130E-002  0.3160352E+03  0.7818608E-02  0.1078445E+00
         21   -1    0    0  503  502  0.00000000000E+00  0.00000000000E+00  0.20203572112E+04  0.20203572112E+04  0.00000000000E+00 0. -1.
         21   -1    0    0  501  503 -0.00000000000E+00 -0.00000000000E+00 -0.53085786981E+02  0.53085786981E+02  0.00000000000E+00 0.  1.
          6    2    1    2  501    0  0.25615623671E+02  0.25429291731E+03  0.68010330019E+03  0.74994584475E+03  0.18589573195E+03 0.  0.
         24    2    3    3    0    0  0.61153592758E+02  0.26139046222E+03  0.59844523936E+03  0.66048383444E+03  0.77701064306E+02 0.  0.
         -6    2    1    2    0  502 -0.25615623671E+02 -0.25429291731E+03  0.12871681240E+04  0.13234971534E+04  0.17181934598E+03 0.  0.
        -24    2    5    5    0    0  0.28498261271E+02 -0.13537690917E+03  0.48174159973E+03  0.50752944232E+03  0.79825481368E+02 0.  0.
          5    1    3    3  501    0 -0.35537969088E+02 -0.70975449070E+01  0.81658060823E+02  0.89462010306E+02  0.47000000000E+01 0. -1.
        -11    1    4    4    0    0  0.21501269038E+02  0.86022441867E+02  0.11875527623E+03  0.14820587272E+03  0.00000000000E+00 0.  1.
         12    1    4    4    0    0  0.39652323720E+02  0.17536802035E+03  0.47968996313E+03  0.51227796172E+03  0.00000000000E+00 0. -1.
         -5    1    5    5    0  502 -0.54113884942E+02 -0.11891600814E+03  0.80542652431E+03  0.81596771113E+03  0.47000000000E+01 0.  1.
         11    1    6    6    0    0  0.23175774788E+02  0.10241179522E+01  0.72771522877E+02  0.76379708669E+02  0.00000000000E+00 0. -1.
        -12    1    6    6    0    0  0.53224864832E+01 -0.13640102713E+03  0.40897007686E+03  0.43114973365E+03  0.00000000000E+00 0.  1.
</event>
<event>
12    1  0.8526130E-002  0.2598622E+03  0.7818608E-02  0.1108754E+00
         21   -1    0    0  503  502  0.00000000000E+00  0.00000000000E+00  0.18630366903E+03  0.18630366903E+03  0.00000000000E+00 0. -1.
         21   -1    0    0  501  503 -0.00000000000E+00 -0.00000000000E+00 -0.39371926074E+03  0.39371926074E+03  0.00000000000E+00 0.  1.
          6    2    1    2  501    0 -0.19352100758E+03 -0.36837383121E+02 -0.20354492851E+03  0.33008919361E+03  0.16947260737E+03 0.  0.
         24    2    3    3    0    0 -0.83497327225E+02 -0.44523442896E+01 -0.17849489635E+03  0.21260049165E+03  0.79667521634E+02 0.  0.
         -6    2    1    2    0  502  0.19352100758E+03  0.36837383121E+02 -0.38706632010E+01  0.24993373616E+03  0.15376773807E+03 0.  0.
        -24    2    5    5    0    0  0.19228533314E+03 -0.31599939730E+01  0.47274421833E+01  0.20873501674E+03  0.81020513472E+02 0.  0.
          5    1    3    3  501    0 -0.11002368035E+03 -0.32385038831E+02 -0.25050032164E+02  0.11748870197E+03  0.47000000000E+01 0. -1.
        -13    1    4    4    0    0 -0.68289810859E+02 -0.11576335014E+02 -0.18261470454E+03  0.19530908866E+03  0.00000000000E+00 0.  1.
         14    1    4    4    0    0 -0.15207516366E+02  0.71239907243E+01  0.41198081881E+01  0.17291402990E+02  0.00000000000E+00 0. -1.
         -5    1    5    5    0  502  0.12356744383E+01  0.39997377094E+02 -0.85981053843E+01  0.41198719421E+02  0.47000000000E+01 0.  1.
         13    1    6    6    0    0  0.82066217577E+02  0.15228209225E+02  0.38615513835E+02  0.91966952393E+02  0.00000000000E+00 0. -1.
        -14    1    6    6    0    0  0.11021911556E+03 -0.18388203198E+02 -0.33888071652E+02  0.11676806435E+03  0.00000000000E+00 0.  1.
</event>
<event>
12    1  0.8526130E-002  0.1926819E+03  0.7818608E-02  0.1156174E+00
         21   -1    0    0  503  502  0.00000000000E+00  0.00000000000E+00  0.55923123257E+02  0.55923123257E+02  0.00000000000E+00 0. -1.
         21   -1    0    0  501  503 -0.00000000000E+00 -0.00000000000E+00 -0.73787954621E+03  0.73787954621E+03  0.00000000000E+00 0.  1.
          6    2    1    2  501    0  0.42773482534E+02 -0.74924984778E+02 -0.46771222470E+03  0.50565878809E+03  0.17173456463E+03 0.  0.
         24    2    3    3    0    0  0.83206167574E+02 -0.12523717988E+02 -0.25651475477E+03  0.28170526296E+03  0.80485563475E+02 0.  0.
         -6    2    1    2    0  502 -0.42773482534E+02  0.74924984778E+02 -0.21424419825E+03  0.28814388137E+03  0.17228753796E+03 0.  0.
        -24    2    5    5    0    0 -0.87087348060E+02  0.34659246996E+02 -0.16810278768E+03  0.21240638679E+03  0.89846849288E+02 0.  0.
          5    1    3    3  501    0 -0.40432685040E+02 -0.62401266790E+02 -0.21119746993E+03  0.22395352513E+03  0.47000000000E+01 0. -1.
        -13    1    4    4    0    0  0.26739567847E+02  0.27496586470E+01 -0.19490274863E+03  0.19674767224E+03  0.00000000000E+00 0.  1.
         14    1    4    4    0    0  0.56466599728E+02 -0.15273376635E+02 -0.61612006145E+02  0.84957590714E+02  0.00000000000E+00 0. -1.
         -5    1    5    5    0  502  0.44313865525E+02  0.40265737782E+02 -0.46141410571E+02  0.75737494587E+02  0.47000000000E+01 0.  1.
         13    1    6    6    0    0 -0.44071759378E+02  0.14272282519E+02 -0.10133211716E+02  0.47420459747E+02  0.00000000000E+00 0. -1.
        -14    1    6    6    0    0 -0.43015588682E+02  0.20386964477E+02 -0.15796957597E+03  0.16498592704E+03  0.00000000000E+00 0.  1.
</event>
<event>
12    1  0.8526130E-002  0.2040819E+03  0.7818608E-02  0.1146481E+00
         21   -1    0    0  503  502  0.00000000000E+00  0.00000000000E+00  0.55009879217E+03  0.55009879217E+03  0.00000000000E+00 0.  1.
         21   -1    0    0  501  503 -0.00000000000E+00 -0.00000000000E+00 -0.77208460490E+02  0.77208460490E+02  0.00000000000E+00 0.  1.
          6    2    1    2  501    0 -0.92451701038E+02 -0.59086649951E+02  0.18962799085E+03  0.27858246496E+03  0.17207808008E+03 0.  0.
         24    2    3    3    0    0 -0.22640443066E+02 -0.69060977066E+02  0.34758505351E+02  0.10834807807E+03  0.72450977301E+02 0.  0.
         -6    2    1    2    0  502  0.92451701038E+02  0.59086649951E+02  0.28326234083E+03  0.34872478770E+03  0.17126842849E+03 0.  0.
        -24    2    5    5    0    0  0.53513125243E+02 -0.10259805212E+02  0.23932592778E+03  0.25774324056E+03  0.78649603742E+02 0.  0.
          5    1    3    3  501    0 -0.69811257973E+02  0.99743271150E+01  0.15486948550E+03  0.17023438689E+03  0.47000000000E+01 0. -1.
        -13    1    4    4    0    0  0.15567443203E+02 -0.16034568814E+02  0.36691347622E+02  0.42961700097E+02  0.00000000000E+00 0.  1.
         14    1    4    4    0    0 -0.38207886269E+02 -0.53026408252E+02 -0.19328422709E+01  0.65386377973E+02  0.00000000000E+00 0. -1.
         -5    1    5    5    0  502  0.38938575795E+02  0.69346455163E+02  0.43936413047E+02  0.90981547140E+02  0.47000000000E+01 0.  1.
         13    1    6    6    0    0 -0.17266407536E+02 -0.62672433952E+01  0.97172365170E+02  0.98893254177E+02  0.00000000000E+00 0. -1.
        -14    1    6    6    0    0  0.70779532779E+02 -0.39925618172E+01  0.14215356261E+03  0.15884998638E+03  0.00000000000E+00 0.  1.
</event>
<event>
12    1  0.8526130E-002  0.1963389E+03  0.7818608E-02  0.1153047E+00
         21   -1    0    0  501  502  0.00000000000E+00  0.00000000000E+00  0.10423324197E+04  0.10423324197E+04  0.00000000000E+00 0. -1.
         21   -1    0    0  502  503 -0.00000000000E+00 -0.00000000000E+00 -0.43956452220E+02  0.43956452220E+02  0.00000000000E+00 0. -1.
         -6    2    1    2    0  503  0.94936991834E+02  0.92494425909E+01  0.71705924211E+03  0.74323193869E+03  0.17064927010E+03 0.  0.
        -24    2    3    3    0    0  0.30597407877E+02  0.64933248089E+02  0.46458634732E+03  0.47676445312E+03  0.79443952402E+02 0.  0.
          6    2    1    2  501    0 -0.94936991834E+02 -0.92494425909E+01  0.28131672540E+03  0.34305693326E+03  0.17161111521E+03 0.  0.
         24    2    5    5    0    0 -0.93540159743E+02  0.31569789652E+02  0.27288665793E+03  0.30108888710E+03  0.80255696113E+02 0.  0.
          5    1    5    5  501    0 -0.13968320909E+01 -0.40819232243E+02  0.84300674733E+01  0.41968046159E+02  0.47000000000E+01 0. -1.
        -11    1    6    6    0    0 -0.10814122725E+03  0.24394077546E+02  0.23376703861E+03  0.25872113248E+03  0.00000000000E+00 0.  1.
         12    1    6    6    0    0  0.14601067504E+02  0.71757121061E+01  0.39119619312E+02  0.42367754621E+02  0.00000000000E+00 0. -1.
         -5    1    3    3    0  503  0.64339583956E+02 -0.55683805498E+02  0.25247289479E+03  0.26646748556E+03  0.47000000000E+01 0.  1.
         13    1    4    4    0    0  0.53557851837E+02  0.27432314378E+02  0.32117284661E+03  0.32676133915E+03  0.00000000000E+00 0. -1.
        -14    1    4    4    0    0 -0.22960443960E+02  0.37500933710E+02  0.14341350071E+03  0.15000311397E+03  0.00000000000E+00 0.  1.
</event>
<event>
12    1  0.8526130E-002  0.1980169E+03  0.7818608E-02  0.1151921E+00
         21   -1    0    0  501  502  0.00000000000E+00  0.00000000000E+00  0.80697677610E+03  0.80697677610E+03  0.00000000000E+00 0. -1.
         21   -1    0    0  502  503 -0.00000000000E+00 -0.00000000000E+00 -0.50160288742E+02  0.50160288742E+02  0.00000000000E+00 0. -1.
         -6    2    1    2    0  503 -0.93659499345E+02  0.31655103310E+02  0.28781025330E+03  0.34804225487E+03  0.16889204210E+03 0.  0.
        -24    2    3    3    0    0 -0.49092703875E+02 -0.46345063855E+02  0.14318374785E+03  0.17772155320E+03  0.80779987043E+02 0.  0.
          6    2    1    2  501    0  0.93659499345E+02 -0.31655103310E+02  0.46900623406E+03  0.50909480997E+03  0.17157077425E+03 0.  0.
         24    2    5    5    0    0 -0.25338297523E+01  0.27125751584E+02  0.15526159184E+03  0.17567894955E+03  0.77554527407E+02 0.  0.
          5    1    5    5  501    0  0.96193329097E+02 -0.58780854894E+02  0.31374464222E+03  0.33341586043E+03  0.47000000000E+01 0. -1.
        -13    1    6    6    0    0 -0.30062610856E+02 -0.93989638022E+01  0.94608362453E+02  0.99713807159E+02  0.00000000000E+00 0.  1.
         14    1    6    6    0    0  0.27528781104E+02  0.36524715386E+02  0.60653229386E+02  0.75965142388E+02  0.00000000000E+00 0. -1.
         -5    1    3    3    0  503 -0.44566795470E+02  0.78000167165E+02  0.14462650545E+03  0.17032070166E+03  0.47000000000E+01 0.  1.
         11    1    4    4    0    0 -0.30134874182E+02 -0.39623369557E+02  0.21227513736E+02  0.54117736431E+02  0.00000000000E+00 0. -1.
        -12    1    4    4    0    0 -0.18957829693E+02 -0.67216942985E+01  0.12195623412E+03  0.12360381677E+03  0.00000000000E+00 0.  1.
</event>
<event>
12    1  0.8526130E-002  0.2053778E+03  0.7818608E-02  0.1145352E+00
         21   -1    0    0  501  502  0.00000000000E+00  0.00000000000E+00  0.10595466625E+04  0.10595466625E+04  0.00000000000E+00 0.  1.
         21   -1    0    0  502  503 -0.00000000000E+00 -0.00000000000E+00 -0.13547344962E+03  0.13547344962E+03  0.00000000000E+00 0.  1.
         -6    2    1    2    0  503 -0.10937173473E+03 -0.23812829871E+02 -0.40128924660E+02  0.20926153610E+03  0.17219417142E+03 0.  0.
        -24    2    3    3    0    0 -0.17286834526E+02 -0.19003841589E+02  0.33931025388E+02  0.90898867086E+02  0.80320040528E+02 0.  0.
          6    2    1    2  501    0  0.10937173473E+03  0.23812829871E+02  0.96420213750E+03  0.98575857599E+03  0.17177013985E+03 0.  0.
         24    2    5    5    0    0 -0.37701599969E+01  0.60343982205E+01  0.31473579877E+03  0.32625438637E+03  0.85631031357E+02 0.  0.
          5    1    5    5  501    0  0.11314189473E+03  0.17778431650E+02  0.64946633873E+03  0.65950418962E+03  0.47000000000E+01 0. -1.
        -11    1    6    6    0    0 -0.21454197939E+02 -0.17085992827E+02  0.27816392583E+03  0.27951276070E+03  0.00000000000E+00 0.  1.
         12    1    6    6    0    0  0.17684037942E+02  0.23120391048E+02  0.36571872933E+02  0.46741625667E+02  0.00000000000E+00 0. -1.
         -5    1    3    3    0  503 -0.92084900207E+02 -0.48089882816E+01 -0.74059950048E+02  0.11836266901E+03  0.47000000000E+01 0.  1.
         13    1    4    4    0    0 -0.25430598912E+02 -0.42946077820E+02  0.41053547624E+02  0.64625650741E+02  0.00000000000E+00 0. -1.
        -14    1    4    4    0    0  0.81437643857E+01  0.23942236230E+02 -0.71225222363E+01  0.26273216345E+02  0.00000000000E+00 0.  1.
</event>
<event>
12    1  0.8526130E-002  0.2563890E+03  0.7818608E-02  0.1109469E+00
         21   -1    0    0  501  502  0.00000000000E+00  0.00000000000E+00  0.12460749152E+04  0.12460749152E+04  0.00000000000E+00 0. -1.
         21   -1    0    0  502  503 -0.00000000000E+00 -0.00000000000E+00 -0.65816005881E+02  0.65816005881E+02  0.00000000000E+00 0. -1.
         -6    2    1    2    0  503  0.12007046277E+03 -0.14688242959E+03  0.29504675924E+03  0.39029672548E+03  0.17113614355E+03 0.  0.
        -24    2    3    3    0    0  0.14449558115E+03 -0.13047920440E+03  0.19936424154E+03  0.29008252290E+03  0.80610008920E+02 0.  0.
          6    2    1    2  501    0 -0.12007046277E+03  0.14688242959E+03  0.88521215010E+03  0.92159419562E+03  0.17246433420E+03 0.  0.
         24    2    5    5    0    0 -0.62396947563E+02  0.14652857119E+03  0.47446926348E+03  0.50679524615E+03  0.79726647341E+02 0.  0.
          5    1    5    5  501    0 -0.57673515207E+02  0.35385839824E+00  0.41074288662E+03  0.41479894947E+03  0.47000000000E+01 0. -1.
        -11    1    6    6    0    0  0.74744379746E+01  0.25828193676E+02  0.27036615498E+02  0.38130583384E+02  0.00000000000E+00 0.  1.
         12    1    6    6    0    0 -0.69871385538E+02  0.12070037752E+03  0.44743264798E+03  0.46866466277E+03  0.00000000000E+00 0. -1.
         -5    1    3    3    0  503 -0.24425118377E+02 -0.16403225193E+02  0.95682517696E+02  0.10021420257E+03  0.47000000000E+01 0.  1.
         13    1    4    4    0    0  0.10667184255E+03 -0.12038492108E+03  0.19161499481E+03  0.25017537340E+03  0.00000000000E+00 0. -1.
        -14    1    4    4    0    0  0.37823738594E+02 -0.10094283313E+02  0.77492467288E+01  0.39907149506E+02  0.00000000000E+00 0.  1.
</event>
<event>
12    1  0.8526130E-002  0.2026565E+03  0.7818608E-02  0.1147535E+00
         21   -1    0    0  501  502  0.00000000000E+00  0.00000000000E+00  0.18236237129E+03  0.18236237129E+03  0.00000000000E+00 0. -1.
         21   -1    0    0  502  503 -0.00000000000E+00 -0.00000000000E+00 -0.24507855256E+03  0.24507855256E+03  0.00000000000E+00 0.  1.
         -6    2    1    2    0  503  0.38336331200E+02 -0.99218128962E+02 -0.92356597164E+02  0.22262834175E+03  0.17239410114E+03 0.  0.
        -24    2    3    3    0    0 -0.27878561620E+02 -0.33305038851E+02 -0.96398022230E+01  0.97755984347E+02  0.87045200200E+02 0.  0.
          6    2    1    2  501    0 -0.38336331200E+02  0.99218128962E+02  0.29640415897E+02  0.20481258209E+03  0.17249848731E+03 0.  0.
         24    2    5    5    0    0 -0.24424390237E+02  0.12549232200E+02 -0.39146752304E+02  0.93193568137E+02  0.79990867346E+02 0.  0.
          5    1    5    5  501    0 -0.13911940963E+02  0.86668896762E+02  0.68787168201E+02  0.11161901396E+03  0.47000000000E+01 0. -1.
        -13    1    6    6    0    0 -0.48143221723E+02 -0.11872179072E+02 -0.16307512208E+02  0.52198212500E+02  0.00000000000E+00 0.  1.
         14    1    6    6    0    0  0.23718831486E+02  0.24421411272E+02 -0.22839240096E+02  0.40995355637E+02  0.00000000000E+00 0. -1.
         -5    1    3    3    0  503  0.66214892820E+02 -0.65913090112E+02 -0.82716794941E+02  0.12487235741E+03  0.47000000000E+01 0.  1.
         11    1    4    4    0    0 -0.30886116751E+02  0.17467892969E+02  0.18087123058E+02  0.39827421625E+02  0.00000000000E+00 0. -1.
        -12    1    4    4    0    0  0.30075551310E+01 -0.50772931820E+02 -0.27726925281E+02  0.57928562722E+02  0.00000000000E+00 0.  1.
</event>
<event>
12    1  0.8526130E-002  0.2129149E+03  0.7818608E-02  0.1139855E+00
         21   -1    0    0  503  502  0.00000000000E+00  0.00000000000E+00  0.25528013087E+02  0.25528013087E+02  0.00000000000E+00 0.  1.
         21   -1    0    0  501  503 -0.00000000000E+00 -0.00000000000E+00 -0.17756029867E+04  0.17756029867E+04  0.00000000000E+00 0. -1.
          6    2    1    2  501    0  0.32070002525E+02  0.11901113012E+03 -0.76378054457E+03  0.79211689103E+03  0.16998916036E+03 0.  0.
         24    2    3    3    0    0  0.50220097363E+02  0.14706555821E+03 -0.67636430979E+03  0.69841435649E+03  0.78508580397E+02 0.  0.
         -6    2    1    2    0  502 -0.32070002525E+02 -0.11901113012E+03 -0.98629442904E+03  0.10090141088E+04  0.17361058939E+03 0.  0.
        -24    2    5    5    0    0  0.21617077263E+02 -0.12977504302E+03 -0.57669145537E+03  0.59574077257E+03  0.70888458783E+02 0.  0.
          5    1    3    3  501    0 -0.18150094838E+02 -0.28054428081E+02 -0.87416234779E+02  0.93702534547E+02  0.47000000000E+01 0. -1.
        -13    1    4    4    0    0  0.56436153136E+02  0.65195522982E+02 -0.25676565155E+03  0.27085807246E+03  0.00000000000E+00 0.  1.
         14    1    4    4    0    0 -0.62160557723E+01  0.81870035224E+02 -0.41959865824E+03  0.42755628403E+03  0.00000000000E+00 0. -1.
         -5    1    5    5    0  502 -0.53687079788E+02  0.10763912894E+02 -0.40960297367E+03  0.41327333618E+03  0.47000000000E+01 0.  1.
         13    1    6    6    0    0 -0.15338079168E+02 -0.91696733610E+02 -0.30259506107E+03  0.31655539580E+03  0.00000000000E+00 0. -1.
        -14    1    6    6    0    0  0.36955156431E+02 -0.38078309408E+02 -0.27409639430E+03  0.27918537677E+03  0.00000000000E+00 0.  1.
</event>
<event>
12    1  0.8526130E-002  0.3122365E+03  0.7818608E-02  0.1079287E+00
         21   -1    0    0  503  502  0.00000000000E+00  0.00000000000E+00  0.19832795411E+03  0.19832795411E+03  0.00000000000E+00 0.  1.
         21   -1    0    0  501  503 -0.00000000000E+00 -0.00000000000E+00 -0.49811892949E+03  0.49811892949E+03  0.00000000000E+00 0.  1.
          6    2    1    2  501    0 -0.25970964164E+03 -0.19277119012E+02 -0.19014283024E+03  0.36551739656E+03  0.17212776074E+03 0.  0.
         24    2    3    3    0    0 -0.21431528670E+03 -0.55949955119E+02 -0.94070333066E+02  0.25301157857E+03  0.78129326999E+02 0.  0.
         -6    2    1    2    0  502  0.25970964164E+03  0.19277119012E+02 -0.10964814515E+03  0.33092948703E+03  0.17225244374E+03 0.  0.
        -24    2    5    5    0    0  0.40032001969E+02  0.11654144659E+02  0.99464529356E+01  0.80646980650E+02  0.68312687640E+02 0.  0.
          5    1    3    3  501    0 -0.45394354945E+02  0.36672836107E+02 -0.96072497172E+02  0.11250581799E+03  0.47000000000E+01 0. -1.
        -11    1    4    4    0    0 -0.13128708321E+03 -0.14314746497E+02 -0.90428035829E+02  0.16005761415E+03  0.00000000000E+00 0.  1.
         12    1    4    4    0    0 -0.83028203490E+02 -0.41635208621E+02 -0.36422972373E+01  0.92953964417E+02  0.00000000000E+00 0. -1.
         -5    1    5    5    0  502  0.21967763968E+03  0.76229743524E+01 -0.11959459808E+03  0.25028250638E+03  0.47000000000E+01 0.  1.
         11    1    6    6    0    0  0.19653340897E+01 -0.22964211651E+02  0.17099039444E+02  0.28698339755E+02  0.00000000000E+00 0. -1.
        -12    1    6    6    0    0  0.38066667879E+02  0.34618356310E+02 -0.71525865081E+01  0.51948640894E+02  0.00000000000E+00 0.  1.
</event>
<event>
12    1  0.8526130E-002  0.1956125E+03  0.7818608E-02  0.1153757E+00
         21   -1    0    0  503  502  0.00000000000E+00  0.00000000000E+00  0.18641589593E+04  0.18641589593E+04  0.00000000000E+00 0. -1.
         21   -1    0    0  501  503 -0.00000000000E+00 -0.00000000000E+00 -0.35468576901E+02  0.35468576901E+02  0.00000000000E+00 0.  1.
          6    2    1    2  501    0 -0.49594385347E+02  0.75951279599E+02  0.29363738513E+03  0.35216123063E+03  0.17194888335E+03 0.  0.
         24    2    3    3    0    0 -0.18096858537E+01  0.10172441397E+03  0.13625179408E+03  0.18560809728E+03  0.74395450303E+02 0.  0.
         -6    2    1    2    0  502  0.49594385347E+02 -0.75951279599E+02  0.15350529973E+04  0.15474663056E+04  0.17330915297E+03 0.  0.
        -24    2    5    5    0    0  0.83788088663E+02 -0.86229206265E+02  0.90908171641E+03  0.92045994229E+03  0.79755993128E+02 0.  0.
          5    1    3    3  501    0 -0.47784699493E+02 -0.25773134369E+02  0.15738559105E+03  0.16655313335E+03  0.47000000000E+01 0. -1.
        -11    1    4    4    0    0 -0.30998454331E+02  0.17776504413E+02  0.27097239994E+02  0.44846055516E+02  0.00000000000E+00 0.  1.
         12    1    4    4    0    0  0.29188768477E+02  0.83947909555E+02  0.10915455409E+03  0.14076204176E+03  0.00000000000E+00 0. -1.
         -5    1    5    5    0  502 -0.34193703316E+02  0.10277926666E+02  0.62597128089E+03  0.62700636331E+03  0.47000000000E+01 0.  1.
         13    1    6    6    0    0 -0.13581993560E+02 -0.19615766493E+02  0.22702272294E+03  0.22827300667E+03  0.00000000000E+00 0. -1.
        -14    1    6    6    0    0  0.97370082222E+02 -0.66613439772E+02  0.68205899347E+03  0.69218693562E+03  0.00000000000E+00 0.  1.
</event>
<event>
12    1  0.8526130E-002  0.2882740E+03  0.7818608E-02  0.1091753E+00
         21   -1    0    0  501  502  0.00000000000E+00  0.00000000000E+00  0.26308010189E+03  0.26308010189E+03  0.00000000000E+00 0. -1.
         21   -1    0    0  502  503 -0.00000000000E+00 -0.00000000000E+00 -0.74404190420E+03  0.74404190420E+03  0.00000000000E+00 0. -1.
         -6    2    1    2    0  503  0.19263699506E+03 -0.11995679839E+03 -0.62363976593E+03  0.68547168557E+03  0.17159903475E+03 0.  0.
        -24    2    3    3    0    0  0.84433449091E+02 -0.98277781838E+02 -0.22445594209E+03  0.27128839000E+03  0.80183482583E+02 0.  0.
          6    2    1    2  501    0 -0.19263699506E+03  0.11995679839E+03  0.14267796363E+03  0.32165032052E+03  0.17777311956E+03 0.  0.
         24    2    5    5    0    0 -0.83265071208E+02  0.83721656227E+02  0.66734050834E+01  0.14334010432E+03  0.80990514054E+02 0.  0.
          5    1    5    5  501    0 -0.10937192385E+03  0.36235142167E+02  0.13600455854E+03  0.17831021620E+03  0.47000000000E+01 0. -1.
        -11    1    6    6    0    0 -0.34654106525E-01  0.12501349168E+01 -0.22546720586E+02  0.22581378333E+02  0.00000000000E+00 0.  1.
         12    1    6    6    0    0 -0.83230417101E+02  0.82471521310E+02  0.29220125670E+02  0.12075872599E+03  0.00000000000E+00 0. -1.
         -5    1    3    3    0  503  0.10820354597E+03 -0.21679016556E+02 -0.39918382384E+03  0.41418329558E+03  0.47000000000E+01 0.  1.
         11    1    4    4    0    0  0.77950347836E+02 -0.55832874508E+02 -0.20019263285E+03  0.22196994582E+03  0.00000000000E+00 0. -1.
        -12    1    4    4    0    0  0.64831012552E+01 -0.42444907330E+02 -0.24263309245E+02  0.49318444173E+02  0.00000000000E+00 0.  1.
</event>
<event>
12    1  0.8526130E-002  0.2398227E+03  0.7818608E-02  0.1119934E+00
         21   -1    0    0  503  502  0.00000000000E+00  0.00000000000E+00  0.80058734810E+02  0.80058734810E+02  0.00000000000E+00 0. -1.
         21   -1    0    0  501  503 -0.00000000000E+00 -0.00000000000E+00 -0.11532989609E+04  0.11532989609E+04  0.00000000000E+00 0. -1.
          6    2    1    2  501    0 -0.14643958636E+03  0.80812063160E+02 -0.91557472286E+03  0.94646288084E+03  0.17187137535E+03 0.  0.
         24    2    3    3    0    0 -0.76047994892E+02  0.18747917640E+02 -0.72950716748E+03  0.73801586246E+03  0.79698957895E+02 0.  0.
         -6    2    1    2    0  502  0.14643958636E+03 -0.80812063160E+02 -0.15766550323E+03  0.28689481487E+03  0.17168308561E+03 0.  0.
        -24    2    5    5    0    0  0.44681360082E+02 -0.97959356274E+02 -0.68076817008E+02  0.15015788140E+03  0.79501427104E+02 0.  0.
          5    1    3    3  501    0 -0.70391591468E+02  0.62064145519E+02 -0.18606755538E+03  0.20844701838E+03  0.47000000000E+01 0. -1.
        -11    1    4    4    0    0  0.11501018780E+02  0.20019727634E+02 -0.19851667835E+03  0.19985478356E+03  0.00000000000E+00 0.  1.
         12    1    4    4    0    0 -0.87549013671E+02 -0.12718099936E+01 -0.53099048913E+03  0.53816107890E+03  0.00000000000E+00 0. -1.
         -5    1    5    5    0  502  0.10175822628E+03  0.17147293114E+02 -0.89588686226E+02  0.13673693347E+03  0.47000000000E+01 0.  1.
         11    1    6    6    0    0  0.34214210684E+02 -0.89187442406E+01  0.33694657583E+01  0.35517735162E+02  0.00000000000E+00 0. -1.
        -12    1    6    6    0    0  0.10467149398E+02 -0.89040612033E+02 -0.71446282766E+02  0.11464014624E+03  0.00000000000E+00 0.  1.
</event>
<event>
12    1  0.8526130E-002  0.2858282E+03  0.7818608E-02  0.1092555E+00
         21   -1    0    0  503  502  0.00000000000E+00  0.00000000000E+00  0.30704817074E+03  0.30704817074E+03  0.00000000000E+00 0. -1.
         21   -1    0    0  501  503 -0.00000000000E+00 -0.00000000000E+00 -0.26615575060E+03  0.26615575060E+03  0.00000000000E+00 0. -1.
          6    2    1    2  501    0 -0.12167061377E+03 -0.19419143433E+03  0.13987884992E+02  0.28611226255E+03  0.17073521732E+03 0.  0.
         24    2    3    3    0    0 -0.10399421912E+03 -0.64598888712E+02 -0.26960272513E+02  0.14897902657E+03  0.80498944284E+02 0.  0.
         -6    2    1    2    0  502  0.12167061377E+03  0.19419143433E+03  0.26904535141E+02  0.28709165879E+03  0.17083241822E+03 0.  0.
        -24    2    5    5    0    0  0.18655838081E+02  0.11759279708E+03  0.41148787401E+02  0.15784621802E+03  0.95110985793E+02 0.  0.
          5    1    3    3  501    0 -0.17676394647E+02 -0.12959254562E+03  0.40948157506E+02  0.13713323598E+03  0.47000000000E+01 0. -1.
        -11    1    4    4    0    0 -0.89183371502E+02 -0.71461234177E+02 -0.46620592956E+02  0.12342552990E+03  0.00000000000E+00 0.  1.
         12    1    4    4    0    0 -0.14810847616E+02  0.68623454642E+01  0.19660320442E+02  0.25553496674E+02  0.00000000000E+00 0. -1.
         -5    1    5    5    0  502  0.10301477568E+03  0.76598637247E+02 -0.14244252260E+02  0.12924544077E+03  0.47000000000E+01 0.  1.
         11    1    6    6    0    0  0.56559387727E+02  0.66601535519E+02  0.34584022915E+02  0.93972248640E+02  0.00000000000E+00 0. -1.
        -12    1    6    6    0    0 -0.37903549646E+02  0.50991261563E+02  0.65647644863E+01  0.63873969380E+02  0.00000000000E+00 0.  1.
</event>
<event>
12    1  0.8526130E-002  0.1771436E+03  0.7818608E-02  0.1170616E+00
         21   -1    0    0  503  502  0.00000000000E+00  0.00000000000E+00  0.69244485920E+02  0.69244485920E+02  0.00000000000E+00 0.  1.
         21   -1    0    0  501  503 -0.00000000000E+00 -0.00000000000E+00 -0.65025640076E+03  0.65025640076E+03  0.00000000000E+00 0. -1.
          6    2    1    2  501    0  0.32604340687E+02 -0.24255503728E+02 -0.48870446143E+03  0.51981911020E+03  0.17241950068E+03 0.  0.
         24    2    3    3    0    0 -0.37426333651E+02  0.14113260064E+01 -0.36084454558E+03  0.37172005694E+03  0.81020320675E+02 0.  0.
         -6    2    1    2    0  502 -0.32604340687E+02  0.24255503728E+02 -0.92307453414E+02  0.19968177648E+03  0.17233912327E+03 0.  0.
        -24    2    5    5    0    0  0.41082312890E+01  0.75757212450E+02 -0.37043149192E+02  0.11556000603E+03  0.78904291961E+02 0.  0.
          5    1    3    3  501    0  0.70030674337E+02 -0.25666829735E+02 -0.12785991585E+03  0.14809905326E+03  0.47000000000E+01 0. -1.
        -11    1    4    4    0    0 -0.95444807887E+01  0.13248964867E+02 -0.91387340501E+01  0.18712259180E+02  0.00000000000E+00 0.  1.
         12    1    4    4    0    0 -0.27881852862E+02 -0.11837638861E+02 -0.35170581153E+03  0.35300779776E+03  0.00000000000E+00 0. -1.
         -5    1    5    5    0  502 -0.36712571976E+02 -0.51501708722E+02 -0.55264304222E+02  0.84121770449E+02  0.47000000000E+01 0.  1.
         11    1    6    6    0    0  0.10855242195E+02  0.68237340285E+02 -0.59341222132E+02  0.91079918404E+02  0.00000000000E+00 0. -1.
        -12    1    6    6    0    0 -0.67470109059E+01  0.75198721644E+01  0.22298072940E+02  0.24480087630E+02  0.00000000000E+00 0.  1.
</event>
<event>
12    1  0.8526130E-002  0.1982457E+03  0.7818608E-02  0.1151600E+00
         21   -1    0    0  501  502  0.00000000000E+00  0.00000000000E+00  0.13547494768E+03  0.13547494768E+03  0.00000000000E+00 0. -1.
         21   -1    0    0  502  503 -0.00000000000E+00 -0.00000000000E+00 -0.32263620764E+03  0.32263620764E+03  0.00000000000E+00 0. -1.
         -6    2    1    2    0  503  0.90834401811E+02  0.22514128358E+02 -0.18425875017E+02  0.19910020140E+03  0.17476728183E+03 0.  0.
        -24    2    3    3    0    0  0.24434808132E+02 -0.31526839717E+02  0.38934280746E+02  0.95942023144E+02  0.78089641546E+02 0.  0.
          6    2    1    2  501    0 -0.90834401811E+02 -0.22514128358E+02 -0.16873538494E+03  0.25901095392E+03  0.17279256233E+03 0.  0.
         24    2    5    5    0    0 -0.10517947159E+03 -0.81506661665E+01 -0.18878428936E+03  0.23009489192E+03  0.78581147731E+02 0.  0.
          5    1    5    5  501    0  0.14345069782E+02 -0.14363462191E+02  0.20048904419E+02  0.28916062000E+02  0.47000000000E+01 0. -1.
        -13    1    6    6    0    0 -0.58801183311E+02 -0.22542600016E+02 -0.42531769005E+02  0.75991442603E+02  0.00000000000E+00 0.  1.
         14    1    6    6    0    0 -0.46378288282E+02  0.14391933849E+02 -0.14625252035E+03  0.15410344932E+03  0.00000000000E+00 0. -1.
         -5    1    3    3    0  503  0.66399593679E+02  0.54040968075E+02 -0.57360155763E+02  0.10315817825E+03  0.47000000000E+01 0.  1.
         11    1    4    4    0    0  0.34223291515E+02  0.16618288911E+02  0.22155674406E+02  0.44025846010E+02  0.00000000000E+00 0. -1.
        -12    1    4    4    0    0 -0.97884833833E+01 -0.48145128628E+02  0.16778606340E+02  0.51916177135E+02  0.00000000000E+00 0.  1.
</event>
<event>
12    1  0.8526130E-002  0.1992676E+03  0.7818608E-02  0.1151005E+00
         21   -1    0    0  501  502  0.00000000000E+00  0.00000000000E+00  0.92123911131E+03  0.92123911131E+03  0.00000000000E+00 0.  1.
         21   -1    0    0  502  503 -0.00000000000E+00 -0.00000000000E+00 -0.57077908527E+02  0.57077908527E+02  0.00000000000E+00 0.  1.
         -6    2    1    2    0  503 -0.83661372499E+02 -0.49677879556E+02  0.67724772593E+03  0.70510609882E+03  0.17042010252E+03 0.  0.
        -24    2    3    3    0    0 -0.61583831470E+02  0.35992060630E+02  0.32907463539E+03  0.34583830531E+03  0.78905139502E+02 0.  0.
          6    2    1    2  501    0  0.83661372499E+02  0.49677879556E+02  0.18691347686E+03  0.27321092102E+03  0.17389779346E+03 0.  0.
         24    2    5    5    0    0  0.10773507748E+03  0.80004224016E+02  0.12398386172E+03  0.19917405925E+03  0.79314469871E+02 0.  0.
          5    1    5    5  501    0 -0.24073704985E+02 -0.30326344459E+02  0.62929615132E+02  0.74036861769E+02  0.47000000000E+01 0. -1.
        -11    1    6    6    0    0  0.37289936594E+02  0.46257134915E+02  0.88905307053E+01  0.60077478625E+02  0.00000000000E+00 0.  1.
         12    1    6    6    0    0  0.70445140890E+02  0.33747089101E+02  0.11509333102E+03  0.13909658063E+03  0.00000000000E+00 0. -1.
         -5    1    3    3    0  503 -0.22077541029E+02 -0.85669940187E+02  0.34817309055E+03  0.35926779351E+03  0.47000000000E+01 0.  1.
         11    1    4    4    0    0 -0.42842986426E+02 -0.39134547644E+01  0.63957373545E+02  0.77080362252E+02  0.00000000000E+00 0. -1.
        -12    1    4    4    0    0 -0.18740845044E+02  0.39905515395E+02  0.26511726184E+03  0.26875794306E+03  0.00000000000E+00 0.  1.
</event>
<event>
12    1  0.8526130E-002  0.2974250E+03  0.7818608E-02  0.1086633E+00
         21   -1    0    0  501  502  0.00000000000E+00  0.00000000000E+00  0.11210967163E+03  0.11210967163E+03  0.00000000000E+00 0.  1.
         21   -1    0    0  502  503 -0.00000000000E+00 -0.00000000000E+00 -0.17159495221E+04  0.17159495221E+04  0.00000000000E+00 0. -1.
         -6    2    1    2    0  503  0.28808700279E+02 -0.24082920048E+03 -0.14739538869E+04  0.15035102718E+04  0.17080524507E+03 0.  0.
        -24    2    3    3    0    0 -0.33211144074E+02 -0.16752587605E+03 -0.11573172605E+04  0.11726013997E+04  0.80267689037E+02 0.  0.
          6    2    1    2  501    0 -0.28808700279E+02  0.24082920048E+03 -0.12988596353E+03  0.32454892186E+03  0.17214236592E+03 0.  0.
         24    2    5    5    0    0 -0.44554081870E+02  0.25273639183E+03 -0.13887592028E+03  0.30235415739E+03  0.79188163813E+02 0.  0.
          5    1    5    5  501    0  0.15745381591E+02 -0.11907191357E+02  0.89899567559E+01  0.22194764471E+02  0.47000000000E+01 0. -1.
        -11    1    6    6    0    0 -0.67219407150E+02  0.19704247953E+03 -0.10222947993E+03  0.23193760800E+03  0.00000000000E+00 0.  1.
         12    1    6    6    0    0  0.22665325280E+02  0.55693912301E+02 -0.36646440354E+02  0.70416549390E+02  0.00000000000E+00 0. -1.
         -5    1    3    3    0  503  0.62019844353E+02 -0.73303324425E+02 -0.31663662642E+03  0.33090887214E+03  0.47000000000E+01 0.  1.
         11    1    4    4    0    0  0.12763502054E+02 -0.12180158241E+03 -0.68621357271E+03  0.69705638211E+03  0.00000000000E+00 0. -1.
        -12    1    4    4    0    0 -0.45974646128E+02 -0.45724293644E+02 -0.47110368777E+03  0.47554501758E+03  0.00000000000E+00 0.  1.
</event>
<event>
12    1  0.8526130E-002  0.1883566E+03  0.7818608E-02  0.1160114E+00
         21   -1    0    0  501  502  0.00000000000E+00  0.00000000000E+00  0.45453814854E+02  0.45453814854E+02  0.00000000000E+00 0.  1.
         21   -1    0    0  502  503 -0.00000000000E+00 -0.00000000000E+00 -0.92296237358E+03  0.92296237358E+03  0.00000000000E+00 0.  1.
         -6    2    1    2    0  503 -0.44444074649E+02  0.60998269843E+02 -0.63162117848E+03  0.65910812405E+03  0.17257503122E+03 0.  0.
        -24    2    3    3    0    0  0.22072443553E-01 -0.15942116675E+01 -0.10656673547E+03  0.12844880292E+03  0.71694378209E+02 0.  0.
          6    2    1    2  501    0  0.44444074649E+02 -0.60998269843E+02 -0.24588738025E+03  0.30930806438E+03  0.17179874921E+03 0.  0.
         24    2    5    5    0    0  0.62577401538E+02 -0.65888286048E+02 -0.25844323833E+03  0.28623276645E+03  0.82940290155E+02 0.  0.
          5    1    5    5  501    0 -0.18133326890E+02  0.48900162045E+01  0.12555858076E+02  0.23075297930E+02  0.47000000000E+01 0. -1.
        -11    1    6    6    0    0  0.45122495801E+02 -0.24020302759E+02 -0.45253652626E+02  0.68270840393E+02  0.00000000000E+00 0.  1.
         12    1    6    6    0    0  0.17454905737E+02 -0.41867983288E+02 -0.21318958570E+03  0.21796192606E+03  0.00000000000E+00 0. -1.
         -5    1    3    3    0  503 -0.44466147092E+02  0.62592481511E+02 -0.52505444301E+03  0.53065932113E+03  0.47000000000E+01 0.  1.
         13    1    4    4    0    0 -0.17130233121E+02 -0.31844321847E+02 -0.63734632443E+02  0.73277616591E+02  0.00000000000E+00 0. -1.
        -14    1    4    4    0    0  0.17152305564E+02  0.30250110179E+02 -0.42832103024E+02  0.55171186334E+02  0.00000000000E+00 0.  1.
</event>
<event>
12    1  0.8526130E-002  0.3951888E+03  0.7818608E-02  0.1045474E+00
         21   -1    0    0  503  502  0.00000000000E+00  0.00000000000E+00  0.20865162542E+03  0.20865162542E+03  0.00000000000E+00 0.  1.
         21   -1    0    0  501  503 -0.00000000000E+00 -0.00000000000E+00 -0.75032196421E+03  0.75032196421E+03  0.00000000000E+00 0.  1.
          6    2    1    2  501    0  0.31796936036E+03 -0.15940804667E+03 -0.24501413762E+03  0.46482882104E+03  0.17180938788E+03 0.  0.
         24    2    3    3    0    0  0.32845303781E+03 -0.12814839772E+03 -0.23066304301E+03  0.42856427827E+03  0.78476055640E+02 0.  0.
         -6    2    1    2    0  502 -0.31796936036E+03  0.15940804667E+03 -0.29665620117E+03  0.49414476859E+03  0.17221704665E+03 0.  0.
        -24    2    5    5    0    0 -0.17752694048E+03  0.11112229423E+03 -0.97915576946E+02  0.24600063122E+03  0.84052789862E+02 0.  0.
          5    1    3    3  501    0 -0.10483677456E+02 -0.31259648957E+02 -0.14351094611E+02  0.36264542772E+02  0.47000000000E+01 0. -1.
        -11    1    4    4    0    0  0.19795184873E+03 -0.10621444705E+03 -0.11290375621E+03  0.25142335083E+03  0.00000000000E+00 0.  1.
         12    1    4    4    0    0  0.13050118908E+03 -0.21933950669E+02 -0.11775928680E+03  0.17714092743E+03  0.00000000000E+00 0. -1.
         -5    1    5    5    0  502 -0.14044241988E+03  0.48285752446E+02 -0.19874062422E+03  0.24814413737E+03  0.47000000000E+01 0.  1.
         13    1    6    6    0    0 -0.32623291639E+02  0.29769384069E+02 -0.61773266278E+02  0.75937025303E+02  0.00000000000E+00 0. -1.
        -14    1    6    6    0    0 -0.14490364884E+03  0.81352910160E+02 -0.36142310667E+02  0.17006360592E+03  0.00000000000E+00 0.  1.
</event>
<event>
12    1  0.8526130E-002  0.1990910E+03  0.7818608E-02  0.1150582E+00
         21   -1    0    0  501  502  0.00000000000E+00  0.00000000000E+00  0.21654453128E+03  0.21654453128E+03  0.00000000000E+00 0.  1.
         21   -1    0    0  502  503 -0.00000000000E+00 -0.00000000000E+00 -0.31721721698E+03  0.31721721698E+03  0.00000000000E+00 0.  1.
         -6    2    1    2    0  503  0.29807485061E+02  0.95869315394E+02 -0.22413812996E+03  0.29979178397E+03  0.17192382218E+03 0.  0.
        -24    2    3    3    0    0  0.26955258341E+02  0.18633772079E+02 -0.30601522780E+02  0.91340416339E+02  0.79578986211E+02 0.  0.
          6    2    1    2  501    0 -0.29807485061E+02 -0.95869315394E+02  0.12346544426E+03  0.23396996428E+03  0.17151914313E+03 0.  0.
         24    2    5    5    0    0  0.13353957983E+02 -0.49423044630E+02  0.13866011514E+03  0.16860074938E+03  0.81108690210E+02 0.  0.
          5    1    5    5  501    0 -0.43161443044E+02 -0.46446270763E+02 -0.15194670883E+02  0.65369214900E+02  0.47000000000E+01 0. -1.
        -11    1    6    6    0    0  0.34664972161E+02 -0.11972593669E+02  0.18761929361E+02  0.41194821123E+02  0.00000000000E+00 0.  1.
         12    1    6    6    0    0 -0.21311014177E+02 -0.37450450962E+02  0.11989818578E+03  0.12740592826E+03  0.00000000000E+00 0. -1.
         -5    1    3    3    0  503  0.28522267193E+01  0.77235543315E+02 -0.19353660718E+03  0.20845136763E+03  0.47000000000E+01 0.  1.
         13    1    4    4    0    0 -0.24280307007E+02  0.15707736366E+02 -0.27533982134E+02  0.39929769123E+02  0.00000000000E+00 0. -1.
        -14    1    4    4    0    0  0.51235565348E+02  0.29260357130E+01 -0.30675406453E+01  0.51410647216E+02  0.00000000000E+00 0.  1.
</event>
<event>
12    1  0.8526130E-002  0.1799681E+03  0.7818608E-02  0.1168154E+00
         21   -1    0    0  503  502  0.00000000000E+00  0.00000000000E+00  0.13208080431E+03  0.13208080431E+03  0.00000000000E+00 0. -1.
         21   -1    0    0  501  503 -0.00000000000E+00 -0.00000000000E+00 -0.24358501663E+03  0.24358501663E+03  0.00000000000E+00 0.  1.
          6    2    1    2  501    0  0.12293018248E+02  0.49653496169E+02 -0.51193367885E+02  0.18710763544E+03  0.17254540952E+03 0.  0.
         24    2    3    3    0    0  0.53349817329E+02 -0.19689769997E+02 -0.31661578880E+02  0.10405506116E+03  0.81185652208E+02 0.  0.
         -6    2    1    2    0  502 -0.12293018248E+02 -0.49653496169E+02 -0.60310844435E+02  0.18855818550E+03  0.17117302177E+03 0.  0.
        -24    2    5    5    0    0  0.11858806604E+02  0.12340423129E+01  0.26099122414E+02  0.85303042347E+02  0.80332376340E+02 0.  0.
          5    1    3    3  501    0 -0.41056799082E+02  0.69343266166E+02 -0.19531789006E+02  0.83052574284E+02  0.47000000000E+01 0. -1.
        -13    1    4    4    0    0 -0.17387581142E+02 -0.20146613803E+02 -0.17673839864E+02  0.31946496541E+02  0.00000000000E+00 0.  1.
         14    1    4    4    0    0  0.70737398471E+02  0.45684380623E+00 -0.13987739015E+02  0.72108564620E+02  0.00000000000E+00 0. -1.
         -5    1    5    5    0  502 -0.24151824852E+02 -0.50887538482E+02 -0.86409966849E+02  0.10325514315E+03  0.47000000000E+01 0.  1.
         13    1    6    6    0    0  0.33940353156E+02  0.14480006369E+02 -0.12450870729E+02  0.38944092475E+02  0.00000000000E+00 0. -1.
        -14    1    6    6    0    0 -0.22081546553E+02 -0.13245964056E+02  0.38549993143E+02  0.46358949872E+02  0.00000000000E+00 0.  1.
</event>
<event>
12    1  0.8526130E-002  0.1817468E+03  0.7818608E-02  0.1166186E+00
         21   -1    0    0  503  502  0.00000000000E+00  0.00000000000E+00  0.12522426606E+03  0.12522426606E+03  0.00000000000E+00 0. -1.
         21   -1    0    0  501  503 -0.00000000000E+00 -0.00000000000E+00 -0.33386200699E+03  0.33386200699E+03  0.00000000000E+00 0. -1.
          6    2    1    2  501    0  0.52638618259E+02 -0.28655767143E+02 -0.20982978361E+03  0.27759761728E+03  0.17158065714E+03 0.  0.
         24    2    3    3    0    0 -0.14227111856E+02 -0.31818368008E+02 -0.18700389755E+03  0.20671645630E+03  0.80909927380E+02 0.  0.
         -6    2    1    2    0  502 -0.52638618259E+02  0.28655767143E+02  0.11920426843E+01  0.18148865577E+03  0.17130304750E+03 0.  0.
        -24    2    5    5    0    0 -0.68237656994E+02 -0.14572956859E+02 -0.38451350990E+02  0.12061385597E+03  0.90556319250E+02 0.  0.
          5    1    3    3  501    0  0.66865730115E+02  0.31626008654E+01 -0.22825886062E+02  0.70881160985E+02  0.47000000000E+01 0. -1.
        -13    1    4    4    0    0 -0.47073047791E+02 -0.28455210857E+02 -0.12094791466E+03  0.13286823892E+03  0.00000000000E+00 0.  1.
         14    1    4    4    0    0  0.32845935935E+02 -0.33631571510E+01 -0.66055982894E+02  0.73848217376E+02  0.00000000000E+00 0. -1.
         -5    1    5    5    0  502  0.15599038735E+02  0.43228724001E+02  0.39643393674E+02  0.60874799796E+02  0.47000000000E+01 0.  1.
         11    1    6    6    0    0 -0.51071262320E+02  0.24463555497E+02 -0.50950648036E+02  0.76175507336E+02  0.00000000000E+00 0. -1.
        -12    1    6    6    0    0 -0.17166394673E+02 -0.39036512356E+02  0.12499297046E+02  0.44438348638E+02  0.00000000000E+00 0.  1.
</event>
<event>
12    1  0.8526130E-002  0.4546677E+03  0.7818608E-02  0.1026447E+00
         21   -1    0    0  501  502  0.00000000000E+00  0.00000000000E+00  0.20873178014E+03  0.20873178014E+03  0.00000000000E+00 0.  1.
         21   -1    0    0  502  503 -0.00000000000E+00 -0.00000000000E+00 -0.17899658125E+04  0.17899658125E+04  0.00000000000E+00 0.  1.
         -6    2    1    2    0  503 -0.33918489148E+03 -0.24857334727E+03 -0.14591684349E+04  0.15279293595E+04  0.16899854101E+03 0.  0.
        -24    2    3    3    0    0 -0.32825366841E+03 -0.25166021582E+03 -0.14558424734E+04  0.15151946662E+04  0.72486095062E+02 0.  0.
          6    2    1    2  501    0  0.33918489148E+03  0.24857334727E+03 -0.12206559750E+03  0.47076823310E+03  0.17288036217E+03 0.  0.
         24    2    5    5    0    0  0.23351809801E+03  0.11839480205E+03 -0.21108717813E+02  0.27499717693E+03  0.81423817783E+02 0.  0.
          5    1    5    5  501    0  0.10566679347E+03  0.13017854522E+03 -0.10095687968E+03  0.19577105617E+03  0.47000000000E+01 0. -1.
        -11    1    6    6    0    0  0.98992592519E+02  0.88840142213E+02  0.11335337090E+02  0.13349379802E+03  0.00000000000E+00 0.  1.
         12    1    6    6    0    0  0.13452550549E+03  0.29554659834E+02 -0.32444054903E+02  0.14150337891E+03  0.00000000000E+00 0. -1.
         -5    1    3    3    0  503 -0.10931223069E+02  0.30868685495E+01 -0.33259614411E+01  0.12734693351E+02  0.47000000000E+01 0.  1.
         13    1    4    4    0    0 -0.85211550608E+02 -0.10201476308E+03 -0.52588368149E+03  0.54242203744E+03  0.00000000000E+00 0. -1.
        -14    1    4    4    0    0 -0.24304211780E+03 -0.14964545274E+03 -0.92995879193E+03  0.97277262875E+03  0.00000000000E+00 0.  1.
</event>
<event>
12    1  0.8526130E-002  0.2316634E+03  0.7818608E-02  0.1125501E+00
         21   -1    0    0  501  502  0.00000000000E+00  0.00000000000E+00  0.16885619893E+03  0.16885619893E+03  0.00000000000E+00 0.  1.
         21   -1    0    0  502  503 -0.00000000000E+00 -0.00000000000E+00 -0.33923302761E+03  0.33923302761E+03  0.00000000000E+00 0. -1.
         -6    2    1    2    0  503 -0.13758117431E+03 -0.73009600092E+02 -0.21093402334E+02  0.23262170914E+03  0.17149036915E+03 0.  0.
        -24    2    3    3    0    0 -0.76268623414E+02 -0.32682502823E+02  0.54244758993E+02  0.12734382816E+03  0.79930643587E+02 0.  0.
          6    2    1    2  501    0  0.13758117431E+03  0.73009600092E+02 -0.14928342634E+03  0.27546751740E+03  0.17128289621E+03 0.  0.
         24    2    5    5    0    0  0.16453537622E+03  0.64247043837E+02 -0.10154796629E+03  0.21975328637E+03  0.82340419864E+02 0.  0.
          5    1    5    5  501    0 -0.26954201914E+02  0.87625562553E+01 -0.47735460051E+02  0.55714231029E+02  0.47000000000E+01 0. -1.
        -11    1    6    6    0    0  0.11570693071E+03  0.82953720228E+02 -0.78881357805E+02  0.16276265580E+03  0.00000000000E+00 0.  1.
         12    1    6    6    0    0  0.48828445514E+02 -0.18706676391E+02 -0.22666608484E+02  0.56990630573E+02  0.00000000000E+00 0. -1.
         -5    1    3    3    0  503 -0.61312550893E+02 -0.40327097270E+02 -0.75338161327E+02  0.10527788098E+03  0.47000000000E+01 0.  1.
         11    1    4    4    0    0 -0.80819633284E+02 -0.35255995635E+00  0.48315325933E+02  0.94161075518E+02  0.00000000000E+00 0. -1.
        -12    1    4    4    0    0  0.45510098699E+01 -0.32329942866E+02  0.59294330604E+01  0.33182752643E+02  0.00000000000E+00 0.  1.
</event>
<event>
12    1  0.8526130E-002  0.1861943E+03  0.7818608E-02  0.1162034E+00
         21   -1    0    0  501  502  0.00000000000E+00  0.00000000000E+00  0.82364671654E+02  0.82364671654E+02  0.00000000000E+00 0.  1.
         21   -1    0    0  502  503 -0.00000000000E+00 -0.00000000000E+00 -0.42097495096E+03  0.42097495096E+03  0.00000000000E+00 0.  1.
         -6    2    1    2    0  503  0.13919839165E+02  0.69971018023E+02 -0.15732949894E+03  0.24376400567E+03  0.17198434213E+03 0.  0.
        -24    2    3    3    0    0  0.60774134314E+02  0.59154244588E+02 -0.49424602746E+02  0.12553590332E+03  0.78254403146E+02 0.  0.
          6    2    1    2  501    0 -0.13919839165E+02 -0.69971018023E+02 -0.18128078036E+03  0.25957561694E+03  0.17154321408E+03 0.  0.
         24    2    5    5    0    0 -0.21448584548E+02 -0.10826782550E+03 -0.17097556676E+03  0.21893555176E+03  0.80735169404E+02 0.  0.
          5    1    5    5  501    0  0.75287453836E+01  0.38296807482E+02 -0.10305213602E+02  0.40640065179E+02  0.47000000000E+01 0. -1.
        -13    1    6    6    0    0 -0.24081572751E+02 -0.94012989599E+02 -0.17806849261E+03  0.20279731857E+03  0.00000000000E+00 0.  1.
         14    1    6    6    0    0  0.26329882027E+01 -0.14254835905E+02  0.70929258475E+01  0.16138233195E+02  0.00000000000E+00 0. -1.
         -5    1    3    3    0  503 -0.46854295149E+02  0.10816773435E+02 -0.10790489620E+03  0.11822810235E+03  0.47000000000E+01 0.  1.
         11    1    4    4    0    0  0.27607101293E+01 -0.13702037620E+02 -0.25975067179E+02  0.29496973918E+02  0.00000000000E+00 0. -1.
        -12    1    4    4    0    0  0.58013424184E+02  0.72856282207E+02 -0.23449535567E+02  0.96038929403E+02  0.00000000000E+00 0.  1.
</event>
<event>
12    1  0.8526130E-002  0.1740587E+03  0.7818608E-02  0.1173806E+00
         21   -1    0    0  501  502  0.00000000000E+00  0.00000000000E+00  0.23331255321E+03  0.23331255321E+03  0.00000000000E+00 0.  1.
         21   -1    0    0  502  503 -0.00000000000E+00 -0.00000000000E+00 -0.92445668488E+03  0.92445668488E+03  0.00000000000E+00 0.  1.
         -6    2    1    2    0  503  0.16298422757E+02  0.20018177098E+02 -0.88245688693E+03  0.89945905869E+03  0.17213388676E+03 0.  0.
        -24    2    3    3    0    0  0.71014216249E+02  0.34888138837E+02 -0.47446914776E+03  0.48752336088E+03  0.79359020184E+02 0.  0.
          6    2    1    2  501    0 -0.16298422757E+02 -0.20018177098E+02  0.19131275526E+03  0.25831017939E+03  0.17163103582E+03 0.  0.
         24    2    5    5    0    0 -0.72919905986E+02  0.76311603598E+01  0.14311165111E+03  0.17883745032E+03  0.78270950279E+02 0.  0.
          5    1    5    5  501    0  0.56621483229E+02 -0.27649337458E+02  0.48201104150E+02  0.79472729073E+02  0.47000000000E+01 0. -1.
        -13    1    6    6    0    0  0.90571140769E+01 -0.18895651615E+02  0.31604341744E+02  0.37919801983E+02  0.00000000000E+00 0.  1.
         14    1    6    6    0    0 -0.81977020063E+02  0.26526811975E+02  0.11150730936E+03  0.14091764834E+03  0.00000000000E+00 0. -1.
         -5    1    3    3    0  503 -0.54715793492E+02 -0.14869961740E+02 -0.40798773917E+03  0.41193569781E+03  0.47000000000E+01 0.  1.
         13    1    4    4    0    0  0.57952925717E+02  0.30405016114E+02 -0.16159128376E+03  0.17434090051E+03  0.00000000000E+00 0. -1.
        -14    1    4    4    0    0  0.13061290532E+02  0.44831227232E+01 -0.31287786400E+03  0.31318246037E+03  0.00000000000E+00 0.  1.
</event>
<event>
12    1  0.8526130E-002  0.3960576E+03  0.7818608E-02  0.1045218E+00
         21   -1    0    0  503  502  0.00000000000E+00  0.00000000000E+00  0.21844263008E+04  0.21844263008E+04  0.00000000000E+00 0.  1.
         21   -1    0    0  501  503 -0.00000000000E+00 -0.00000000000E+00 -0.73690700626E+03  0.73690700626E+03  0.00000000000E+00 0.  1.
          6    2    1    2  501    0 -0.21210887096E+03  0.28605898533E+03 -0.66398804233E+03  0.77313758302E+03  0.17332537522E+03 0.  0.
         24    2    3    3    0    0 -0.21594506222E+03  0.24811726139E+03 -0.49347429480E+03  0.59834822730E+03  0.79430952299E+02 0.  0.
         -6    2    1    2    0  502  0.21210887096E+03 -0.28605898533E+03  0.21115073368E+04  0.21481957240E+04  0.17164416372E+03 0.  0.
        -24    2    5    5    0    0  0.11505869698E+03 -0.90902681474E+02  0.68649146691E+03  0.70660041370E+03  0.80695782053E+02 0.  0.
          5    1    3    3  501    0  0.38361912559E+01  0.37941723941E+02 -0.17051374752E+03  0.17478935572E+03  0.47000000000E+01 0. -1.
        -11    1    4    4    0    0 -0.11361686159E+03  0.13969350889E+03 -0.19958817809E+03  0.26880942784E+03  0.00000000000E+00 0.  1.
         12    1    4    4    0    0 -0.10232820063E+03  0.10842375250E+03 -0.29388611671E+03  0.32953879945E+03  0.00000000000E+00 0. -1.
         -5    1    5    5    0  502  0.97050173980E+02 -0.19515630386E+03  0.14250158699E+04  0.14415953103E+04  0.47000000000E+01 0.  1.
         13    1    6    6    0    0  0.16965289556E+02  0.14777999692E+01  0.18461504883E+02  0.25116371255E+02  0.00000000000E+00 0. -1.
        -14    1    6    6    0    0  0.98093407423E+02 -0.92380481443E+02  0.66802996203E+03  0.68148404244E+03  0.00000000000E+00 0.  1.
</event>
<event>
12    1  0.8526130E-002  0.2623457E+03  0.7818608E-02  0.1106206E+00
         21   -1    0    0  503  502  0.00000000000E+00  0.00000000000E+00  0.87302889703E+02  0.87302889703E+02  0.00000000000E+00 0. -1.
         21   -1    0    0  501  503 -0.00000000000E+00 -0.00000000000E+00 -0.78759972170E+03  0.78759972170E+03  0.00000000000E+00 0.  1.
          6    2    1    2  501    0 -0.19037858573E+03  0.56408660768E+02 -0.39779248953E+03  0.47651248958E+03  0.17146237220E+03 0.  0.
         24    2    3    3    0    0 -0.20631548666E+03  0.66339782023E+02 -0.39418019033E+03  0.45682110349E+03  0.79626951611E+02 0.  0.
         -6    2    1    2    0  502  0.19037858573E+03 -0.56408660768E+02 -0.30250434247E+03  0.39839012183E+03  0.16667294035E+03 0.  0.
        -24    2    5    5    0    0  0.16246128028E+03 -0.57495265719E+02 -0.31480263410E+03  0.36750493717E+03  0.79118943633E+02 0.  0.
          5    1    3    3  501    0  0.15936900933E+02 -0.99311212546E+01 -0.36122991993E+01  0.19691386092E+02  0.47000000000E+01 0. -1.
        -13    1    4    4    0    0 -0.17575300796E+03  0.27817641263E+02 -0.33933597156E+03  0.38316033532E+03  0.00000000000E+00 0.  1.
         14    1    4    4    0    0 -0.30562478707E+02  0.38522140759E+02 -0.54844218777E+02  0.73660768165E+02  0.00000000000E+00 0. -1.
         -5    1    5    5    0  502  0.27917305451E+02  0.10866049509E+01  0.12298291632E+02  0.30885184653E+02  0.47000000000E+01 0.  1.
         13    1    6    6    0    0  0.78386441831E+01 -0.31873128163E+02 -0.50679259968E+02  0.60379864462E+02  0.00000000000E+00 0. -1.
        -14    1    6    6    0    0  0.15462263610E+03 -0.25622137556E+02 -0.26412337413E+03  0.30712507271E+03  0.00000000000E+00 0.  1.
</event>
<event>
12    1  0.8526130E-002  0.1970856E+03  0.7818608E-02  0.1156078E+00
         21   -1    0    0  501  502  0.00000000000E+00  0.00000000000E+00  0.42476362205E+03  0.42476362205E+03  0.00000000000E+00 0.  1.
         21   -1    0    0  502  503 -0.00000000000E+00 -0.00000000000E+00 -0.26705061183E+03  0.26705061183E+03  0.00000000000E+00 0.  1.
         -6    2    1    2    0  503 -0.43653885467E+02 -0.18355854359E+02 -0.20655856396E+03  0.28549810161E+03  0.19131159549E+03 0.  0.
        -24    2    3    3    0    0 -0.59729654420E+01  0.59224834241E+02 -0.15768312016E+03  0.18625338394E+03  0.79266003679E+02 0.  0.
          6    2    1    2  501    0  0.43653885467E+02  0.18355854359E+02  0.36427157418E+03  0.40631613227E+03  0.17365604071E+03 0.  0.
         24    2    5    5    0    0  0.93489666729E+02  0.22680906507E+01  0.29523864247E+03  0.31954023183E+03  0.78706046351E+02 0.  0.
          5    1    5    5  501    0 -0.49835781262E+02  0.16087763709E+02  0.69032931719E+02  0.86775900438E+02  0.47000000000E+01 0. -1.
        -13    1    6    6    0    0  0.60975278617E+02  0.16367249862E+02  0.26660609278E+03  0.27397934261E+03  0.00000000000E+00 0.  1.
         14    1    6    6    0    0  0.32514388112E+02 -0.14099159212E+02  0.28632549684E+02  0.45560889216E+02  0.00000000000E+00 0. -1.
         -5    1    3    3    0  503 -0.37680920025E+02 -0.77580688600E+02 -0.48875443804E+02  0.99244717666E+02  0.47000000000E+01 0.  1.
         13    1    4    4    0    0 -0.89568783997E+01 -0.16782545774E+02 -0.13802020737E+02  0.23502665588E+02  0.00000000000E+00 0. -1.
        -14    1    4    4    0    0  0.29839129578E+01  0.76007380015E+02 -0.14388109942E+03  0.16275071835E+03  0.00000000000E+00 0.  1.
</event>
<event>
12    1  0.8526130E-002  0.3351751E+03  0.7818608E-02  0.1068984E+00
         21   -1    0    0  503  502  0.00000000000E+00  0.00000000000E+00  0.19816311771E+03  0.19816311771E+03  0.00000000000E+00 0. -1.
         21   -1    0    0  501  503 -0.00000000000E+00 -0.00000000000E+00 -0.57329820310E+03  0.57329820310E+03  0.00000000000E+00 0.  1.
          6    2    1    2  501    0 -0.33955379656E+02  0.28447224789E+03 -0.14126762574E+03  0.36276056896E+03  0.17193388463E+03 0.  0.
         24    2    3    3    0    0 -0.84130231545E+02  0.18559673431E+03 -0.12002331557E+03  0.24976811938E+03  0.80339738190E+02 0.  0.
         -6    2    1    2    0  502  0.33955379656E+02 -0.28447224789E+03 -0.23386745965E+03  0.40870075186E+03  0.17396806678E+03 0.  0.
        -24    2    5    5    0    0  0.46598266604E+02 -0.19959632303E+03 -0.82665582351E+02  0.23478162436E+03  0.79238387241E+02 0.  0.
          5    1    3    3  501    0  0.50174851889E+02  0.98875513572E+02 -0.21244310167E+02  0.11299244957E+03  0.47000000000E+01 0. -1.
        -11    1    4    4    0    0 -0.19992814573E+02  0.87953336533E+01 -0.39589620104E+02  0.45215136278E+02  0.00000000000E+00 0.  1.
         12    1    4    4    0    0 -0.64137416971E+02  0.17680140066E+03 -0.80433695465E+02  0.20455298311E+03  0.00000000000E+00 0. -1.
         -5    1    5    5    0  502 -0.12642886948E+02 -0.84875924856E+02 -0.15120187730E+03  0.17391912750E+03  0.47000000000E+01 0.  1.
         13    1    6    6    0    0  0.26280242360E+02 -0.19319610924E+03 -0.86213911222E+02  0.21318589599E+03  0.00000000000E+00 0. -1.
        -14    1    6    6    0    0  0.20318024244E+02 -0.64002137948E+01  0.35483288704E+01  0.21595728364E+02  0.00000000000E+00 0.  1.
</event>
<event>
12    1  0.8526130E-002  0.2911533E+03  0.7818608E-02  0.1090228E+00
         21   -1    0    0  501  502  0.00000000000E+00  0.00000000000E+00  0.52249339164E+03  0.52249339164E+03  0.00000000000E+00 0. -1.
         21   -1    0    0  502  503 -0.00000000000E+00 -0.00000000000E+00 -0.23609390360E+03  0.23609390360E+03  0.00000000000E+00 0. -1.
         -6    2    1    2    0  503 -0.15945996475E+03 -0.17325035768E+03 -0.72453108715E+02  0.29647752527E+03  0.16494333340E+03 0.  0.
        -24    2    3    3    0    0 -0.11762874593E+03 -0.47720778544E+02 -0.66259730385E+02  0.16393329099E+03  0.79812138499E+02 0.  0.
          6    2    1    2  501    0  0.15945996475E+03  0.17325035768E+03  0.35885259676E+03  0.46210976997E+03  0.17125152996E+03 0.  0.
         24    2    5    5    0    0  0.10605479629E+03  0.50193719888E+02  0.90816968505E+02  0.16234280026E+03  0.65881967891E+02 0.  0.
          5    1    5    5  501    0  0.53405168461E+02  0.12305663779E+03  0.26803562825E+03  0.29976696972E+03  0.47000000000E+01 0. -1.
        -11    1    6    6    0    0  0.62358731803E+02 -0.29942993718E+01  0.61140739511E+02  0.87382877549E+02  0.00000000000E+00 0.  1.
         12    1    6    6    0    0  0.43696064491E+02  0.53188019260E+02  0.29676228993E+02  0.74959922706E+02  0.00000000000E+00 0. -1.
         -5    1    3    3    0  503 -0.41831218828E+02 -0.12552957913E+03 -0.61933783302E+01  0.13254423428E+03  0.47000000000E+01 0.  1.
         11    1    4    4    0    0 -0.74075393046E+02 -0.26477908625E+02 -0.81366104783E+02  0.11317546778E+03  0.00000000000E+00 0. -1.
        -12    1    4    4    0    0 -0.43553352880E+02 -0.21242869920E+02  0.15106374399E+02  0.50757823210E+02  0.00000000000E+00 0.  1.
</event>
<event>
12    1  0.8526130E-002  0.2347646E+03  0.7818608E-02  0.1123346E+00
         21   -1    0    0  503  502  0.00000000000E+00  0.00000000000E+00  0.48048401669E+03  0.48048401669E+03  0.00000000000E+00 0. -1.
         21   -1    0    0  501  503 -0.00000000000E+00 -0.00000000000E+00 -0.13735094481E+03  0.13735094481E+03  0.00000000000E+00 0. -1.
          6    2    1    2  501    0  0.12786393802E+03  0.96140475776E+02  0.45983649920E+02  0.23913696183E+03  0.17169686288E+03 0.  0.
         24    2    3    3    0    0  0.15411602427E+03  0.10876328243E+03  0.39061485354E+02  0.20882997184E+03  0.80640913684E+02 0.  0.
         -6    2    1    2    0  502 -0.12786393802E+03 -0.96140475776E+02  0.29714942196E+03  0.37869799967E+03  0.17182030804E+03 0.  0.
        -24    2    5    5    0    0 -0.62996491289E+02 -0.12552346036E+03  0.18263099536E+03  0.24376206873E+03  0.79631455265E+02 0.  0.
          5    1    3    3  501    0 -0.26252086244E+02 -0.12622806655E+02  0.69221645663E+01  0.30306989991E+02  0.47000000000E+01 0. -1.
        -13    1    4    4    0    0  0.92340883230E+01 -0.10308631515E+02  0.13901505668E+02  0.19616017198E+02  0.00000000000E+00 0.  1.
         14    1    4    4    0    0  0.14488193594E+03  0.11907191395E+03  0.25159979686E+02  0.18921395464E+03  0.00000000000E+00 0. -1.
         -5    1    5    5    0  502 -0.64867446734E+02  0.29382984585E+02  0.11451842659E+03  0.13493593094E+03  0.47000000000E+01 0.  1.
         11    1    6    6    0    0 -0.75527811220E+02 -0.74454500833E+02  0.99673798536E+02  0.14554308323E+03  0.00000000000E+00 0. -1.
        -12    1    6    6    0    0  0.12531319931E+02 -0.51068959529E+02  0.82957196829E+02  0.98218985498E+02  0.00000000000E+00 0.  1.
</event>
<event>
12    1  0.8526130E-002  0.2953175E+03  0.7818608E-02  0.1087664E+00
         21   -1    0    0  501  502  0.00000000000E+00  0.00000000000E+00  0.17599243307E+04  0.17599243307E+04  0.00000000000E+00 0. -1.
         21   -1    0    0  502  503 -0.00000000000E+00 -0.00000000000E+00 -0.57669018147E+02  0.57669018147E+02  0.00000000000E+00 0.  1.
         -6    2    1    2    0  503 -0.23108242169E+03 -0.64836117669E+02  0.50918093793E+03  0.58862350837E+03  0.17207440045E+03 0.  0.
        -24    2    3    3    0    0 -0.12710137752E+03  0.17867370532E+02  0.35078219516E+03  0.38182849823E+03  0.79188702011E+02 0.  0.
          6    2    1    2  501    0  0.23108242169E+03  0.64836117669E+02  0.11930743747E+04  0.12289698405E+04  0.17128221638E+03 0.  0.
         24    2    5    5    0    0  0.14748395195E+03  0.61204264753E+02  0.50003984373E+03  0.53088614527E+03  0.79390023404E+02 0.  0.
          5    1    5    5  501    0  0.83598469734E+02  0.36318529157E+01  0.69303453093E+03  0.69808369524E+03  0.47000000000E+01 0. -1.
        -11    1    6    6    0    0  0.92148439451E+00  0.37563221712E+01 -0.22716540447E+01  0.44854767687E+01  0.00000000000E+00 0.  1.
         12    1    6    6    0    0  0.14656246756E+03  0.57447942582E+02  0.50231149777E+03  0.52640066850E+03  0.00000000000E+00 0. -1.
         -5    1    3    3    0  503 -0.10398104417E+03 -0.82703488201E+02  0.15839874277E+03  0.20679501014E+03  0.47000000000E+01 0.  1.
         13    1    4    4    0    0 -0.35209331110E+02 -0.50777819490E+01  0.20443222694E+03  0.20750425605E+03  0.00000000000E+00 0. -1.
        -14    1    4    4    0    0 -0.91892046407E+02  0.22945152481E+02  0.14634996821E+03  0.17432424218E+03  0.00000000000E+00 0.  1.
</event>
<event>
12    1  0.8526130E-002  0.1775399E+03  0.7818608E-02  0.1170889E+00
         21   -1    0    0  501  502  0.00000000000E+00  0.00000000000E+00  0.80576324378E+02  0.80576324378E+02  0.00000000000E+00 0.  1.
         21   -1    0    0  502  503 -0.00000000000E+00 -0.00000000000E+00 -0.64703950646E+03  0.64703950646E+03  0.00000000000E+00 0.  1.
         -6    2    1    2    0  503 -0.45654707840E+02  0.41805652699E+01 -0.51600224122E+03  0.54569105134E+03  0.17151845703E+03 0.  0.
        -24    2    3    3    0    0 -0.79156497983E+02  0.48366282842E+02 -0.36385921581E+03  0.38369000888E+03  0.78863461077E+02 0.  0.
          6    2    1    2  501    0  0.45654707840E+02 -0.41805652699E+01 -0.50460940870E+02  0.18192477950E+03  0.16866679984E+03 0.  0.
         24    2    5    5    0    0  0.23382647495E+01  0.45042737907E+02 -0.69129960035E+02  0.11358833173E+03  0.78032313883E+02 0.  0.
          5    1    5    5  501    0  0.43316443091E+02 -0.49223303177E+02  0.18669019165E+02  0.68336447773E+02  0.47000000000E+01 0. -1.
        -13    1    6    6    0    0  0.29801240947E+02  0.53622897480E+02 -0.47843433388E+02  0.77797964076E+02  0.00000000000E+00 0.  1.
         14    1    6    6    0    0 -0.27462976197E+02 -0.85801595730E+01 -0.21286526647E+02  0.35790367651E+02  0.00000000000E+00 0. -1.
         -5    1    3    3    0  503  0.33501790142E+02 -0.44185717573E+02 -0.15214302541E+03  0.16200104247E+03  0.47000000000E+01 0.  1.
         13    1    4    4    0    0 -0.30201487140E+01  0.24204352250E+02 -0.22755848798E+02  0.33358666349E+02  0.00000000000E+00 0. -1.
        -14    1    4    4    0    0 -0.76136349269E+02  0.24161930592E+02 -0.34110336701E+03  0.35033134253E+03  0.00000000000E+00 0.  1.
</event>
<event>
12    1  0.8526130E-002  0.2040232E+03  0.7818608E-02  0.1146468E+00
         21   -1    0    0  501  502  0.00000000000E+00  0.00000000000E+00  0.26672433197E+03  0.26672433197E+03  0.00000000000E+00 0.  1.
         21   -1    0    0  502  503 -0.00000000000E+00 -0.00000000000E+00 -0.33702398499E+03  0.33702398499E+03  0.00000000000E+00 0.  1.
         -6    2    1    2    0  503 -0.66556573038E+02  0.87098568351E+02 -0.25651758706E+03  0.32751906138E+03  0.17161446640E+03 0.  0.
        -24    2    3    3    0    0  0.25164477153E+02  0.13607957052E+02 -0.12926862221E+03  0.15423314144E+03  0.79114207475E+02 0.  0.
          6    2    1    2  501    0  0.66556573038E+02 -0.87098568351E+02  0.18621793403E+03  0.27622925557E+03  0.17207424170E+03 0.  0.
         24    2    5    5    0    0  0.23578100375E+02 -0.46559629132E+02  0.17989793077E+02  0.97866277033E+02  0.80811197510E+02 0.  0.
          5    1    5    5  501    0  0.42978472663E+02 -0.40538939219E+02  0.16822814095E+03  0.17836297854E+03  0.47000000000E+01 0. -1.
        -11    1    6    6    0    0 -0.20272601256E+02 -0.19120470581E+02  0.33771341330E+02  0.43784406496E+02  0.00000000000E+00 0.  1.
         12    1    6    6    0    0  0.43850701631E+02 -0.27439158551E+02 -0.15781548253E+02  0.54081870537E+02  0.00000000000E+00 0. -1.
         -5    1    3    3    0  503 -0.91721050191E+02  0.73490611299E+02 -0.12724896484E+03  0.17328591994E+03  0.47000000000E+01 0.  1.
         11    1    4    4    0    0 -0.53192900706E+01  0.41956664551E+02 -0.70550364051E+02  0.82255762198E+02  0.00000000000E+00 0. -1.
        -12    1    4    4    0    0  0.30483767223E+02 -0.28348707499E+02 -0.58718258163E+02  0.71977379243E+02  0.00000000000E+00 0.  1.
</event>
<event>
12    1  0.8526130E-002  0.1740658E+03  0.7818608E-02  0.1173936E+00
         21   -1    0    0  501  502  0.00000000000E+00  0.00000000000E+00  0.60782367372E+03  0.60782367372E+03  0.00000000000E+00 0. -1.
         21   -1    0    0  502  503 -0.00000000000E+00 -0.00000000000E+00 -0.63912429170E+02  0.63912429170E+02  0.00000000000E+00 0. -1.
         -6    2    1    2    0  503  0.15121210529E+02  0.23669349280E+01  0.11337608700E+03  0.20773309915E+03  0.17339160877E+03 0.  0.
        -24    2    3    3    0    0  0.62915797914E+02  0.31304916409E+02  0.10818357864E+03  0.15142340639E+03  0.79290389697E+02 0.  0.
          6    2    1    2  501    0 -0.15121210529E+02 -0.23669349280E+01  0.43053515755E+03  0.46400300374E+03  0.17234851957E+03 0.  0.
         24    2    5    5    0    0  0.97820318317E+01  0.62423471617E+02  0.18800140941E+03  0.21168836435E+03  0.73993619357E+02 0.  0.
          5    1    5    5  501    0 -0.24903242361E+02 -0.64790406545E+02  0.24253374814E+03  0.25231463939E+03  0.47000000000E+01 0. -1.
        -11    1    6    6    0    0 -0.21963712269E+02  0.23087773683E+02  0.23495178238E+02  0.39591329236E+02  0.00000000000E+00 0.  1.
         12    1    6    6    0    0  0.31745744101E+02  0.39335697934E+02  0.16450623117E+03  0.17209703511E+03  0.00000000000E+00 0. -1.
         -5    1    3    3    0  503 -0.47794587385E+02 -0.28937981481E+02  0.51925083560E+01  0.56309692758E+02  0.47000000000E+01 0.  1.
         11    1    4    4    0    0 -0.15936872447E+02  0.11242633562E+02  0.52162704378E+01  0.20188863021E+02  0.00000000000E+00 0. -1.
        -12    1    4    4    0    0  0.78852670361E+02  0.20062282846E+02  0.10296730820E+03  0.13123454337E+03  0.00000000000E+00 0.  1.
</event>
<event>
12    1  0.8526130E-002  0.2160113E+03  0.7818608E-02  0.1137114E+00
         21   -1    0    0  501  502  0.00000000000E+00  0.00000000000E+00  0.33930509263E+03  0.33930509263E+03  0.00000000000E+00 0.  1.
         21   -1    0    0  502  503 -0.00000000000E+00 -0.00000000000E+00 -0.16701255866E+03  0.16701255866E+03  0.00000000000E+00 0. -1.
         -6    2    1    2    0  503 -0.61278822398E+02  0.11073090165E+03 -0.21748883531E+02  0.21595075884E+03  0.17362398928E+03 0.  0.
        -24    2    3    3    0    0  0.77042932726E+01  0.12455343240E+01  0.24521699474E+01  0.84218086754E+02  0.83819839588E+02 0.  0.
          6    2    1    2  501    0  0.61278822398E+02 -0.11073090165E+03  0.19404141750E+03  0.29036689245E+03  0.17505551655E+03 0.  0.
         24    2    5    5    0    0  0.92541970193E+02 -0.39672231464E+02  0.74645387673E+02  0.14787401208E+03  0.78465835570E+02 0.  0.
          5    1    5    5  501    0 -0.31263147795E+02 -0.71058670181E+02  0.11939602982E+03  0.14249288037E+03  0.47000000000E+01 0. -1.
        -11    1    6    6    0    0  0.19382937245E+02 -0.38137006134E+02  0.59277837842E+02  0.73102609751E+02  0.00000000000E+00 0.  1.
         12    1    6    6    0    0  0.73159032948E+02 -0.15352253303E+01  0.15367549830E+02  0.74771402331E+02  0.00000000000E+00 0. -1.
         -5    1    3    3    0  503 -0.68983115670E+02  0.10948536732E+03 -0.24201053478E+02  0.13173267208E+03  0.47000000000E+01 0.  1.
         13    1    4    4    0    0 -0.30217196032E+02 -0.22721430990E+02  0.90509791785E+01  0.38874960917E+02  0.00000000000E+00 0. -1.
        -14    1    4    4    0    0  0.37921489304E+02  0.23966965314E+02 -0.65988092310E+01  0.45343125837E+02  0.00000000000E+00 0.  1.
</event>
<event>
12    1  0.8526130E-002  0.2965077E+03  0.7818608E-02  0.1087086E+00
         21   -1    0    0  503  502  0.00000000000E+00  0.00000000000E+00  0.33458542479E+03  0.33458542479E+03  0.00000000000E+00 0.  1.
         21   -1    0    0  501  503 -0.00000000000E+00 -0.00000000000E+00 -0.26852352476E+03  0.26852352476E+03  0.00000000000E+00 0. -1.
          6    2    1    2  501    0  0.25907255587E+02  0.24079738832E+03 -0.13421530980E+02  0.29613263310E+03  0.16988181416E+03 0.  0.
         24    2    3    3    0    0  0.10971923364E+02  0.25106485057E+03  0.12484712893E+02  0.26416845939E+03  0.80468407371E+02 0.  0.
         -6    2    1    2    0  502 -0.25907255587E+02 -0.24079738832E+03  0.79483431018E+02  0.30697631645E+03  0.17106219612E+03 0.  0.
        -24    2    5    5    0    0 -0.14668346359E+02 -0.20468510891E+03  0.12030656281E+03  0.25112805869E+03  0.80501419959E+02 0.  0.
          5    1    3    3  501    0  0.14935332223E+02 -0.10267462254E+02 -0.25906243873E+02  0.31964173716E+02  0.47000000000E+01 0. -1.
        -13    1    4    4    0    0 -0.34447548522E+02  0.12092199539E+03  0.12241575236E+02  0.12632742669E+03  0.00000000000E+00 0.  1.
         14    1    4    4    0    0  0.45419471886E+02  0.13014285518E+03  0.24313765700E+00  0.13784103270E+03  0.00000000000E+00 0. -1.
         -5    1    5    5    0  502 -0.11238909228E+02 -0.36112279411E+02 -0.40823131791E+02  0.55848257753E+02  0.47000000000E+01 0.  1.
         11    1    6    6    0    0  0.26911481403E+02 -0.96638332170E+02  0.31262895649E+02  0.10507408682E+03  0.00000000000E+00 0. -1.
        -12    1    6    6    0    0 -0.41579827762E+02 -0.10804677674E+03  0.89043667159E+02  0.14605397188E+03  0.00000000000E+00 0.  1.
</event>
<event>
12    1  0.8526130E-002  0.1823951E+03  0.7818608E-02  0.1165508E+00
         21   -1    0    0  503  502  0.00000000000E+00  0.00000000000E+00  0.33615776524E+03  0.33615776524E+03  0.00000000000E+00 0.  1.
         21   -1    0    0  501  503 -0.00000000000E+00 -0.00000000000E+00 -0.12329762225E+03  0.12329762225E+03  0.00000000000E+00 0.  1.
          6    2    1    2  501    0  0.22363592118E+02 -0.52657054908E+02  0.43671561433E+01  0.18244736748E+03  0.17319086051E+03 0.  0.
         24    2    3    3    0    0 -0.53737993521E+02 -0.17123510174E+02  0.35534364937E+01  0.98323433447E+02  0.80460450568E+02 0.  0.
         -6    2    1    2    0  502 -0.22363592118E+02  0.52657054908E+02  0.20849298685E+03  0.27700802001E+03  0.17317973871E+03 0.  0.
        -24    2    5    5    0    0 -0.68102306655E+02  0.64281005352E+02  0.18989868367E+03  0.22606703119E+03  0.79213765911E+02 0.  0.
          5    1    3    3  501    0  0.76101585639E+02 -0.35533544734E+02  0.81371964963E+00  0.84123934037E+02  0.47000000000E+01 0. -1.
        -13    1    4    4    0    0  0.28459989875E+01  0.50860215928E+01  0.31060631631E+02  0.31602692341E+02  0.00000000000E+00 0.  1.
         14    1    4    4    0    0 -0.56583992508E+02 -0.22209531767E+02 -0.27507195137E+02  0.66720741106E+02  0.00000000000E+00 0. -1.
         -5    1    5    5    0  502  0.45738714536E+02 -0.11623950444E+02  0.18594303179E+02  0.50940988821E+02  0.47000000000E+01 0.  1.
         13    1    6    6    0    0 -0.56657290527E+01 -0.61480407038E+01 -0.49223883782E+01  0.97019996671E+01  0.00000000000E+00 0. -1.
        -14    1    6    6    0    0 -0.62436577602E+02  0.70429046056E+02  0.19482107205E+03  0.21636503152E+03  0.00000000000E+00 0.  1.
</event>
<event>
12    1  0.8526130E-002  0.1754558E+03  0.7818608E-02  0.1173019E+00
         21   -1    0    0  503  502  0.00000000000E+00  0.00000000000E+00  0.49709321570E+03  0.49709321570E+03  0.00000000000E+00 0. -1.
         21   -1    0    0  501  503 -0.00000000000E+00 -0.00000000000E+00 -0.53054313550E+03  0.53054313550E+03  0.00000000000E+00 0. -1.
          6    2    1    2  501    0 -0.11778112408E+02 -0.18040179515E+02 -0.50017172010E+03  0.53005328361E+03  0.17412800427E+03 0.  0.
         24    2    3    3    0    0 -0.72223613169E+02 -0.14935373631E+02 -0.37953576380E+03  0.39500358041E+03  0.80877171379E+02 0.  0.
         -6    2    1    2    0  502  0.11778112408E+02  0.18040179515E+02  0.46672180030E+03  0.49758306759E+03  0.17115927749E+03 0.  0.
        -24    2    5    5    0    0 -0.24706579298E+02 -0.10812911566E+02  0.11330005950E+03  0.14108250593E+03  0.79624342258E+02 0.  0.
          5    1    3    3  501    0  0.60445500761E+02 -0.31048058843E+01 -0.12063595630E+03  0.13504970320E+03  0.47000000000E+01 0. -1.
        -13    1    4    4    0    0 -0.13497551201E+02 -0.42477997177E+02 -0.15832064053E+03  0.16447488972E+03  0.00000000000E+00 0.  1.
         14    1    4    4    0    0 -0.58726061968E+02  0.27542623545E+02 -0.22121512327E+03  0.23052869069E+03  0.00000000000E+00 0. -1.
         -5    1    5    5    0  502  0.36484691706E+02  0.28853091082E+02  0.35342174080E+03  0.35650056166E+03  0.47000000000E+01 0.  1.
         11    1    6    6    0    0 -0.82596886986E+01  0.24794844518E+02  0.93620337432E+02  0.97199662308E+02  0.00000000000E+00 0. -1.
        -12    1    6    6    0    0 -0.16446890599E+02 -0.35607756084E+02  0.19679722068E+02  0.43882843622E+02  0.00000000000E+00 0.  1.
</event>
<event>
12    1  0.8526130E-002  0.1860003E+03  0.7818608E-02  0.1164036E+00
         21   -1    0    0  503  502  0.00000000000E+00  0.00000000000E+00  0.34727029298E+03  0.34727029298E+03  0.00000000000E+00 0. -1.
         21   -1    0    0  501  503 -0.00000000000E+00 -0.00000000000E+00 -0.10621749463E+03  0.10621749463E+03  0.00000000000E+00 0. -1.
          6    2    1    2  501    0  0.35880910925E+02 -0.60373358499E+02  0.50401395242E+02  0.19270808955E+03  0.17223160264E+03 0.  0.
         24    2    3    3    0    0 -0.60374999141E+01 -0.84099183910E+02 -0.97340668525E+01  0.11551721081E+03  0.78360384103E+02 0.  0.
         -6    2    1    2    0  502 -0.35880910925E+02  0.60373358499E+02  0.19065140311E+03  0.26077969806E+03  0.16348000254E+03 0.  0.
        -24    2    5    5    0    0 -0.20416771085E+01  0.90349128272E+02  0.17569478638E+03  0.21293170017E+03  0.79398473224E+02 0.  0.
          5    1    3    3  501    0  0.41918410839E+02  0.23725825410E+02  0.60135462095E+02  0.77190878736E+02  0.47000000000E+01 0. -1.
        -11    1    4    4    0    0 -0.91322257065E+01 -0.44329993384E+02  0.33787133450E+02  0.56481114070E+02  0.00000000000E+00 0.  1.
         12    1    4    4    0    0  0.30947257924E+01 -0.39769190525E+02 -0.43521200302E+02  0.59036096742E+02  0.00000000000E+00 0. -1.
         -5    1    5    5    0  502 -0.33839233817E+02 -0.29975769773E+02  0.14956616730E+02  0.47847997898E+02  0.47000000000E+01 0.  1.
         11    1    6    6    0    0 -0.29539564883E+02  0.15037668023E+02  0.88379455908E+02  0.94390918947E+02  0.00000000000E+00 0. -1.
        -12    1    6    6    0    0  0.27497887775E+02  0.75311460250E+02  0.87315330470E+02  0.11854078122E+03  0.00000000000E+00 0.  1.
</event>
<event>
12    1  0.8526130E-002  0.2773660E+03  0.7818608E-02  0.1097159E+00
         21   -1    0    0  501  502  0.00000000000E+00  0.00000000000E+00  0.56383681959E+03  0.56383681959E+03  0.00000000000E+00 0.  1.
         21   -1    0    0  502  503 -0.00000000000E+00 -0.00000000000E+00 -0.32746115448E+03  0.32746115448E+03  0.00000000000E+00 0. -1.
         -6    2    1    2    0  503 -0.17675977713E+03 -0.12589925543E+03 -0.22223901385E+03  0.35541819421E+03  0.17273468723E+03 0.  0.
        -24    2    3    3    0    0 -0.38523597529E+02 -0.87017123413E+02 -0.61380157872E+02  0.13973619893E+03  0.81869616942E+02 0.  0.
          6    2    1    2  501    0  0.17675977713E+03  0.12589925543E+03  0.45861467896E+03  0.53587977986E+03  0.17246760093E+03 0.  0.
         24    2    5    5    0    0  0.15247199650E+03  0.15755730713E+03  0.41730942367E+03  0.47825736546E+03  0.80690382242E+02 0.  0.
          5    1    5    5  501    0  0.24287780631E+02 -0.31658051707E+02  0.41305255295E+02  0.57622414397E+02  0.47000000000E+01 0. -1.
        -11    1    6    6    0    0  0.11582433256E+03  0.86105492845E+02  0.32685885596E+03  0.35730399330E+03  0.00000000000E+00 0.  1.
         12    1    6    6    0    0  0.36647663937E+02  0.71451814288E+02  0.90450567710E+02  0.12095337216E+03  0.00000000000E+00 0. -1.
         -5    1    3    3    0  503 -0.13823617960E+03 -0.38882132013E+02 -0.16085885598E+03  0.21568199528E+03  0.47000000000E+01 0.  1.
         11    1    4    4    0    0 -0.48134000789E+02 -0.29525698088E+02 -0.58602055631E+02  0.81380893358E+02  0.00000000000E+00 0. -1.
        -12    1    4    4    0    0  0.96104032596E+01 -0.57491425325E+02 -0.27781022405E+01  0.58355305575E+02  0.00000000000E+00 0.  1.
</event>
<event>
12    1  0.8526130E-002  0.1746353E+03  0.7818608E-02  0.1173261E+00
         21   -1    0    0  501  502  0.00000000000E+00  0.00000000000E+00  0.14055169629E+03  0.14055169629E+03  0.00000000000E+00 0.  1.
         21   -1    0    0  502  503 -0.00000000000E+00 -0.00000000000E+00 -0.33483628352E+03  0.33483628352E+03  0.00000000000E+00 0.  1.
         -6    2    1    2    0  503 -0.14297179429E+02 -0.25309465954E+02 -0.23875111762E+03  0.29580326033E+03  0.17219899608E+03 0.  0.
        -24    2    3    3    0    0  0.16310456313E+02 -0.66555844244E+02 -0.90031727421E+02  0.13839411794E+03  0.79696352174E+02 0.  0.
          6    2    1    2  501    0  0.14297179429E+02  0.25309465954E+02  0.44466530387E+02  0.17958471947E+03  0.17154713853E+03 0.  0.
         24    2    5    5    0    0  0.18273031882E+02  0.84923947889E+02  0.31794826494E+02  0.11832824277E+03  0.73788084576E+02 0.  0.
          5    1    5    5  501    0 -0.39758524525E+01 -0.59614481935E+02  0.12671703893E+02  0.61256476708E+02  0.47000000000E+01 0. -1.
        -11    1    6    6    0    0  0.30453733592E+02  0.31979122358E+02 -0.14987290128E+02  0.46633818436E+02  0.00000000000E+00 0.  1.
         12    1    6    6    0    0 -0.12180701710E+02  0.52944825530E+02  0.46782116622E+02  0.71694424332E+02  0.00000000000E+00 0. -1.
         -5    1    3    3    0  503 -0.30607635742E+02  0.41246378290E+02 -0.14871939020E+03  0.15740914239E+03  0.47000000000E+01 0.  1.
         13    1    4    4    0    0  0.38298282622E+02 -0.42827884590E+01 -0.26610316218E+02  0.46831716369E+02  0.00000000000E+00 0. -1.
        -14    1    4    4    0    0 -0.21987826309E+02 -0.62273055785E+02 -0.63421411202E+02  0.91562401571E+02  0.00000000000E+00 0.  1.
</event>
<event>
12    1  0.8526130E-002  0.1922847E+03  0.7818608E-02  0.1156724E+00
         21   -1    0    0  503  502  0.00000000000E+00  0.00000000000E+00  0.84035520765E+02  0.84035520765E+02  0.00000000000E+00 0. -1.
         21   -1    0    0  501  503 -0.00000000000E+00 -0.00000000000E+00 -0.47164988763E+03  0.47164988763E+03  0.00000000000E+00 0. -1.
          6    2    1    2  501    0  0.82740250656E+02  0.23993366299E+02 -0.26865944708E+03  0.32957996356E+03  0.17036262257E+03 0.  0.
         24    2    3    3    0    0  0.26355881560E+02  0.73038571086E+02 -0.19537261499E+03  0.22480554421E+03  0.79610355256E+02 0.  0.
         -6    2    1    2    0  502 -0.82740250656E+02 -0.23993366299E+02 -0.11895491979E+03  0.22610544484E+03  0.17190627836E+03 0.  0.
        -24    2    5    5    0    0 -0.77575908803E+02  0.29856307061E+02 -0.12699463317E+03  0.17121296139E+03  0.79226388245E+02 0.  0.
          5    1    3    3  501    0  0.56384369096E+02 -0.49045204788E+02 -0.73286832095E+02  0.10477441935E+03  0.47000000000E+01 0. -1.
        -11    1    4    4    0    0  0.64922389777E-02  0.76776790952E+00 -0.10955577221E+03  0.10955846263E+03  0.00000000000E+00 0.  1.
         12    1    4    4    0    0  0.26349389321E+02  0.72270803177E+02 -0.85816842779E+02  0.11524708159E+03  0.00000000000E+00 0. -1.
         -5    1    5    5    0  502 -0.51643418523E+01 -0.53849673360E+02  0.80397133865E+01  0.54892483448E+02  0.47000000000E+01 0.  1.
         11    1    6    6    0    0 -0.71478365282E+02 -0.11716257415E+02 -0.73533890400E+02  0.10321657051E+03  0.00000000000E+00 0. -1.
        -12    1    6    6    0    0 -0.60975435216E+01  0.41572564476E+02 -0.53460742774E+02  0.67996390875E+02  0.00000000000E+00 0.  1.
</event>
<event>
12    1  0.8526130E-002  0.1728141E+03  0.7818608E-02  0.1175244E+00
         21   -1    0    0  503  502  0.00000000000E+00  0.00000000000E+00  0.23136224790E+03  0.23136224790E+03  0.00000000000E+00 0.  1.
         21   -1    0    0  501  503 -0.00000000000E+00 -0.00000000000E+00 -0.14170423244E+03  0.14170423244E+03  0.00000000000E+00 0.  1.
          6    2    1    2  501    0 -0.11403773709E+02 -0.13650265159E+02 -0.12592399514E+02  0.17327227624E+03  0.17189629838E+03 0.  0.
         24    2    3    3    0    0  0.45348329413E+02 -0.26742291905E+02 -0.46096727268E+02  0.10591626425E+03  0.79509280035E+02 0.  0.
         -6    2    1    2    0  502  0.11403773709E+02  0.13650265159E+02  0.10225041498E+03  0.19979420410E+03  0.17072258443E+03 0.  0.
        -24    2    5    5    0    0  0.31603964422E+02  0.41877369388E+02  0.42813989611E+01  0.95751735762E+02  0.79984622837E+02 0.  0.
          5    1    3    3  501    0 -0.56752103122E+02  0.13092026746E+02  0.33504327754E+02  0.67356011990E+02  0.47000000000E+01 0. -1.
        -13    1    4    4    0    0  0.10642078892E+02  0.18996162091E+02 -0.43260099120E+02  0.48430818631E+02  0.00000000000E+00 0.  1.
         14    1    4    4    0    0  0.34706250521E+02 -0.45738453996E+02 -0.28366281474E+01  0.57485445622E+02  0.00000000000E+00 0. -1.
         -5    1    5    5    0  502 -0.20200190713E+02 -0.28227104230E+02  0.97969016016E+02  0.10404246833E+03  0.47000000000E+01 0.  1.
         11    1    6    6    0    0 -0.72663850531E+01  0.46142913212E+02 -0.18790125343E+02  0.50349156913E+02  0.00000000000E+00 0. -1.
        -12    1    6    6    0    0  0.38870349475E+02 -0.42655438242E+01  0.23071524305E+02  0.45402578849E+02  0.00000000000E+00 0.  1.
</event>
<event>
12    1  0.8526130E-002  0.2093081E+03  0.7818608E-02  0.1142355E+00
         21   -1    0    0  503  502  0.00000000000E+00  0.00000000000E+00  0.21715571653E+03  0.21715571653E+03  0.00000000000E+00 0. -1.
         21   -1    0    0  501  503 -0.00000000000E+00 -0.00000000000E+00 -0.26407745448E+03  0.26407745448E+03  0.00000000000E+00 0. -1.
          6    2    1    2  501    0 -0.65531285065E+02 -0.97726574105E+02 -0.14149249969E+03  0.25264599355E+03  0.17310412468E+03 0.  0.
         24    2    3    3    0    0  0.11400992228E+01  0.17235373597E+02 -0.61945764229E+02  0.97690851577E+02  0.73538199914E+02 0.  0.
         -6    2    1    2    0  502  0.65531285065E+02  0.97726574105E+02  0.94570761731E+02  0.22858717746E+03  0.17164974837E+03 0.  0.
        -24    2    5    5    0    0  0.10097521498E+03  0.84967347003E+02  0.10837814902E+03  0.18819158379E+03  0.79087324681E+02 0.  0.
          5    1    3    3  501    0 -0.66671384288E+02 -0.11496194770E+03 -0.79546735458E+02  0.15495514197E+03  0.47000000000E+01 0. -1.
        -13    1    4    4    0    0  0.18355358540E+02 -0.22294400215E+02 -0.39932899614E+02  0.49280786719E+02  0.00000000000E+00 0.  1.
         14    1    4    4    0    0 -0.17215259317E+02  0.39529773812E+02 -0.22012864615E+02  0.48410064858E+02  0.00000000000E+00 0. -1.
         -5    1    5    5    0  502 -0.35443929919E+02  0.12759227102E+02 -0.13807387292E+02  0.40395593673E+02  0.47000000000E+01 0.  1.
         11    1    6    6    0    0  0.50582086529E+02  0.87606938978E+02  0.86852803773E+02  0.13333016447E+03  0.00000000000E+00 0. -1.
        -12    1    6    6    0    0  0.50393128455E+02 -0.26395919753E+01  0.21525345250E+02  0.54861419317E+02  0.00000000000E+00 0.  1.
</event>
<event>
12    1  0.8526130E-002  0.3475908E+03  0.7818608E-02  0.1063612E+00
         21   -1    0    0  501  502  0.00000000000E+00  0.00000000000E+00  0.23507601035E+03  0.23507601035E+03  0.00000000000E+00 0.  1.
         21   -1    0    0  502  503 -0.00000000000E+00 -0.00000000000E+00 -0.74194906419E+03  0.74194906419E+03  0.00000000000E+00 0.  1.
         -6    2    1    2    0  503  0.39817799250E+02 -0.29923923253E+03 -0.52425867592E+03  0.62899975875E+03  0.17223229027E+03 0.  0.
        -24    2    3    3    0    0 -0.97473912164E+01 -0.28090840885E+03 -0.46874860757E+03  0.55221313953E+03  0.78800688929E+02 0.  0.
          6    2    1    2  501    0 -0.39817799250E+02  0.29923923253E+03  0.17385622072E+02  0.34802531579E+03  0.17230724058E+03 0.  0.
         24    2    5    5    0    0 -0.77376978087E-01  0.76528626420E+02 -0.40959833920E+02  0.11434690971E+03  0.74437027856E+02 0.  0.
          5    1    5    5  501    0 -0.39740422272E+02  0.22271060611E+03  0.58345455991E+02  0.23367840608E+03  0.47000000000E+01 0. -1.
        -13    1    6    6    0    0  0.17993208323E+02  0.24520958188E+02  0.16637516416E+02  0.34667562486E+02  0.00000000000E+00 0.  1.
         14    1    6    6    0    0 -0.18070585301E+02  0.52007668232E+02 -0.57597350335E+02  0.79679347222E+02  0.00000000000E+00 0. -1.
         -5    1    3    3    0  503  0.49565190466E+02 -0.18330823678E+02 -0.55510068349E+02  0.76786619217E+02  0.47000000000E+01 0.  1.
         11    1    4    4    0    0  0.14060370350E+02 -0.16568870006E+02 -0.14544400799E+02  0.26148825256E+02  0.00000000000E+00 0. -1.
        -12    1    4    4    0    0 -0.23807761567E+02 -0.26433953884E+03 -0.45420420677E+03  0.52606431428E+03  0.00000000000E+00 0.  1.
</event>
<event>
12    1  0.8526130E-002  0.2497187E+03  0.7818608E-02  0.1113560E+00
         21   -1    0    0  501  502  0.00000000000E+00  0.00000000000E+00  0.10461177613E+04  0.10461177613E+04  0.00000000000E+00 0. -1.
         21   -1    0    0  502  503 -0.00000000000E+00 -0.00000000000E+00 -0.61733376151E+02  0.61733376151E+02  0.00000000000E+00 0.  1.
         -6    2    1    2    0  503 -0.79792121797E+02 -0.16141468359E+03  0.59816800816E+03  0.64820089262E+03  0.17302586058E+03 0.  0.
        -24    2    3    3    0    0 -0.24319134286E+02 -0.14465938810E+02  0.29737488130E+03  0.30883415721E+03  0.78396638673E+02 0.  0.
          6    2    1    2  501    0  0.79792121797E+02  0.16141468359E+03  0.38621637701E+03  0.45965024485E+03  0.17231881772E+03 0.  0.
         24    2    5    5    0    0  0.71402202449E+02  0.31635889620E+02  0.17630768024E+03  0.21267519127E+03  0.89706381288E+02 0.  0.
          5    1    5    5  501    0  0.83899193481E+01  0.12977879397E+03  0.20990869677E+03  0.24697505358E+03  0.47000000000E+01 0. -1.
        -13    1    6    6    0    0  0.16721814046E+02  0.53636914871E+02  0.11288392281E+03  0.12609249672E+03  0.00000000000E+00 0.  1.
         14    1    6    6    0    0  0.54680388404E+02 -0.22001025251E+02  0.63423757436E+02  0.86582694549E+02  0.00000000000E+00 0. -1.
         -5    1    3    3    0  503 -0.55472987511E+02 -0.14694874478E+03  0.30079312686E+03  0.33936673541E+03  0.47000000000E+01 0.  1.
         13    1    4    4    0    0 -0.84590877954E+01  0.26680901017E+01  0.27895283450E+03  0.27909381710E+03  0.00000000000E+00 0. -1.
        -14    1    4    4    0    0 -0.15860046491E+02 -0.17134028912E+02  0.18422046802E+02  0.29740340109E+02  0.00000000000E+00 0.  1.
</event>
<event>
12    1  0.8526130E-002  0.1862239E+03  0.7818608E-02  0.1162550E+00
         21   -1    0    0  503  502  0.00000000000E+00  0.00000000000E+00  0.30056136932E+03  0.30056136932E+03  0.00000000000E+00 0. -1.
         21   -1    0    0  501  503 -0.00000000000E+00 -0.00000000000E+00 -0.24278613715E+03  0.24278613715E+03  0.00000000000E+00 0.  1.
          6    2    1    2  501    0 -0.89454780607E+01  0.71072259472E+02 -0.16911083193E+03  0.25155083891E+03  0.17189550149E+03 0.  0.
         24    2    3    3    0    0 -0.62731931985E+02  0.78746089616E+02 -0.10052024633E+03  0.16392305377E+03  0.81426075146E+02 0.  0.
         -6    2    1    2    0  502  0.89454780607E+01 -0.71072259472E+02  0.22688606410E+03  0.29179666756E+03  0.16892815477E+03 0.  0.
        -24    2    5    5    0    0  0.50439396003E+02 -0.16806110083E+02  0.19217565986E+03  0.21502777830E+03  0.80491510072E+02 0.  0.
          5    1    3    3  501    0  0.53786453924E+02 -0.76738301440E+01 -0.68590585603E+02  0.87627785138E+02  0.47000000000E+01 0. -1.
        -11    1    4    4    0    0 -0.15534817139E+02  0.41196623858E+02  0.29834638946E+01  0.44129280729E+02  0.00000000000E+00 0.  1.
         12    1    4    4    0    0 -0.47197114845E+02  0.37549465758E+02 -0.10350371022E+03  0.11979377304E+03  0.00000000000E+00 0. -1.
         -5    1    5    5    0  502 -0.41493917943E+02 -0.54266149389E+02  0.34710404244E+02  0.76768889262E+02  0.47000000000E+01 0.  1.
         11    1    6    6    0    0 -0.21624254365E+02 -0.10179482777E+02  0.53841902087E+02  0.58908239379E+02  0.00000000000E+00 0. -1.
        -12    1    6    6    0    0  0.72063650368E+02 -0.66266273052E+01  0.13833375777E+03  0.15611953892E+03  0.00000000000E+00 0.  1.
</event>
<event>
12    1  0.8526130E-002  0.2263899E+03  0.7818608E-02  0.1129330E+00
         21   -1    0    0  503  502  0.00000000000E+00  0.00000000000E+00  0.14146644765E+03  0.14146644765E+03  0.00000000000E+00 0. -1.
         21   -1    0    0  501  503 -0.00000000000E+00 -0.00000000000E+00 -0.43416775124E+03  0.43416775124E+03  0.00000000000E+00 0. -1.
          6    2    1    2  501    0  0.14530088931E+03  0.16380973437E+02 -0.28175081588E+02  0.22745821791E+03  0.17193813117E+03 0.  0.
         24    2    3    3    0    0  0.17396652206E+03  0.75460858231E+01 -0.34707137516E+02  0.19640131055E+03  0.83949956402E+02 0.  0.
         -6    2    1    2    0  502 -0.14530088931E+03 -0.16380973437E+02 -0.26452622199E+03  0.34817598098E+03  0.17283433364E+03 0.  0.
        -24    2    5    5    0    0 -0.88516721941E+02 -0.59848919465E+02 -0.23644358627E+03  0.27120437307E+03  0.78924896307E+02 0.  0.
          5    1    3    3  501    0 -0.28665632756E+02  0.88348876141E+01  0.65320559285E+01  0.31056907365E+02  0.47000000000E+01 0. -1.
        -13    1    4    4    0    0  0.38685783353E+02  0.19813312651E+02 -0.41904419826E+02  0.60374974888E+02  0.00000000000E+00 0.  1.
         14    1    4    4    0    0  0.13528073871E+03 -0.12267226828E+02  0.71972823091E+01  0.13602633566E+03  0.00000000000E+00 0. -1.
         -5    1    5    5    0  502 -0.56784167367E+02  0.43467946028E+02 -0.28082635721E+02  0.76971607911E+02  0.47000000000E+01 0.  1.
         11    1    6    6    0    0 -0.16729016653E+02 -0.57364765705E+02 -0.12608846920E+03  0.13953092276E+03  0.00000000000E+00 0. -1.
        -12    1    6    6    0    0 -0.71787705287E+02 -0.24841537599E+01 -0.11035511708E+03  0.13167345031E+03  0.00000000000E+00 0.  1.
</event>
<event>
12    1  0.8526130E-002  0.1804284E+03  0.7818608E-02  0.1167537E+00
         21   -1    0    0  503  502  0.00000000000E+00  0.00000000000E+00  0.42586260468E+03  0.42586260468E+03  0.00000000000E+00 0. -1.
         21   -1    0    0  501  503 -0.00000000000E+00 -0.00000000000E+00 -0.85064268002E+02  0.85064268002E+02  0.00000000000E+00 0. -1.
          6    2    1    2  501    0 -0.51820139021E+02 -0.86323112311E+01  0.88120808379E+02  0.20079764511E+03  0.17261104776E+03 0.  0.
         24    2    3    3    0    0 -0.56733599915E+02 -0.85712897702E+01 -0.13151316099E+02  0.99297502170E+02  0.79967921409E+02 0.  0.
         -6    2    1    2    0  502  0.51820139021E+02  0.86323112311E+01  0.25267752830E+03  0.31012922756E+03  0.17197197701E+03 0.  0.
        -24    2    5    5    0    0  0.97776438852E+02  0.20590187250E+02  0.15568529088E+03  0.20203410088E+03  0.81213793889E+02 0.  0.
          5    1    3    3  501    0  0.49134608934E+01 -0.61021460888E-01  0.10127212448E+03  0.10150014294E+03  0.47000000000E+01 0. -1.
        -13    1    4    4    0    0 -0.15296453857E+02 -0.41918834030E+02 -0.11509358086E+02  0.46082919510E+02  0.00000000000E+00 0.  1.
         14    1    4    4    0    0 -0.41437146058E+02  0.33347544260E+02 -0.16419580128E+01  0.53214582660E+02  0.00000000000E+00 0. -1.
         -5    1    5    5    0  502 -0.45956299830E+02 -0.11957876019E+02  0.96992237414E+02  0.10809512668E+03  0.47000000000E+01 0.  1.
         13    1    6    6    0    0  0.21871062855E+02  0.11933829382E+01  0.10825964522E+03  0.11045324050E+03  0.00000000000E+00 0. -1.
        -14    1    6    6    0    0  0.75905375996E+02  0.19396804311E+02  0.47425645660E+02  0.91580860385E+02  0.00000000000E+00 0.  1.
</event>
<event>
12    1  0.8526130E-002  0.1814177E+03  0.7818608E-02  0.1166817E+00
         21   -1    0    0  503  502  0.00000000000E+00  0.00000000000E+00  0.93445153778E+03  0.93445153778E+03  0.00000000000E+00 0.  1.
         21   -1    0    0  501  503 -0.00000000000E+00 -0.00000000000E+00 -0.46652627677E+02  0.46652627677E+02  0.00000000000E+00 0.  1.
          6    2    1    2  501    0  0.16824738445E+02 -0.58035820736E+02  0.19640095769E+03  0.26630105073E+03  0.16938620110E+03 0.  0.
         24    2    3    3    0    0 -0.48434820910E+01 -0.48859212138E+02  0.32471961289E+02  0.10062507846E+03  0.81610637878E+02 0.  0.
         -6    2    1    2    0  502 -0.16824738445E+02  0.58035820736E+02  0.69139795241E+03  0.71480311473E+03  0.17105886681E+03 0.  0.
        -24    2    5    5    0    0 -0.74533243494E+02  0.25455904955E+02  0.49258167327E+03  0.50518029794E+03  0.79794868888E+02 0.  0.
          5    1    3    3  501    0  0.21668220536E+02 -0.91766085977E+01  0.16392899640E+03  0.16567597227E+03  0.47000000000E+01 0. -1.
        -13    1    4    4    0    0 -0.41463063149E+02 -0.19752644972E+02  0.27627283137E+02  0.53596822318E+02  0.00000000000E+00 0.  1.
         14    1    4    4    0    0  0.36619581058E+02 -0.29106567166E+02  0.48446781514E+01  0.47028256138E+02  0.00000000000E+00 0. -1.
         -5    1    5    5    0  502  0.57708505049E+02  0.32579915781E+02  0.19881627914E+03  0.20962281679E+03  0.47000000000E+01 0.  1.
         11    1    6    6    0    0 -0.43322475890E+02 -0.11519616833E+02  0.99503608924E+02  0.10913526780E+03  0.00000000000E+00 0. -1.
        -12    1    6    6    0    0 -0.31210767604E+02  0.36975521788E+02  0.39307806435E+03  0.39604503014E+03  0.00000000000E+00 0.  1.
</event>
<event>
12    1  0.8526130E-002  0.1750351E+03  0.7818608E-02  0.1172764E+00
         21   -1    0    0  503  502  0.00000000000E+00  0.00000000000E+00  0.10085818323E+04  0.10085818323E+04  0.00000000000E+00 0.  1.
         21   -1    0    0  501  503 -0.00000000000E+00 -0.00000000000E+00 -0.66689191873E+02  0.66689191873E+02  0.00000000000E+00 0.  1.
          6    2    1    2  501    0 -0.13126932465E+02  0.33073336287E+02  0.74131434171E+02  0.19008621678E+03  0.17138009905E+03 0.  0.
         24    2    3    3    0    0 -0.32593638370E+02 -0.43044653413E+02  0.36485719734E+02  0.10283834684E+03  0.79557088849E+02 0.  0.
         -6    2    1    2    0  502  0.13126932465E+02 -0.33073336287E+02  0.86776120626E+03  0.88518480739E+03  0.17110368266E+03 0.  0.
        -24    2    5    5    0    0  0.60377928089E+02 -0.29684291291E+02  0.76295790788E+03  0.77007632132E+03  0.79913203663E+02 0.  0.
          5    1    3    3  501    0  0.19466705905E+02  0.76117989700E+02  0.37645714437E+02  0.87247869947E+02  0.47000000000E+01 0. -1.
        -13    1    4    4    0    0 -0.88191535051E+01 -0.62064890445E+02  0.36201444013E+02  0.72390418172E+02  0.00000000000E+00 0.  1.
         14    1    4    4    0    0 -0.23774484865E+02  0.19020237032E+02  0.28427572068E+00  0.30447928665E+02  0.00000000000E+00 0. -1.
         -5    1    5    5    0  502 -0.47250995624E+02 -0.33890449964E+01  0.10480329839E+03  0.11510848607E+03  0.47000000000E+01 0.  1.
         13    1    6    6    0    0 -0.18613502513E+01 -0.40687951048E+01  0.33242304846E+00  0.44866717560E+01  0.00000000000E+00 0. -1.
        -14    1    6    6    0    0  0.62239278340E+02 -0.25615496186E+02  0.76262548483E+03  0.76558964957E+03  0.00000000000E+00 0.  1.
</event>
<event>
12    1  0.8526130E-002  0.1884554E+03  0.7818608E-02  0.1160271E+00
         21   -1    0    0  501  502  0.00000000000E+00  0.00000000000E+00  0.69858205001E+03  0.69858205001E+03  0.00000000000E+00 0.  1.
         21   -1    0    0  502  503 -0.00000000000E+00 -0.00000000000E+00 -0.67332206088E+02  0.67332206088E+02  0.00000000000E+00 0.  1.
         -6    2    1    2    0  503  0.37904482364E+02 -0.64998405059E+02  0.12447529017E+03  0.22585287983E+03  0.17278276251E+03 0.  0.
        -24    2    3    3    0    0  0.30115276932E+02 -0.45254412812E+02 -0.88243382967E+00  0.98624164838E+02  0.82286423041E+02 0.  0.
          6    2    1    2  501    0 -0.37904482364E+02  0.64998405059E+02  0.50677455375E+03  0.54006137627E+03  0.17083412823E+03 0.  0.
         24    2    5    5    0    0 -0.75979896828E+02  0.87318907802E+02  0.39939599448E+03  0.42387107108E+03  0.82170481984E+02 0.  0.
          5    1    5    5  501    0  0.38075414464E+02 -0.22320502743E+02  0.10737855927E+03  0.11619030519E+03  0.47000000000E+01 0. -1.
        -13    1    6    6    0    0 -0.35005869763E+02  0.39118918568E+02  0.30965596836E+03  0.31407406682E+03  0.00000000000E+00 0.  1.
         14    1    6    6    0    0 -0.40974027065E+02  0.48199989234E+02  0.89740026112E+02  0.10979700425E+03  0.00000000000E+00 0. -1.
         -5    1    3    3    0  503  0.77892054317E+01 -0.19743992247E+02  0.12535772400E+03  0.12722871499E+03  0.47000000000E+01 0.  1.
         13    1    4    4    0    0  0.59090062839E+01 -0.61730447219E+02  0.17017127882E+02  0.64305109520E+02  0.00000000000E+00 0. -1.
        -14    1    4    4    0    0  0.24206270648E+02  0.16476034407E+02 -0.17899561712E+02  0.34319055318E+02  0.00000000000E+00 0.  1.
</event>
<event>
12    1  0.8526130E-002  0.2092079E+03  0.7818608E-02  0.1142319E+00
         21   -1    0    0  501  502  0.00000000000E+00  0.00000000000E+00  0.22855098701E+02  0.22855098701E+02  0.00000000000E+00 0. -1.
         21   -1    0    0  502  503 -0.00000000000E+00 -0.00000000000E+00 -0.21590786717E+04  0.21590786717E+04  0.00000000000E+00 0. -1.
         -6    2    1    2    0  503  0.57821713301E+02 -0.10416080723E+03 -0.14405807813E+04  0.14556925958E+04  0.17197418865E+03 0.  0.
        -24    2    3    3    0    0  0.60583440381E+02 -0.88221357759E+02 -0.14282091571E+04  0.14347918716E+04  0.85982306835E+02 0.  0.
          6    2    1    2  501    0 -0.57821713301E+02  0.10416080723E+03 -0.69564279168E+03  0.72624117464E+03  0.17121485284E+03 0.  0.
         24    2    5    5    0    0  0.13599751769E+02  0.18133886006E+02 -0.43060898063E+03  0.43854920769E+03  0.79921976297E+02 0.  0.
          5    1    5    5  501    0 -0.71421465070E+02  0.86026921221E+02 -0.26503381105E+03  0.28769196695E+03  0.47000000000E+01 0. -1.
        -13    1    6    6    0    0 -0.18151791787E+02 -0.22749674878E+02 -0.20641558079E+03  0.20845725519E+03  0.00000000000E+00 0.  1.
         14    1    6    6    0    0  0.31751543556E+02  0.40883560884E+02 -0.22419339984E+03  0.23009195249E+03  0.00000000000E+00 0. -1.
         -5    1    3    3    0  503 -0.27617270805E+01 -0.15939449468E+02 -0.12371624211E+02  0.20900724185E+02  0.47000000000E+01 0.  1.
         13    1    4    4    0    0  0.54816552231E+02 -0.45692376355E+02 -0.44839804512E+03  0.45404124760E+03  0.00000000000E+00 0. -1.
        -14    1    4    4    0    0  0.57668881499E+01 -0.42528981403E+02 -0.97981111199E+03  0.98075062398E+03  0.00000000000E+00 0.  1.
</event>
<event>
12    1  0.8526130E-002  0.2297575E+03  0.7818608E-02  0.1126885E+00
         21   -1    0    0  501  502  0.00000000000E+00  0.00000000000E+00  0.22530199229E+03  0.22530199229E+03  0.00000000000E+00 0.  1.
         21   -1    0    0  502  503 -0.00000000000E+00 -0.00000000000E+00 -0.10382642037E+04  0.10382642037E+04  0.00000000000E+00 0.  1.
         -6    2    1    2    0  503  0.12779440708E+03  0.82015047411E+02 -0.96265787997E+03  0.98969627694E+03  0.17242577601E+03 0.  0.
        -24    2    3    3    0    0  0.31458076339E+02 -0.17393241270E+02 -0.28576411002E+03  0.29877662728E+03  0.79462009963E+02 0.  0.
          6    2    1    2  501    0 -0.12779440708E+03 -0.82015047411E+02  0.14969566859E+03  0.27386991901E+03  0.17186640411E+03 0.  0.
         24    2    5    5    0    0 -0.11641735332E+03 -0.91817537326E+02  0.17588144335E+03  0.24331978055E+03  0.79289174395E+02 0.  0.
          5    1    5    5  501    0 -0.11377053757E+02  0.98024899144E+01 -0.26185774756E+02  0.30550138466E+02  0.47000000000E+01 0. -1.
        -13    1    6    6    0    0 -0.19921470108E+02  0.14437669274E+02  0.25338867749E+02  0.35318118355E+02  0.00000000000E+00 0.  1.
         14    1    6    6    0    0 -0.96495883213E+02 -0.10625520660E+03  0.15054257560E+03  0.20800166219E+03  0.00000000000E+00 0. -1.
         -5    1    3    3    0  503  0.96336330739E+02  0.99408288682E+02 -0.67689376996E+03  0.69091964966E+03  0.47000000000E+01 0.  1.
         11    1    4    4    0    0 -0.16875200267E+00  0.28055426530E+02 -0.58717429785E+02  0.65075894120E+02  0.00000000000E+00 0. -1.
        -12    1    4    4    0    0  0.31626828341E+02 -0.45448667800E+02 -0.22704668023E+03  0.23370073316E+03  0.00000000000E+00 0.  1.
</event>
<event>
12    1  0.8526130E-002  0.1845034E+03  0.7818608E-02  0.1163824E+00
         21   -1    0    0  501  502  0.00000000000E+00  0.00000000000E+00  0.88316560891E+03  0.88316560891E+03  0.00000000000E+00 0. -1.
         21   -1    0    0  502  503 -0.00000000000E+00 -0.00000000000E+00 -0.14887555772E+03  0.14887555772E+03  0.00000000000E+00 0. -1.
         -6    2    1    2    0  503  0.26954896130E+02  0.59750912592E+02 -0.77294357946E+02  0.20003978386E+03  0.17246669062E+03 0.  0.
        -24    2    3    3    0    0  0.18559827240E+02  0.10019878471E+03 -0.88106508734E+02  0.15708049912E+03  0.80791476503E+02 0.  0.
          6    2    1    2  501    0 -0.26954896130E+02 -0.59750912592E+02  0.81158440913E+03  0.83200138277E+03  0.17105645210E+03 0.  0.
         24    2    5    5    0    0 -0.41677117034E+02 -0.18542050689E+02  0.74237499413E+03  0.74998341393E+03  0.96300049495E+02 0.  0.
          5    1    5    5  501    0  0.14722220904E+02 -0.41208861904E+02  0.69209415003E+02  0.82017968841E+02  0.47000000000E+01 0. -1.
        -13    1    6    6    0    0 -0.47450866312E+02 -0.81738530286E+01  0.15103488496E+03  0.15852423493E+03  0.00000000000E+00 0.  1.
         14    1    6    6    0    0  0.57737492778E+01 -0.10368197660E+02  0.59134010917E+03  0.59145917899E+03  0.00000000000E+00 0. -1.
         -5    1    3    3    0  503  0.83950688908E+01 -0.40447872123E+02  0.10812150788E+02  0.42959284743E+02  0.47000000000E+01 0.  1.
         11    1    4    4    0    0 -0.12157398930E+02  0.31140626347E+02 -0.72596856718E+02  0.79923992413E+02  0.00000000000E+00 0. -1.
        -12    1    4    4    0    0  0.30717226169E+02  0.69058158368E+02 -0.15509652016E+02  0.77156506702E+02  0.00000000000E+00 0.  1.
</event>
<event>
12    1  0.8526130E-002  0.2089704E+03  0.7818608E-02  0.1143314E+00
         21   -1    0    0  503  502  0.00000000000E+00  0.00000000000E+00  0.82287808018E+03  0.82287808018E+03  0.00000000000E+00 0.  1.
         21   -1    0    0  501  503 -0.00000000000E+00 -0.00000000000E+00 -0.52514693527E+02  0.52514693527E+02  0.00000000000E+00 0.  1.
          6    2    1    2  501    0  0.92858942674E+02 -0.74841320503E+02  0.34220853395E+03  0.40096795741E+03  0.17159433460E+03 0.  0.
         24    2    3    3    0    0  0.10151526415E+03 -0.95570691862E+02  0.19868730871E+03  0.25562329519E+03  0.80171793071E+02 0.  0.
         -6    2    1    2    0  502 -0.92858942674E+02  0.74841320503E+02  0.42815485270E+03  0.47442481630E+03  0.16594674430E+03 0.  0.
        -24    2    5    5    0    0 -0.24299109929E+02  0.69546015319E+02  0.13358267550E+03  0.17189655563E+03  0.79227518288E+02 0.  0.
          5    1    3    3  501    0 -0.86563214788E+01  0.20729371359E+02  0.14352122525E+03  0.14534466222E+03  0.47000000000E+01 0. -1.
        -11    1    4    4    0    0  0.70741204891E+02 -0.90883622783E+02  0.19183094155E+03  0.22374820914E+03  0.00000000000E+00 0.  1.
         12    1    4    4    0    0  0.30774059261E+02 -0.46870690793E+01  0.68563671594E+01  0.31875086048E+02  0.00000000000E+00 0. -1.
         -5    1    5    5    0  502 -0.68559832744E+02  0.52953051842E+01  0.29457217721E+03  0.30252826067E+03  0.47000000000E+01 0.  1.
         13    1    6    6    0    0 -0.20329996581E+02 -0.13871714728E+02  0.32882941218E+02  0.41073361849E+02  0.00000000000E+00 0. -1.
        -14    1    6    6    0    0 -0.39691133483E+01  0.83417730046E+02  0.10069973428E+03  0.13082319378E+03  0.00000000000E+00 0.  1.
</event>
<event>
12    1  0.8526130E-002  0.2257693E+03  0.7818608E-02  0.1129758E+00
         21   -1    0    0  503  502  0.00000000000E+00  0.00000000000E+00  0.90008583404E+02  0.90008583404E+02  0.00000000000E+00 0. -1.
         21   -1    0    0  501  503 -0.00000000000E+00 -0.00000000000E+00 -0.73551162751E+03  0.73551162751E+03  0.00000000000E+00 0. -1.
          6    2    1    2  501    0  0.14290020918E+03  0.24878116101E+02 -0.52126114515E+03  0.56782302006E+03  0.17225100933E+03 0.  0.
         24    2    3    3    0    0  0.10134126168E+03 -0.37080787049E+02 -0.22548058999E+03  0.26274224615E+03  0.80913258257E+02 0.  0.
         -6    2    1    2    0  502 -0.14290020918E+03 -0.24878116101E+02 -0.12424189895E+03  0.25769719086E+03  0.17300983289E+03 0.  0.
        -24    2    5    5    0    0 -0.13058032137E+03  0.39928914122E+02 -0.74277830650E+02  0.17481034677E+03  0.79974512805E+02 0.  0.
          5    1    3    3  501    0  0.41558947500E+02  0.61958903150E+02 -0.29578055516E+03  0.30508077391E+03  0.47000000000E+01 0. -1.
        -13    1    4    4    0    0  0.38488926407E+02 -0.48972986700E+02 -0.65211803805E+02  0.90179433563E+02  0.00000000000E+00 0.  1.
         14    1    4    4    0    0  0.62852335274E+02  0.11892199652E+02 -0.16026878619E+03  0.17256281259E+03  0.00000000000E+00 0. -1.
         -5    1    5    5    0  502 -0.12319887811E+02 -0.64807030224E+02 -0.49964068304E+02  0.82886844092E+02  0.47000000000E+01 0.  1.
         11    1    6    6    0    0 -0.99212440617E+02 -0.32098800021E+00 -0.74015860303E+02  0.12378028511E+03  0.00000000000E+00 0. -1.
        -12    1    6    6    0    0 -0.31367880752E+02  0.40249902123E+02 -0.26197034785E+00  0.51030061652E+02  0.00000000000E+00 0.  1.
</event>
<event>
12    1  0.8526130E-002  0.1807279E+03  0.7818608E-02  0.1167278E+00
         21   -1    0    0  503  502  0.00000000000E+00  0.00000000000E+00  0.42193200773E+02  0.42193200773E+02  0.00000000000E+00 0. -1.
         21   -1    0    0  501  503 -0.00000000000E+00 -0.00000000000E+00 -0.96306153905E+03  0.96306153905E+03  0.00000000000E+00 0.  1.
          6    2    1    2  501    0 -0.54855596129E+02  0.16635574022E+02 -0.68566151604E+03  0.70907989671E+03  0.17139634359E+03 0.  0.
         24    2    3    3    0    0  0.35114783484E+02 -0.35404649876E+01 -0.37947550361E+03  0.38927729202E+03  0.79306805105E+02 0.  0.
         -6    2    1    2    0  502  0.54855596129E+02 -0.16635574022E+02 -0.23520682224E+03  0.29617484311E+03  0.17062066028E+03 0.  0.
        -24    2    5    5    0    0  0.54711209692E+02 -0.39704685065E+02 -0.24823759850E+03  0.26926581374E+03  0.79450579964E+02 0.  0.
          5    1    3    3  501    0 -0.89970379613E+02  0.20176039010E+02 -0.30618601243E+03  0.31980260469E+03  0.47000000000E+01 0. -1.
        -11    1    4    4    0    0  0.27596132555E+02  0.20098223869E+02 -0.34564611342E+03  0.34732797304E+03  0.00000000000E+00 0.  1.
         12    1    4    4    0    0  0.75186509283E+01 -0.23638688857E+02 -0.33829390188E+02  0.41949318983E+02  0.00000000000E+00 0. -1.
         -5    1    5    5    0  502  0.14438643752E+00  0.23069111043E+02  0.13030776262E+02  0.26909029372E+02  0.47000000000E+01 0.  1.
         13    1    6    6    0    0  0.21253517180E+02 -0.10855275183E+01 -0.65945680500E+01  0.22279557677E+02  0.00000000000E+00 0. -1.
        -14    1    6    6    0    0  0.33457692512E+02 -0.38619157547E+02 -0.24164303045E+03  0.24698625606E+03  0.00000000000E+00 0.  1.
</event>
<event>
12    1  0.8526130E-002  0.2256710E+03  0.7818608E-02  0.1129950E+00
         21   -1    0    0  501  502  0.00000000000E+00  0.00000000000E+00  0.81579036502E+02  0.81579036502E+02  0.00000000000E+00 0.  1.
         21   -1    0    0  502  503 -0.00000000000E+00 -0.00000000000E+00 -0.63411036323E+03  0.63411036323E+03  0.00000000000E+00 0. -1.
         -6    2    1    2    0  503  0.13184736477E+03 -0.59874729866E+02 -0.32879966971E+03  0.39879397169E+03  0.17308581160E+03 0.  0.
        -24    2    3    3    0    0  0.17449628926E+02  0.21348946160E+02 -0.12050758216E+03  0.14761313792E+03  0.80667800748E+02 0.  0.
          6    2    1    2  501    0 -0.13184736477E+03  0.59874729866E+02 -0.22373165702E+03  0.31689542805E+03  0.17145887872E+03 0.  0.
         24    2    5    5    0    0 -0.14895028251E+03  0.16667298132E+02 -0.13555265035E+03  0.21711056361E+03  0.79363028731E+02 0.  0.
          5    1    5    5  501    0  0.17102917742E+02  0.43207431734E+02 -0.88179006677E+02  0.99784864437E+02  0.47000000000E+01 0. -1.
        -13    1    6    6    0    0 -0.57813648863E+02  0.45088754598E+02 -0.69488583420E+02  0.10101523158E+03  0.00000000000E+00 0.  1.
         14    1    6    6    0    0 -0.91136633650E+02 -0.28421456465E+02 -0.66064066926E+02  0.11609533203E+03  0.00000000000E+00 0. -1.
         -5    1    3    3    0  503  0.11439773584E+03 -0.81223676026E+02 -0.20829208755E+03  0.25118083376E+03  0.47000000000E+01 0.  1.
         13    1    4    4    0    0  0.11337631500E+02  0.21986642561E+02 -0.13215160984E+03  0.13444702423E+03  0.00000000000E+00 0. -1.
        -14    1    4    4    0    0  0.61119974257E+01 -0.63769640090E+00  0.11644027682E+02  0.13166113697E+02  0.00000000000E+00 0.  1.
</event>
<event>
12    1  0.8526130E-002  0.2295249E+03  0.7818608E-02  0.1127014E+00
         21   -1    0    0  501  502  0.00000000000E+00  0.00000000000E+00  0.32108351904E+04  0.32108351904E+04  0.00000000000E+00 0.  1.
         21   -1    0    0  502  503 -0.00000000000E+00 -0.00000000000E+00 -0.18401438599E+02  0.18401438599E+02  0.00000000000E+00 0.  1.
         -6    2    1    2    0  503  0.38928295744E+02  0.14625201332E+03  0.10632793842E+04  0.10877705311E+04  0.17255902167E+03 0.  0.
        -24    2    3    3    0    0 -0.29055681768E+02  0.53310425797E+02  0.31698747302E+03  0.33263235401E+03  0.80479753584E+02 0.  0.
          6    2    1    2  501    0 -0.38928295744E+02 -0.14625201332E+03  0.21291543676E+04  0.21414660979E+04  0.17226045267E+03 0.  0.
         24    2    5    5    0    0  0.15151580850E+02 -0.20935592457E+02  0.11239637566E+04  0.11270405989E+04  0.79108255436E+02 0.  0.
          5    1    5    5  501    0 -0.54079876594E+02 -0.12531642086E+03  0.10051906110E+04  0.10144254989E+04  0.47000000000E+01 0. -1.
        -13    1    6    6    0    0  0.20681761413E+02 -0.20855579994E+02  0.11196273256E+04  0.11200125172E+04  0.00000000000E+00 0.  1.
         14    1    6    6    0    0 -0.55301805637E+01 -0.80012463052E-01  0.43364310046E+01  0.70280817382E+01  0.00000000000E+00 0. -1.
         -5    1    3    3    0  503  0.67983977513E+02  0.92941587519E+02  0.74629191113E+03  0.75513817709E+03  0.47000000000E+01 0.  1.
         11    1    4    4    0    0 -0.54735518238E+02  0.19822635475E+02  0.19814530589E+03  0.20651991691E+03  0.00000000000E+00 0. -1.
        -12    1    4    4    0    0  0.25679836470E+02  0.33487790322E+02  0.11884216713E+03  0.12611243710E+03  0.00000000000E+00 0.  1.
</event>
<event>
12    1  0.8526130E-002  0.1764513E+03  0.7818608E-02  0.1171562E+00
         21   -1    0    0  501  502  0.00000000000E+00  0.00000000000E+00  0.18325777874E+04  0.18325777874E+04  0.00000000000E+00 0.  1.
         21   -1    0    0  502  503 -0.00000000000E+00 -0.00000000000E+00 -0.44078386257E+02  0.44078386257E+02  0.00000000000E+00 0.  1.
         -6    2    1    2    0  503 -0.35402407101E+01  0.39194603887E+02  0.15610249484E+03  0.23475035435E+03  0.17085370845E+03 0.  0.
        -24    2    3    3    0    0 -0.13205798972E+02  0.73157244645E+02  0.16525254053E+03  0.19797132065E+03  0.79736228137E+02 0.  0.
          6    2    1    2  501    0  0.35402407101E+01 -0.39194603887E+02  0.16323969063E+04  0.16419058193E+04  0.17200671359E+03 0.  0.
         24    2    5    5    0    0 -0.23941468149E+02 -0.38488629836E+02  0.45956616635E+03  0.46874352138E+03  0.80404347259E+02 0.  0.
          5    1    5    5  501    0  0.27481708859E+02 -0.70597405046E+00  0.11728307400E+04  0.11731622980E+04  0.47000000000E+01 0. -1.
        -11    1    6    6    0    0 -0.10224006085E+02 -0.15635703415E+02  0.42342464362E+03  0.42383656560E+03  0.00000000000E+00 0.  1.
         12    1    6    6    0    0 -0.13717462064E+02 -0.22852926421E+02  0.36141522733E+02  0.44906955775E+02  0.00000000000E+00 0. -1.
         -5    1    3    3    0  503  0.96655582616E+01 -0.33962640758E+02 -0.91500456829E+01  0.36779033698E+02  0.47000000000E+01 0.  1.
         13    1    4    4    0    0  0.21200326433E+02  0.52869490923E+02  0.49304424802E+02  0.75336333972E+02  0.00000000000E+00 0. -1.
        -14    1    4    4    0    0 -0.34406125405E+02  0.20287753722E+02  0.11594811573E+03  0.12263498668E+03  0.00000000000E+00 0.  1.
</event>
<event>
12    1  0.8526130E-002  0.1843342E+03  0.7818608E-02  0.1164985E+00
         21   -1    0    0  501  502  0.00000000000E+00  0.00000000000E+00  0.24533278462E+02  0.24533278462E+02  0.00000000000E+00 0.  1.
         21   -1    0    0  502  503 -0.00000000000E+00 -0.00000000000E+00 -0.14817271898E+04  0.14817271898E+04  0.00000000000E+00 0.  1.
         -6    2    1    2    0  503  0.32716896522E+02  0.35490770814E+02 -0.94818498549E+03  0.96490182722E+03  0.17219401652E+03 0.  0.
        -24    2    3    3    0    0 -0.43018621364E+02  0.46769044822E+02 -0.56202125849E+03  0.57119180425E+03  0.79713467545E+02 0.  0.
          6    2    1    2  501    0 -0.32716896522E+02 -0.35490770814E+02 -0.50900892581E+03  0.54135864101E+03  0.17790194352E+03 0.  0.
         24    2    5    5    0    0 -0.89427343738E+02 -0.12781342093E+02 -0.28256047550E+03  0.30676796851E+03  0.78138029629E+02 0.  0.
          5    1    5    5  501    0  0.56710447216E+02 -0.22709428721E+02 -0.22644845031E+03  0.23459067250E+03  0.47000000000E+01 0. -1.
        -13    1    6    6    0    0 -0.86991529080E+02 -0.16702515125E+02 -0.28700271317E+03  0.30036154466E+03  0.00000000000E+00 0.  1.
         14    1    6    6    0    0 -0.24358146579E+01  0.39211730326E+01  0.44422376709E+01  0.64064238482E+01  0.00000000000E+00 0. -1.
         -5    1    3    3    0  503  0.75735517886E+02 -0.11278274008E+02 -0.38616372700E+03  0.39371002297E+03  0.47000000000E+01 0.  1.
         11    1    4    4    0    0 -0.49005636214E+02  0.29417567972E+02 -0.53765972437E+03  0.54068930533E+03  0.00000000000E+00 0. -1.
        -12    1    4    4    0    0  0.59870148498E+01  0.17351476850E+02 -0.24361534117E+02  0.30502498917E+02  0.00000000000E+00 0.  1.
</event>
<event>
12    1  0.8526130E-002  0.1779508E+03  0.7818608E-02  0.1169970E+00
         21   -1    0    0  501  502  0.00000000000E+00  0.00000000000E+00  0.25595142742E+02  0.25595142742E+02  0.00000000000E+00 0.  1.
         21   -1    0    0  502  503 -0.00000000000E+00 -0.00000000000E+00 -0.13307908748E+04  0.13307908748E+04  0.00000000000E+00 0.  1.
         -6    2    1    2    0  503  0.42454799305E+02 -0.12008151730E+02 -0.83579203728E+03  0.85438372146E+03  0.17168753078E+03 0.  0.
        -24    2    3    3    0    0 -0.21577105434E+02 -0.39016795939E+02 -0.29298786810E+03  0.30712874637E+03  0.80611997536E+02 0.  0.
          6    2    1    2  501    0 -0.42454799305E+02  0.12008151730E+02 -0.46940369473E+03  0.50200229603E+03  0.17239452110E+03 0.  0.
         24    2    5    5    0    0 -0.33132675657E+02  0.76980709532E+02 -0.27364609591E+03  0.29547999033E+03  0.73501258786E+02 0.  0.
          5    1    5    5  501    0 -0.93221236482E+01 -0.64972557802E+02 -0.19575759882E+03  0.20652230571E+03  0.47000000000E+01 0. -1.
        -13    1    6    6    0    0 -0.46037366574E+02  0.84178086419E+02 -0.24752208967E+03  0.26546671021E+03  0.00000000000E+00 0.  1.
         14    1    6    6    0    0  0.12904690917E+02 -0.71973768867E+01 -0.26124006240E+02  0.30013280123E+02  0.00000000000E+00 0. -1.
         -5    1    3    3    0  503  0.64031904740E+02  0.27008644209E+02 -0.54280416918E+03  0.54725497509E+03  0.47000000000E+01 0.  1.
         13    1    4    4    0    0  0.12367854443E+02 -0.10579568713E+02 -0.69732936739E+01  0.17706437314E+02  0.00000000000E+00 0. -1.
        -14    1    4    4    0    0 -0.33944959878E+02 -0.28437227226E+02 -0.28601457442E+03  0.28942230905E+03  0.00000000000E+00 0.  1.
</event>
<event>
12    1  0.8526130E-002  0.1975052E+03  0.7818608E-02  0.1152225E+00
         21   -1    0    0  501  502  0.00000000000E+00  0.00000000000E+00  0.45665261493E+02  0.45665261493E+02  0.00000000000E+00 0. -1.
         21   -1    0    0  502  503 -0.00000000000E+00 -0.00000000000E+00 -0.84695695756E+03  0.84695695756E+03  0.00000000000E+00 0. -1.
         -6    2    1    2    0  503 -0.95741197918E+02 -0.28360027252E+00 -0.40167805971E+03  0.44686517375E+03  0.17081206764E+03 0.  0.
        -24    2    3    3    0    0 -0.10166483994E+03  0.37758977606E+02 -0.37804617143E+03  0.40144619743E+03  0.80490133711E+02 0.  0.
          6    2    1    2  501    0  0.95741197918E+02  0.28360027252E+00 -0.39961363636E+03  0.44575704531E+03  0.17274787312E+03 0.  0.
         24    2    5    5    0    0  0.56349184666E+02 -0.36622477000E+02 -0.36976365211E+03  0.38389509571E+03  0.78318897187E+02 0.  0.
          5    1    5    5  501    0  0.39392013252E+02  0.36906077273E+02 -0.29849984252E+02  0.61861949594E+02  0.47000000000E+01 0. -1.
        -11    1    6    6    0    0  0.37118561755E+02 -0.52708226243E+02 -0.15789866399E+03  0.17055184793E+03  0.00000000000E+00 0.  1.
         12    1    6    6    0    0  0.19230622911E+02  0.16085749243E+02 -0.21186498811E+03  0.21334324778E+03  0.00000000000E+00 0. -1.
         -5    1    3    3    0  503  0.59236420228E+01 -0.38042577878E+02 -0.23631888272E+02  0.45418976317E+02  0.47000000000E+01 0.  1.
         11    1    4    4    0    0 -0.84233128887E+02  0.54099210871E+02 -0.22130879922E+03  0.24289818696E+03  0.00000000000E+00 0. -1.
        -12    1    4    4    0    0 -0.17431711053E+02 -0.16340233266E+02 -0.15673737222E+03  0.15854801047E+03  0.00000000000E+00 0.  1.
</event>
<event>
12    1  0.8526130E-002  0.2152339E+03  0.7818608E-02  0.1139498E+00
         21   -1    0    0  501  502  0.00000000000E+00  0.00000000000E+00  0.49750708944E+03  0.49750708944E+03  0.00000000000E+00 0. -1.
         21   -1    0    0  502  503 -0.00000000000E+00 -0.00000000000E+00 -0.10323862714E+03  0.10323862714E+03  0.00000000000E+00 0. -1.
         -6    2    1    2    0  503  0.39731975785E+01  0.11209687966E+03  0.88744647343E+02  0.23281158122E+03  0.18369573536E+03 0.  0.
        -24    2    3    3    0    0  0.18902976235E+02  0.15094499717E+03  0.59312911659E+02  0.18162182062E+03  0.79540867210E+02 0.  0.
          6    2    1    2  501    0 -0.39731975785E+01 -0.11209687966E+03  0.30552381495E+03  0.36793413536E+03  0.17160777877E+03 0.  0.
         24    2    5    5    0    0 -0.32089139482E+02 -0.15637811446E+02  0.71545389724E+02  0.11325227204E+03  0.80206485480E+02 0.  0.
          5    1    5    5  501    0  0.28115941904E+02 -0.96459068217E+02  0.23397842523E+03  0.25468186332E+03  0.47000000000E+01 0. -1.
        -11    1    6    6    0    0 -0.21853761147E+02 -0.47476659945E+02  0.31283345510E+02  0.60911967807E+02  0.00000000000E+00 0.  1.
         12    1    6    6    0    0 -0.10235378335E+02  0.31838848499E+02  0.40262044213E+02  0.52340304238E+02  0.00000000000E+00 0. -1.
         -5    1    3    3    0  503 -0.14929778657E+02 -0.38848117506E+02  0.29431735684E+02  0.51189760596E+02  0.47000000000E+01 0.  1.
         11    1    4    4    0    0  0.12166224407E+02  0.76249449888E+02  0.71979929991E+02  0.10556091107E+03  0.00000000000E+00 0. -1.
        -12    1    4    4    0    0  0.67367518276E+01  0.74695547281E+02 -0.12667018332E+02  0.76060909554E+02  0.00000000000E+00 0.  1.
</event>
<event>
12    1  0.8526130E-002  0.2810114E+03  0.7818608E-02  0.1095534E+00
         21   -1    0    0  503  502  0.00000000000E+00  0.00000000000E+00  0.12588729832E+03  0.12588729832E+03  0.00000000000E+00 0.  1.
         21   -1    0    0  501  503 -0.00000000000E+00 -0.00000000000E+00 -0.72092674836E+03  0.72092674836E+03  0.00000000000E+00 0. -1.
          6    2    1    2  501    0  0.10181503238E+03  0.19073318755E+03 -0.13843181901E+03  0.31066302500E+03  0.17493626536E+03 0.  0.
         24    2    3    3    0    0  0.39831968238E+02  0.11509114106E+03 -0.62049698989E+01  0.14613445890E+03  0.80524666919E+02 0.  0.
         -6    2    1    2    0  502 -0.10181503238E+03 -0.19073318755E+03 -0.45660763103E+03  0.53615102169E+03  0.17950470658E+03 0.  0.
        -24    2    5    5    0    0 -0.13065884029E+03 -0.12773254915E+03 -0.39909260221E+03  0.44597833051E+03  0.78958403526E+02 0.  0.
          5    1    3    3  501    0  0.61983064145E+02  0.75642046492E+02 -0.13222684911E+03  0.16452856610E+03  0.47000000000E+01 0. -1.
        -13    1    4    4    0    0  0.63765350861E+02  0.83766786941E+02 -0.13193064659E+02  0.10609878190E+03  0.00000000000E+00 0.  1.
         14    1    4    4    0    0 -0.23933382623E+02  0.31324354118E+02  0.69880947599E+01  0.40035677003E+02  0.00000000000E+00 0. -1.
         -5    1    5    5    0  502  0.28843807906E+02 -0.63000638404E+02 -0.57515028823E+02  0.90172691178E+02  0.47000000000E+01 0.  1.
         11    1    6    6    0    0 -0.79865261523E+02 -0.34121138440E+02 -0.23312633306E+03  0.24877821298E+03  0.00000000000E+00 0. -1.
        -12    1    6    6    0    0 -0.50793578766E+02 -0.93611410708E+02 -0.16596626915E+03  0.19720011753E+03  0.00000000000E+00 0.  1.
</event>
<event>
12    1  0.8526130E-002  0.2325258E+03  0.7818608E-02  0.1124963E+00
         21   -1    0    0  503  502  0.00000000000E+00  0.00000000000E+00  0.93463240130E+02  0.93463240130E+02  0.00000000000E+00 0. -1.
         21   -1    0    0  501  503 -0.00000000000E+00 -0.00000000000E+00 -0.72138640444E+03  0.72138640444E+03  0.00000000000E+00 0.  1.
          6    2    1    2  501    0 -0.14793030304E+03 -0.49848048822E+02 -0.49636697760E+03  0.54813177278E+03  0.17233705737E+03 0.  0.
         24    2    3    3    0    0 -0.65907573712E+02  0.91253679890E+01 -0.11921034073E+03  0.15765154184E+03  0.78840488923E+02 0.  0.
         -6    2    1    2    0  502  0.14793030304E+03  0.49848048822E+02 -0.13155618671E+03  0.26671787180E+03  0.17164844988E+03 0.  0.
        -24    2    5    5    0    0  0.50894038268E+02  0.85946407107E+01  0.38795806344E+01  0.95012259084E+02  0.79675637746E+02 0.  0.
          5    1    3    3  501    0 -0.82022729325E+02 -0.58973416811E+02 -0.37715663687E+03  0.39048023094E+03  0.47000000000E+01 0. -1.
        -11    1    4    4    0    0 -0.38936539969E+01  0.21006840589E+02 -0.81173377741E+02  0.83937864798E+02  0.00000000000E+00 0.  1.
         12    1    4    4    0    0 -0.62013919715E+02 -0.11881472600E+02 -0.38036962991E+02  0.73713677042E+02  0.00000000000E+00 0. -1.
         -5    1    5    5    0  502  0.97036264769E+02  0.41253408111E+02 -0.13543576735E+03  0.17170561271E+03  0.47000000000E+01 0.  1.
         13    1    6    6    0    0  0.36263330758E+02 -0.17922328311E+02 -0.29406917342E+02  0.50010056961E+02  0.00000000000E+00 0. -1.
        -14    1    6    6    0    0  0.14630707510E+02  0.26516969021E+02  0.33286497977E+02  0.45002202122E+02  0.00000000000E+00 0.  1.
</event>
<event>
12    1  0.8526130E-002  0.1832170E+03  0.7818608E-02  0.1164923E+00
         21   -1    0    0  501  502  0.00000000000E+00  0.00000000000E+00  0.64060518787E+03  0.64060518787E+03  0.00000000000E+00 0. -1.
         21   -1    0    0  502  503 -0.00000000000E+00 -0.00000000000E+00 -0.72601976158E+02  0.72601976158E+02  0.00000000000E+00 0. -1.
         -6    2    1    2    0  503 -0.56065887939E+02 -0.25776467922E+02  0.95258295567E+02  0.20650087606E+03  0.17251277880E+03 0.  0.
        -24    2    3    3    0    0 -0.79617258264E+02 -0.55764821499E+02  0.27333140743E+02  0.12846316048E+03  0.79416999995E+02 0.  0.
          6    2    1    2  501    0  0.56065887939E+02  0.25776467922E+02  0.47274491614E+03  0.50670628797E+03  0.17162661925E+03 0.  0.
         24    2    5    5    0    0  0.28224104285E+02  0.78764466380E+02  0.37175317179E+03  0.38921452092E+03  0.79291117580E+02 0.  0.
          5    1    5    5  501    0  0.27841783654E+02 -0.52987998458E+02  0.10099174435E+03  0.11749176705E+03  0.47000000000E+01 0. -1.
        -13    1    6    6    0    0  0.50496983701E+02  0.47912165033E+02  0.16652476021E+03  0.18048827299E+03  0.00000000000E+00 0.  1.
         14    1    6    6    0    0 -0.22272879416E+02  0.30852301347E+02  0.20522841158E+03  0.20872624793E+03  0.00000000000E+00 0. -1.
         -5    1    3    3    0  503  0.23551370325E+02  0.29988353577E+02  0.67925154824E+02  0.78037715576E+02  0.47000000000E+01 0.  1.
         13    1    4    4    0    0 -0.58822682845E+02 -0.77750639881E+01 -0.14971724089E+02  0.61194053300E+02  0.00000000000E+00 0. -1.
        -14    1    4    4    0    0 -0.20794575419E+02 -0.47989757511E+02  0.42304864832E+02  0.67269107184E+02  0.00000000000E+00 0.  1.
</event>
<event>
12    1  0.8526130E-002  0.1909276E+03  0.7818608E-02  0.1158606E+00
         21   -1    0    0  501  502  0.00000000000E+00  0.00000000000E+00  0.91166584749E+02  0.91166584749E+02  0.00000000000E+00 0.  1.
         21   -1    0    0  502  503 -0.00000000000E+00 -0.00000000000E+00 -0.65684003162E+03  0.65684003162E+03  0.00000000000E+00 0.  1.
         -6    2    1    2    0  503  0.39524610422E+01  0.71725111362E+02 -0.52274578261E+03  0.55652178781E+03  0.17689893590E+03 0.  0.
        -24    2    3    3    0    0 -0.78826561077E+01  0.27463519350E+02 -0.99029661653E+02  0.13030986906E+03  0.79733348887E+02 0.  0.
          6    2    1    2  501    0 -0.39524610422E+01 -0.71725111362E+02 -0.42927664262E+02  0.19148482856E+03  0.17223107055E+03 0.  0.
         24    2    5    5    0    0  0.44159559198E+01 -0.10148248441E+03  0.13212252716E+02  0.12722510609E+03  0.75455077299E+02 0.  0.
          5    1    5    5  501    0 -0.83684169620E+01  0.29757373047E+02 -0.56139916978E+02  0.64259722466E+02  0.47000000000E+01 0. -1.
        -13    1    6    6    0    0 -0.19180227215E+02 -0.40533499121E+01  0.18344135602E+02  0.26848055284E+02  0.00000000000E+00 0.  1.
         14    1    6    6    0    0  0.23596183135E+02 -0.97429134498E+02 -0.51318828861E+01  0.10037705081E+03  0.00000000000E+00 0. -1.
         -5    1    3    3    0  503  0.11835117150E+02  0.44261592013E+02 -0.42371612096E+03  0.42621191875E+03  0.47000000000E+01 0.  1.
         11    1    4    4    0    0 -0.35051148963E+02  0.39848821048E+02 -0.75541118532E+02  0.92319944603E+02  0.00000000000E+00 0. -1.
        -12    1    4    4    0    0  0.27168492855E+02 -0.12385301698E+02 -0.23488543121E+02  0.37989924456E+02  0.00000000000E+00 0.  1.
</event>
<event>
12    1  0.8526130E-002  0.2105823E+03  0.7818608E-02  0.1141192E+00
         21   -1    0    0  503  502  0.00000000000E+00  0.00000000000E+00  0.30265004778E+03  0.30265004778E+03  0.00000000000E+00 0.  1.
         21   -1    0    0  501  503 -0.00000000000E+00 -0.00000000000E+00 -0.16521018207E+03  0.16521018207E+03  0.00000000000E+00 0.  1.
          6    2    1    2  501    0 -0.31809335367E+01 -0.11950482431E+03 -0.10534158700E+02  0.21084557806E+03  0.17335907221E+03 0.  0.
         24    2    3    3    0    0 -0.50293033978E+02 -0.12678762298E+03 -0.26088381613E+02  0.16048077870E+03  0.80430007265E+02 0.  0.
         -6    2    1    2    0  502  0.31809335367E+01  0.11950482431E+03  0.14797402441E+03  0.25701465179E+03  0.17282562878E+03 0.  0.
        -24    2    5    5    0    0 -0.35183980690E+02  0.36311043597E+01  0.62400334876E+02  0.10787199539E+03  0.80569648005E+02 0.  0.
          5    1    3    3  501    0  0.47112100441E+02  0.72827986721E+01  0.15554222913E+02  0.50364799363E+02  0.47000000000E+01 0. -1.
        -11    1    4    4    0    0 -0.32198450368E+01 -0.56242437929E+02  0.24826520992E+02  0.61562450981E+02  0.00000000000E+00 0.  1.
         12    1    4    4    0    0 -0.47073188941E+02 -0.70545185054E+02 -0.50914902605E+02  0.98918327719E+02  0.00000000000E+00 0. -1.
         -5    1    5    5    0  502  0.38364914226E+02  0.11587371995E+03  0.85573689531E+02  0.14914265640E+03  0.47000000000E+01 0.  1.
         11    1    6    6    0    0 -0.52516835927E+02  0.26000360748E+02  0.49766168357E+02  0.76881131156E+02  0.00000000000E+00 0. -1.
        -12    1    6    6    0    0  0.17332855238E+02 -0.22369256388E+02  0.12634166519E+02  0.30990864230E+02  0.00000000000E+00 0.  1.
</event>
<event>
12    1  0.8526130E-002  0.1799513E+03  0.7818608E-02  0.1167897E+00
         21   -1    0    0  503  502  0.00000000000E+00  0.00000000000E+00  0.34447301185E+03  0.34447301185E+03  0.00000000000E+00 0. -1.
         21   -1    0    0  501  503 -0.00000000000E+00 -0.00000000000E+00 -0.94052871240E+02  0.94052871240E+02  0.00000000000E+00 0. -1.
          6    2    1    2  501    0  0.49828512473E+02  0.22780523311E+02  0.11643864500E+03  0.21417459971E+03  0.17120446318E+03 0.  0.
         24    2    3    3    0    0  0.83820606123E+00  0.18206176584E+02 -0.81181138782E+01  0.80169185815E+02  0.77646810148E+02 0.  0.
         -6    2    1    2    0  502 -0.49828512473E+02 -0.22780523311E+02  0.13398149561E+03  0.22435128338E+03  0.17140777197E+03 0.  0.
        -24    2    5    5    0    0 -0.56347938480E+02 -0.56482317583E+02  0.14785718674E+03  0.18702918997E+03  0.82175591622E+02 0.  0.
          5    1    3    3  501    0  0.48990306411E+02  0.45743467262E+01  0.12455675888E+03  0.13400541389E+03  0.47000000000E+01 0. -1.
        -11    1    4    4    0    0 -0.30684702846E+02 -0.12799686920E+02 -0.12970344143E+02  0.35687712187E+02  0.00000000000E+00 0.  1.
         12    1    4    4    0    0  0.31522908907E+02  0.31005863504E+02  0.48522302649E+01  0.44481473628E+02  0.00000000000E+00 0. -1.
         -5    1    5    5    0  502  0.65194260070E+01  0.33701794273E+02 -0.13875691130E+02  0.37322093416E+02  0.47000000000E+01 0.  1.
         11    1    6    6    0    0 -0.35276508843E+02 -0.54974044340E+02  0.38861675725E+02  0.76005312100E+02  0.00000000000E+00 0. -1.
        -12    1    6    6    0    0 -0.21071429636E+02 -0.15082732437E+01  0.10899551102E+03  0.11102387787E+03  0.00000000000E+00 0.  1.
</event>
<event>
12    1  0.8526130E-002  0.1760647E+03  0.7818608E-02  0.1171883E+00
         21   -1    0    0  503  502  0.00000000000E+00  0.00000000000E+00  0.10388959497E+03  0.10388959497E+03  0.00000000000E+00 0.  1.
         21   -1    0    0  501  503 -0.00000000000E+00 -0.00000000000E+00 -0.30633500595E+03  0.30633500595E+03  0.00000000000E+00 0.  1.
          6    2    1    2  501    0 -0.21767763266E+02 -0.21742100648E+02 -0.13695035788E+03  0.22237258107E+03  0.17247495422E+03 0.  0.
         24    2    3    3    0    0  0.23414383769E+01 -0.13685988850E+02 -0.16504307164E+03  0.18419608165E+03  0.80598960131E+02 0.  0.
         -6    2    1    2    0  502  0.21767763266E+02  0.21742100648E+02 -0.65495053097E+02  0.18785201984E+03  0.17335577556E+03 0.  0.
        -24    2    5    5    0    0 -0.40266051430E+02 -0.18302736047E+02 -0.64972258824E+02  0.11386454506E+03  0.82385648991E+02 0.  0.
          5    1    3    3  501    0 -0.24109201643E+02 -0.80561117975E+01  0.28092713768E+02  0.38176499420E+02  0.47000000000E+01 0. -1.
        -11    1    4    4    0    0 -0.34389877377E+02  0.62673671337E+01 -0.44354986983E+02  0.56473962382E+02  0.00000000000E+00 0.  1.
         12    1    4    4    0    0  0.36731315754E+02 -0.19953355984E+02 -0.12068808466E+03  0.12772211927E+03  0.00000000000E+00 0. -1.
         -5    1    5    5    0  502  0.62033814695E+02  0.40044836695E+02 -0.52279427260E+00  0.73987474788E+02  0.47000000000E+01 0.  1.
         13    1    6    6    0    0 -0.39486284499E+01 -0.42706027528E+02 -0.53617918306E+02  0.68660597269E+02  0.00000000000E+00 0. -1.
        -14    1    6    6    0    0 -0.36317422980E+02  0.24403291480E+02 -0.11354340518E+02  0.45203947788E+02  0.00000000000E+00 0.  1.
</event>
<event>
12    1  0.8526130E-002  0.1813035E+03  0.7818608E-02  0.1168816E+00
         21   -1    0    0  503  502  0.00000000000E+00  0.00000000000E+00  0.18739474733E+04  0.18739474733E+04  0.00000000000E+00 0.  1.
         21   -1    0    0  501  503 -0.00000000000E+00 -0.00000000000E+00 -0.28196307537E+02  0.28196307537E+02  0.00000000000E+00 0.  1.
          6    2    1    2  501    0  0.12573830902E+01  0.10442360612E+02  0.30049653061E+03  0.34628940312E+03  0.17177765250E+03 0.  0.
         24    2    3    3    0    0  0.64083727348E+02 -0.16388325285E+02  0.16600536407E+03  0.19536889717E+03  0.78967865404E+02 0.  0.
         -6    2    1    2    0  502 -0.12573830902E+01 -0.10442360612E+02  0.15452546351E+04  0.15558543777E+04  0.18099815823E+03 0.  0.
        -24    2    5    5    0    0 -0.64689624377E+02 -0.21715882719E+02  0.65958674941E+03  0.66783386254E+03  0.79316208259E+02 0.  0.
          5    1    3    3  501    0 -0.62826344258E+02  0.26830685897E+02  0.13449116654E+03  0.15092050595E+03  0.47000000000E+01 0. -1.
        -13    1    4    4    0    0  0.12292644759E+02  0.28814401823E+02  0.32123026689E+02  0.44869451872E+02  0.00000000000E+00 0.  1.
         14    1    4    4    0    0  0.51791082588E+02 -0.45202727108E+02  0.13388233738E+03  0.15049944530E+03  0.00000000000E+00 0. -1.
         -5    1    5    5    0  502  0.63432241287E+02  0.11273522107E+02  0.88566788572E+03  0.88802051516E+03  0.47000000000E+01 0.  1.
         13    1    6    6    0    0 -0.35632152941E+02 -0.51661568379E+02  0.37874913569E+03  0.38391337012E+03  0.00000000000E+00 0. -1.
        -14    1    6    6    0    0 -0.29057471437E+02  0.29945685660E+02  0.28083761372E+03  0.28392049242E+03  0.00000000000E+00 0.  1.
</event>
<event>
12    1  0.8526130E-002  0.2007265E+03  0.7818608E-02  0.1149630E+00
         21   -1    0    0  503  502  0.00000000000E+00  0.00000000000E+00  0.27189958411E+03  0.27189958411E+03  0.00000000000E+00 0.  1.
         21   -1    0    0  501  503 -0.00000000000E+00 -0.00000000000E+00 -0.17937435851E+03  0.17937435851E+03  0.00000000000E+00 0.  1.
          6    2    1    2  501    0 -0.63340029100E+02  0.77110989173E+02 -0.50653546933E+02  0.20471506625E+03  0.17141882217E+03 0.  0.
         24    2    3    3    0    0 -0.75845176428E+02  0.39289845482E+02  0.22993973801E+02  0.12085288806E+03  0.82343882444E+02 0.  0.
         -6    2    1    2    0  502  0.63340029100E+02 -0.77110989173E+02  0.14317877253E+03  0.24655887637E+03  0.17416387305E+03 0.  0.
        -24    2    5    5    0    0  0.37591545509E+02 -0.12005752156E+03  0.11825734478E+03  0.19042905709E+03  0.80321189062E+02 0.  0.
          5    1    3    3  501    0  0.12505147329E+02  0.37821143691E+02 -0.73647520734E+02  0.83862178186E+02  0.47000000000E+01 0. -1.
        -11    1    4    4    0    0 -0.53246143177E+02  0.32799111610E+02  0.53526192316E+02  0.82316382024E+02  0.00000000000E+00 0.  1.
         12    1    4    4    0    0 -0.22599033251E+02  0.64907338721E+01 -0.30532218515E+02  0.38536506037E+02  0.00000000000E+00 0. -1.
         -5    1    5    5    0  502  0.25748483590E+02  0.42946532389E+02  0.24921427752E+02  0.56129819282E+02  0.47000000000E+01 0.  1.
         13    1    6    6    0    0  0.11785786779E+01  0.11381284076E+02  0.29171244188E+01  0.11808145061E+02  0.00000000000E+00 0. -1.
        -14    1    6    6    0    0  0.36412966832E+02 -0.13143880564E+03  0.11534022036E+03  0.17862091203E+03  0.00000000000E+00 0.  1.
</event>
<event>
12    1  0.8526130E-002  0.2611576E+03  0.7818608E-02  0.1106521E+00
         21   -1    0    0  501  502  0.00000000000E+00  0.00000000000E+00  0.89658651540E+03  0.89658651540E+03  0.00000000000E+00 0.  1.
         21   -1    0    0  502  503 -0.00000000000E+00 -0.00000000000E+00 -0.99574928224E+02  0.99574928224E+02  0.00000000000E+00 0. -1.
         -6    2    1    2    0  503 -0.12225198950E+03  0.15374355038E+03  0.15607879252E+03  0.30424312081E+03  0.17210653347E+03 0.  0.
        -24    2    3    3    0    0 -0.70982863795E+02  0.59245734104E+02  0.80728852804E+01  0.12125077367E+03  0.78025346378E+02 0.  0.
          6    2    1    2  501    0  0.12225198950E+03 -0.15374355038E+03  0.64093279465E+03  0.69191832281E+03  0.17138695974E+03 0.  0.
         24    2    5    5    0    0  0.83776031047E+02 -0.28037422248E+02  0.40219091941E+03  0.41933401839E+03  0.79239907213E+02 0.  0.
          5    1    5    5  501    0  0.38475958455E+02 -0.12570612813E+03  0.23874187524E+03  0.27258430443E+03  0.47000000000E+01 0. -1.
        -11    1    6    6    0    0  0.14354286880E+02 -0.43913698921E+02  0.18894190106E+03  0.19450835581E+03  0.00000000000E+00 0.  1.
         12    1    6    6    0    0  0.69421744167E+02  0.15876276673E+02  0.21324901835E+03  0.22482566258E+03  0.00000000000E+00 0. -1.
         -5    1    3    3    0  503 -0.51269125708E+02  0.94497816272E+02  0.14800590724E+03  0.18299234713E+03  0.47000000000E+01 0.  1.
         11    1    4    4    0    0  0.11898005522E+02  0.30741827603E+02 -0.20222581937E+01  0.33025929630E+02  0.00000000000E+00 0. -1.
        -12    1    4    4    0    0 -0.82880869317E+02  0.28503906501E+02  0.10095143474E+02  0.88224844042E+02  0.00000000000E+00 0.  1.
</event>
<event>
12    1  0.8526130E-002  0.2204258E+03  0.7818608E-02  0.1134366E+00
         21   -1    0    0  501  502  0.00000000000E+00  0.00000000000E+00  0.61064419247E+02  0.61064419247E+02  0.00000000000E+00 0. -1.
         21   -1    0    0  502  503 -0.00000000000E+00 -0.00000000000E+00 -0.85221735319E+03  0.85221735319E+03  0.00000000000E+00 0. -1.
         -6    2    1    2    0  503  0.71578990809E+02 -0.10768438017E+03 -0.25946155338E+03  0.33770967197E+03  0.17322830946E+03 0.  0.
        -24    2    3    3    0    0  0.15901011644E+02 -0.21870699373E+02 -0.36126079717E+02  0.92017081576E+02  0.80192767776E+02 0.  0.
          6    2    1    2  501    0 -0.71578990809E+02  0.10768438017E+03 -0.53169138056E+03  0.57557210047E+03  0.17851622060E+03 0.  0.
         24    2    5    5    0    0 -0.33567397175E+01  0.10902920634E+03 -0.44447447280E+03  0.46473454772E+03  0.80758945822E+02 0.  0.
          5    1    5    5  501    0 -0.68222251091E+02 -0.13448261729E+01 -0.87216907757E+02  0.11083755275E+03  0.47000000000E+01 0. -1.
        -11    1    6    6    0    0 -0.21019200352E+01 -0.34942326200E+01  0.18245725177E+01  0.44673028003E+01  0.00000000000E+00 0.  1.
         12    1    6    6    0    0 -0.12548196822E+01  0.11252343896E+03 -0.44629904532E+03  0.46026724492E+03  0.00000000000E+00 0. -1.
         -5    1    3    3    0  503  0.55677979165E+02 -0.85813680798E+02 -0.22333547367E+03  0.24569259039E+03  0.47000000000E+01 0.  1.
         11    1    4    4    0    0 -0.18419187687E+02 -0.39488640066E+02 -0.80659231317E+01  0.44313409768E+02  0.00000000000E+00 0. -1.
        -12    1    4    4    0    0  0.34320199331E+02  0.17617940692E+02 -0.28060156585E+02  0.47703671808E+02  0.00000000000E+00 0.  1.
</event>
<event>
12    1  0.8526130E-002  0.2864772E+03  0.7818608E-02  0.1092465E+00
         21   -1    0    0  501  502  0.00000000000E+00  0.00000000000E+00  0.30515708413E+03  0.30515708413E+03  0.00000000000E+00 0.  1.
         21   -1    0    0  502  503 -0.00000000000E+00 -0.00000000000E+00 -0.30760414181E+03  0.30760414181E+03  0.00000000000E+00 0. -1.
         -6    2    1    2    0  503 -0.63155860636E+02  0.21997109595E+03 -0.11239960095E+03  0.30590826051E+03  0.16902735804E+03 0.  0.
        -24    2    3    3    0    0 -0.57632935274E+02  0.24195098639E+03 -0.10590868306E+03  0.28186995143E+03  0.79825968988E+02 0.  0.
          6    2    1    2  501    0  0.63155860636E+02 -0.21997109595E+03  0.10995254327E+03  0.30685296543E+03  0.17231725054E+03 0.  0.
         24    2    5    5    0    0  0.23724003582E+01 -0.16578535857E+03  0.17928748523E+02  0.18388470945E+03  0.77470852222E+02 0.  0.
          5    1    5    5  501    0  0.60783460278E+02 -0.54185737380E+02  0.92023794752E+02  0.12296825598E+03  0.47000000000E+01 0. -1.
        -11    1    6    6    0    0  0.15892470416E+02 -0.22149263532E+02  0.28233026279E+02  0.39246200629E+02  0.00000000000E+00 0.  1.
         12    1    6    6    0    0 -0.13520070057E+02 -0.14363609504E+03 -0.10304277756E+02  0.14463850882E+03  0.00000000000E+00 0. -1.
         -5    1    3    3    0  503 -0.55229253618E+01 -0.21979890442E+02 -0.64909178884E+01  0.24038309080E+02  0.47000000000E+01 0.  1.
         13    1    4    4    0    0 -0.63642005106E+02  0.13605745465E+03 -0.88637324548E+02  0.17440903383E+03  0.00000000000E+00 0. -1.
        -14    1    4    4    0    0  0.60090698322E+01  0.10589353174E+03 -0.17271358516E+02  0.10746091759E+03  0.00000000000E+00 0.  1.
</event>
<event>
12    1  0.8526130E-002  0.2894310E+03  0.7818608E-02  0.1091062E+00
         21   -1    0    0  501  502  0.00000000000E+00  0.00000000000E+00  0.55175310712E+03  0.55175310712E+03  0.00000000000E+00 0. -1.
         21   -1    0    0  502  503 -0.00000000000E+00 -0.00000000000E+00 -0.15019258270E+03  0.15019258270E+03  0.00000000000E+00 0.  1.
         -6    2    1    2    0  503 -0.89428534737E+02 -0.21262288923E+03  0.20550962281E+03  0.35497113815E+03  0.17482662269E+03 0.  0.
        -24    2    3    3    0    0 -0.18713823994E+02 -0.35908737274E+02  0.27358113389E+02  0.94225069862E+02  0.80562105243E+02 0.  0.
          6    2    1    2  501    0  0.89428534737E+02  0.21262288923E+03  0.19605090162E+03  0.34697455168E+03  0.16955656177E+03 0.  0.
         24    2    5    5    0    0  0.12766780118E+03  0.15754131128E+03  0.13584669424E+03  0.25673676406E+03  0.79631083549E+02 0.  0.
          5    1    5    5  501    0 -0.38239266447E+02  0.55081577953E+02  0.60204207373E+02  0.90237787614E+02  0.47000000000E+01 0. -1.
        -11    1    6    6    0    0  0.10592256884E+03  0.86947271123E+02  0.56214824683E+02  0.14811996847E+03  0.00000000000E+00 0.  1.
         12    1    6    6    0    0  0.21745232340E+02  0.70594040155E+02  0.79631869560E+02  0.10861679559E+03  0.00000000000E+00 0. -1.
         -5    1    3    3    0  503 -0.70714710743E+02 -0.17671415196E+03  0.17815150942E+03  0.26074606828E+03  0.47000000000E+01 0.  1.
         11    1    4    4    0    0  0.29652074716E+02 -0.83652080742E+01  0.22900114464E+02  0.38387986188E+02  0.00000000000E+00 0. -1.
        -12    1    4    4    0    0 -0.48365898710E+02 -0.27543529200E+02  0.44579989241E+01  0.55837083674E+02  0.00000000000E+00 0.  1.
</event>
<event>
12    1  0.8526130E-002  0.2032288E+03  0.7818608E-02  0.1147237E+00
         21   -1    0    0  503  502  0.00000000000E+00  0.00000000000E+00  0.50677153031E+03  0.50677153031E+03  0.00000000000E+00 0.  1.
         21   -1    0    0  501  503 -0.00000000000E+00 -0.00000000000E+00 -0.81126423594E+02  0.81126423594E+02  0.00000000000E+00 0.  1.
          6    2    1    2  501    0  0.97345309734E+02  0.45395722369E+02  0.21199404846E+03  0.29367232354E+03  0.17252558099E+03 0.  0.
         24    2    3    3    0    0  0.11572380842E+03  0.79032842475E+02  0.16669165556E+03  0.23414399529E+03  0.86018093848E+02 0.  0.
         -6    2    1    2    0  502 -0.97345309734E+02 -0.45395722369E+02  0.21365105826E+03  0.29422563036E+03  0.17142072783E+03 0.  0.
        -24    2    5    5    0    0 -0.25619148080E+02  0.31721010721E+02  0.58437201122E+02  0.10659550422E+03  0.79278823000E+02 0.  0.
          5    1    3    3  501    0 -0.18378498685E+02 -0.33637120105E+02  0.45302392892E+02  0.59528328253E+02  0.47000000000E+01 0. -1.
        -11    1    4    4    0    0  0.12801672416E+03  0.70642473902E+02  0.16267602729E+03  0.21872844040E+03  0.00000000000E+00 0.  1.
         12    1    4    4    0    0 -0.12292915738E+02  0.83903685724E+01  0.40156282707E+01  0.15415554889E+02  0.00000000000E+00 0. -1.
         -5    1    5    5    0  502 -0.71726161654E+02 -0.77116733090E+02  0.15521385714E+03  0.18763012614E+03  0.47000000000E+01 0.  1.
         13    1    6    6    0    0  0.14253683477E+02 -0.97597801167E+01 -0.77174265162E+01  0.18920345468E+02  0.00000000000E+00 0. -1.
        -14    1    6    6    0    0 -0.39872831557E+02  0.41480790837E+02  0.66154627638E+02  0.87675158756E+02  0.00000000000E+00 0.  1.
</event>
<event>
12    1  0.8526130E-002  0.2345003E+03  0.7818608E-02  0.1123552E+00
         21   -1    0    0  501  502  0.00000000000E+00  0.00000000000E+00  0.94182739139E+02  0.94182739139E+02  0.00000000000E+00 0. -1.
         21   -1    0    0  502  503 -0.00000000000E+00 -0.00000000000E+00 -0.10183215083E+04  0.10183215083E+04  0.00000000000E+00 0. -1.
         -6    2    1    2    0  503  0.12004126604E+03  0.10486572797E+03 -0.82550985228E+03  0.85810683091E+03  0.17168019861E+03 0.  0.
        -24    2    3    3    0    0  0.22736210227E+02 -0.13184015367E+02 -0.22905620172E+03  0.24232841050E+03  0.74602690764E+02 0.  0.
          6    2    1    2  501    0 -0.12004126604E+03 -0.10486572797E+03 -0.98628916838E+02  0.25439741648E+03  0.17199899948E+03 0.  0.
         24    2    5    5    0    0 -0.12414792673E+03 -0.40777183871E+02 -0.11089700201E+03  0.18884741983E+03  0.79307732826E+02 0.  0.
          5    1    5    5  501    0  0.41066606879E+01 -0.64088544103E+02  0.12268085175E+02  0.65549996652E+02  0.47000000000E+01 0. -1.
        -13    1    6    6    0    0 -0.43754983415E+01  0.18562267182E+02 -0.16385414071E+02  0.25143280274E+02  0.00000000000E+00 0.  1.
         14    1    6    6    0    0 -0.11977242839E+03 -0.59339451052E+02 -0.94511587943E+02  0.16370413956E+03  0.00000000000E+00 0. -1.
         -5    1    3    3    0  503  0.97305055813E+02  0.11804974334E+03 -0.59645365055E+03  0.61577842041E+03  0.47000000000E+01 0.  1.
         11    1    4    4    0    0  0.47684351499E+02 -0.67331849060E+01 -0.10349898790E+03  0.11415416617E+03  0.00000000000E+00 0. -1.
        -12    1    4    4    0    0 -0.24948141272E+02 -0.64508304608E+01 -0.12555721382E+03  0.12817424433E+03  0.00000000000E+00 0.  1.
</event>
<event>
12    1  0.8526130E-002  0.2274606E+03  0.7818608E-02  0.1128645E+00
         21   -1    0    0  501  502  0.00000000000E+00  0.00000000000E+00  0.85408420480E+02  0.85408420480E+02  0.00000000000E+00 0.  1.
         21   -1    0    0  502  503 -0.00000000000E+00 -0.00000000000E+00 -0.61791942842E+03  0.61791942842E+03  0.00000000000E+00 0.  1.
         -6    2    1    2    0  503 -0.14346424492E+03  0.40645694600E+02 -0.21178289324E+03  0.31078981348E+03  0.17176801864E+03 0.  0.
        -24    2    3    3    0    0 -0.11064564436E+03 -0.39186985442E+02 -0.13701078850E+03  0.19649512859E+03  0.77847934780E+02 0.  0.
          6    2    1    2  501    0  0.14346424492E+03 -0.40645694600E+02 -0.32072811469E+03  0.39253803542E+03  0.17025135429E+03 0.  0.
         24    2    5    5    0    0  0.93908926205E+02  0.15572526123E+02 -0.10002173784E+03  0.15940800145E+03  0.79656593550E+02 0.  0.
          5    1    5    5  501    0  0.49555318717E+02 -0.56218220723E+02 -0.22070637685E+03  0.23313003397E+03  0.47000000000E+01 0. -1.
        -11    1    6    6    0    0  0.92324196341E+02 -0.77214765661E+01 -0.99640044292E+02  0.13605703531E+03  0.00000000000E+00 0.  1.
         12    1    6    6    0    0  0.15847298639E+01  0.23294002689E+02 -0.38169355039E+00  0.23350966147E+02  0.00000000000E+00 0. -1.
         -5    1    3    3    0  503 -0.32818600560E+02  0.79832680042E+02 -0.74772104745E+02  0.11429468489E+03  0.47000000000E+01 0.  1.
         13    1    4    4    0    0 -0.10189036849E+02 -0.11721765008E+02  0.83844712560E+01  0.17649804675E+02  0.00000000000E+00 0. -1.
        -14    1    4    4    0    0 -0.10045660751E+03 -0.27465220434E+02 -0.14539525975E+03  0.17884532391E+03  0.00000000000E+00 0.  1.
</event>
<event>
12    1  0.8526130E-002  0.2289955E+03  0.7818608E-02  0.1127386E+00
         21   -1    0    0  503  502  0.00000000000E+00  0.00000000000E+00  0.99097962618E+02  0.99097962618E+02  0.00000000000E+00 0. -1.
         21   -1    0    0  501  503 -0.00000000000E+00 -0.00000000000E+00 -0.95082370039E+03  0.95082370039E+03  0.00000000000E+00 0.  1.
          6    2    1    2  501    0 -0.14926102510E+03 -0.15292639949E+02 -0.77576176084E+03  0.80885428362E+03  0.17299197698E+03 0.  0.
         24    2    3    3    0    0 -0.16568323094E+03 -0.38796800136E+02 -0.73971110578E+03  0.76255229531E+03  0.73193977629E+02 0.  0.
         -6    2    1    2    0  502  0.14926102510E+03  0.15292639949E+02 -0.75963976935E+02  0.24106737939E+03  0.17271432240E+03 0.  0.
        -24    2    5    5    0    0  0.17344310049E+03  0.20301897900E+02 -0.90596883565E+02  0.21197996988E+03  0.78949579825E+02 0.  0.
          5    1    3    3  501    0  0.16422205840E+02  0.23504160187E+02 -0.36050655056E+02  0.46301988302E+02  0.47000000000E+01 0. -1.
        -11    1    4    4    0    0 -0.15715592083E+03 -0.37592408058E+02 -0.56564466320E+03  0.58827294482E+03  0.00000000000E+00 0.  1.
         12    1    4    4    0    0 -0.85273101075E+01 -0.12043920781E+01 -0.17406644258E+03  0.17427935050E+03  0.00000000000E+00 0. -1.
         -5    1    5    5    0  502 -0.24182075389E+02 -0.50092579507E+01  0.14632906630E+02  0.29087409506E+02  0.47000000000E+01 0.  1.
         13    1    6    6    0    0  0.56375913186E+02  0.35204380067E+02 -0.59121807991E+01  0.66727399509E+02  0.00000000000E+00 0. -1.
        -14    1    6    6    0    0  0.11706718730E+03 -0.14902482167E+02 -0.84684702766E+02  0.14525257037E+03  0.00000000000E+00 0.  1.
</event>
<event>
12    1  0.8526130E-002  0.2984890E+03  0.7818608E-02  0.1086183E+00
         21   -1    0    0  501  502  0.00000000000E+00  0.00000000000E+00  0.93276024682E+03  0.93276024682E+03  0.00000000000E+00 0. -1.
         21   -1    0    0  502  503 -0.00000000000E+00 -0.00000000000E+00 -0.95566145579E+02  0.95566145579E+02  0.00000000000E+00 0.  1.
         -6    2    1    2    0  503 -0.18019906010E+03 -0.16212546437E+03  0.38183595656E+03  0.48465901126E+03  0.17418177866E+03 0.  0.
        -24    2    3    3    0    0 -0.15757672540E+03 -0.89395095859E+02  0.35497820018E+03  0.40375842036E+03  0.64725820602E+02 0.  0.
          6    2    1    2  501    0  0.18019906010E+03  0.16212546437E+03  0.45535814468E+03  0.54366738114E+03  0.17165900479E+03 0.  0.
         24    2    5    5    0    0  0.76890825633E+02  0.15418293975E+03  0.25441526010E+03  0.31753510155E+03  0.80105169434E+02 0.  0.
          5    1    5    5  501    0  0.10330823447E+03  0.79425246226E+01  0.20094288458E+03  0.22613227958E+03  0.47000000000E+01 0. -1.
        -13    1    6    6    0    0  0.61832810537E+02  0.68600493248E+02  0.18328470981E+03  0.20523793261E+03  0.00000000000E+00 0.  1.
         14    1    6    6    0    0  0.15058015095E+02  0.85582446498E+02  0.71130550293E+02  0.11229716894E+03  0.00000000000E+00 0. -1.
         -5    1    3    3    0  503 -0.22622334697E+02 -0.72730368510E+02  0.26857756373E+02  0.80900590901E+02  0.47000000000E+01 0.  1.
         11    1    4    4    0    0  0.16635870129E+01  0.30019179115E+01  0.30471885465E+02  0.30664553424E+02  0.00000000000E+00 0. -1.
        -12    1    4    4    0    0 -0.15924031242E+03 -0.92397013770E+02  0.32450631472E+03  0.37309386693E+03  0.00000000000E+00 0.  1.
</event>
<event>
12    1  0.8526130E-002  0.1956432E+03  0.7818608E-02  0.1153751E+00
         21   -1    0    0  503  502  0.00000000000E+00  0.00000000000E+00  0.11094256427E+03  0.11094256427E+03  0.00000000000E+00 0.  1.
         21   -1    0    0  501  503 -0.00000000000E+00 -0.00000000000E+00 -0.35047144813E+03  0.35047144813E+03  0.00000000000E+00 0.  1.
          6    2    1    2  501    0  0.90838487550E+02 -0.55673633403E+01 -0.85846284187E+02  0.21364884046E+03  0.17318665123E+03 0.  0.
         24    2    3    3    0    0  0.20712877418E+02 -0.15340151364E+01  0.21771443612E+02  0.85050495092E+02  0.79550075205E+02 0.  0.
         -6    2    1    2    0  502 -0.90838487550E+02  0.55673633403E+01 -0.15368259967E+03  0.24776517194E+03  0.17171666380E+03 0.  0.
        -24    2    5    5    0    0 -0.18956866465E+02 -0.56877510841E+02 -0.80928768064E+02  0.12784211421E+03  0.78738342876E+02 0.  0.
          5    1    3    3  501    0  0.70125610131E+02 -0.40333482039E+01 -0.10761772780E+03  0.12859834536E+03  0.47000000000E+01 0. -1.
        -13    1    4    4    0    0  0.49709864602E+02  0.10511758591E+02  0.14036977720E+02  0.52712469596E+02  0.00000000000E+00 0.  1.
         14    1    4    4    0    0 -0.28996987183E+02 -0.12045773727E+02  0.77344658919E+01  0.32338025497E+02  0.00000000000E+00 0. -1.
         -5    1    5    5    0  502 -0.71881621085E+02  0.62444874182E+02 -0.72753831609E+02  0.11992305773E+03  0.47000000000E+01 0.  1.
         11    1    6    6    0    0 -0.26364571535E+02  0.12492826804E+02 -0.22537587258E+02  0.36866030342E+02  0.00000000000E+00 0. -1.
        -12    1    6    6    0    0  0.74077050698E+01 -0.69370337645E+02 -0.58391180806E+02  0.90976083864E+02  0.00000000000E+00 0.  1.
</event>
<event>
12    1  0.8526130E-002  0.2572250E+03  0.7818608E-02  0.1109008E+00
         21   -1    0    0  503  502  0.00000000000E+00  0.00000000000E+00  0.17126401120E+03  0.17126401120E+03  0.00000000000E+00 0. -1.
         21   -1    0    0  501  503 -0.00000000000E+00 -0.00000000000E+00 -0.92624718314E+03  0.92624718314E+03  0.00000000000E+00 0.  1.
          6    2    1    2  501    0 -0.80806031059E+02 -0.17366509662E+03 -0.79679268271E+03  0.83691044478E+03  0.16985680121E+03 0.  0.
         24    2    3    3    0    0 -0.85886389444E+02 -0.52191829663E+02 -0.49734189902E+03  0.51368540478E+03  0.80145315461E+02 0.  0.
         -6    2    1    2    0  502  0.80806031059E+02  0.17366509662E+03  0.41809510769E+02  0.26060074956E+03  0.17168440535E+03 0.  0.
        -24    2    5    5    0    0  0.78005445520E+02  0.97842944675E+02  0.87229111218E+02  0.17204640404E+03  0.79579871487E+02 0.  0.
          5    1    3    3  501    0  0.50803583844E+01 -0.12147326696E+03 -0.29945078369E+03  0.32322504000E+03  0.47000000000E+01 0. -1.
        -13    1    4    4    0    0 -0.61029691789E+02 -0.51668885626E+01 -0.37929755985E+03  0.38421082614E+03  0.00000000000E+00 0.  1.
         14    1    4    4    0    0 -0.24856697655E+02 -0.47024941101E+02 -0.11804433917E+03  0.12947457864E+03  0.00000000000E+00 0. -1.
         -5    1    5    5    0  502  0.28005855394E+01  0.75822151948E+02 -0.45419600450E+02  0.88554345520E+02  0.47000000000E+01 0.  1.
         13    1    6    6    0    0  0.42951884819E+02  0.15366463347E+02 -0.18949539782E+01  0.45657238811E+02  0.00000000000E+00 0. -1.
        -14    1    6    6    0    0  0.35053560701E+02  0.82476481329E+02  0.89124065197E+02  0.12638916523E+03  0.00000000000E+00 0.  1.
</event>
<event>
12    1  0.8526130E-002  0.2013321E+03  0.7818608E-02  0.1148666E+00
         21   -1    0    0  501  502  0.00000000000E+00  0.00000000000E+00  0.20932024979E+04  0.20932024979E+04  0.00000000000E+00 0.  1.
         21   -1    0    0  502  503 -0.00000000000E+00 -0.00000000000E+00 -0.60269045273E+02  0.60269045273E+02  0.00000000000E+00 0.  1.
         -6    2    1    2    0  503  0.28597237587E+02  0.10267131991E+03  0.12937068916E+03  0.23931441435E+03  0.17080811390E+03 0.  0.
        -24    2    3    3    0    0  0.55907713089E+02  0.24165164509E+02  0.11906334281E+03  0.15542514271E+03  0.79191336812E+02 0.  0.
          6    2    1    2  501    0 -0.28597237587E+02 -0.10267131991E+03  0.19035627634E+04  0.19141571288E+04  0.17054945744E+03 0.  0.
         24    2    5    5    0    0 -0.57219160110E+02 -0.92560835406E+02  0.18229038077E+04  0.18278472598E+04  0.78776725454E+02 0.  0.
          5    1    5    5  501    0  0.28621922524E+02 -0.10110484503E+02  0.80658955730E+02  0.86309868991E+02  0.47000000000E+01 0. -1.
        -13    1    6    6    0    0 -0.68033739132E+02 -0.36425366234E+02  0.10430878070E+04  0.10459386072E+04  0.00000000000E+00 0.  1.
         14    1    6    6    0    0  0.10814579022E+02 -0.56135469172E+02  0.77981600073E+03  0.78190865260E+03  0.00000000000E+00 0. -1.
         -5    1    3    3    0  503 -0.27310475503E+02  0.78506155400E+02  0.10307346348E+02  0.83889271642E+02  0.47000000000E+01 0.  1.
         13    1    4    4    0    0  0.32032045928E+02  0.13700767581E+01  0.19865426624E+00  0.32061948477E+02  0.00000000000E+00 0. -1.
        -14    1    4    4    0    0  0.23875667162E+02  0.22795087751E+02  0.11886468855E+03  0.12336319423E+03  0.00000000000E+00 0.  1.
</event>
<event>
12    1  0.8526130E-002  0.1797398E+03  0.7818608E-02  0.1168338E+00
         21   -1    0    0  501  502  0.00000000000E+00  0.00000000000E+00  0.37128723108E+02  0.37128723108E+02  0.00000000000E+00 0.  1.
         21   -1    0    0  502  503 -0.00000000000E+00 -0.00000000000E+00 -0.12660319265E+04  0.12660319265E+04  0.00000000000E+00 0.  1.
         -6    2    1    2    0  503 -0.23759666765E+02  0.45943047470E+02 -0.98276677713E+03  0.99906802573E+03  0.17213685382E+03 0.  0.
        -24    2    3    3    0    0  0.19321789623E+02 -0.81783606466E+01 -0.26316233625E+03  0.27613111283E+03  0.80955290855E+02 0.  0.
          6    2    1    2  501    0  0.23759666765E+02 -0.45943047470E+02 -0.24613642630E+03  0.30409262391E+03  0.17092073657E+03 0.  0.
         24    2    5    5    0    0  0.77052496624E+02 -0.46806275484E+02 -0.14977453319E+03  0.19387204815E+03  0.83821510375E+02 0.  0.
          5    1    5    5  501    0 -0.53292829858E+02  0.86322801388E+00 -0.96361893108E+02  0.11022057576E+03  0.47000000000E+01 0. -1.
        -13    1    6    6    0    0  0.35681041478E+02 -0.63217848026E+02 -0.62029929260E+02  0.95484790171E+02  0.00000000000E+00 0.  1.
         14    1    6    6    0    0  0.41371455146E+02  0.16411572541E+02 -0.87744603929E+02  0.98387257980E+02  0.00000000000E+00 0. -1.
         -5    1    3    3    0  503 -0.43081456389E+02  0.54121408117E+02 -0.71960444088E+03  0.72293691290E+03  0.47000000000E+01 0.  1.
         11    1    4    4    0    0 -0.71793223075E+01  0.60697781622E+01  0.17097528964E+01  0.95555288027E+01  0.00000000000E+00 0. -1.
        -12    1    4    4    0    0  0.26501111931E+02 -0.14248138809E+02 -0.26487208914E+03  0.26657558403E+03  0.00000000000E+00 0.  1.
</event>
<event>
12    1  0.8526130E-002  0.2259419E+03  0.7818608E-02  0.1129630E+00
         21   -1    0    0  501  502  0.00000000000E+00  0.00000000000E+00  0.46704019762E+03  0.46704019762E+03  0.00000000000E+00 0. -1.
         21   -1    0    0  502  503 -0.00000000000E+00 -0.00000000000E+00 -0.10915205014E+03  0.10915205014E+03  0.00000000000E+00 0. -1.
         -6    2    1    2    0  503  0.67666411108E+02 -0.12882205618E+03  0.16926176068E+03  0.28186308850E+03  0.17211447260E+03 0.  0.
        -24    2    3    3    0    0  0.74999793208E+02 -0.14749368803E+03  0.98873093555E+02  0.20852099425E+03  0.79534642924E+02 0.  0.
          6    2    1    2  501    0 -0.67666411108E+02  0.12882205618E+03  0.18862638679E+03  0.29432915926E+03  0.17284639090E+03 0.  0.
         24    2    5    5    0    0  0.22960605929E+01  0.18162496135E+02  0.12330744633E+03  0.14794289058E+03  0.79669469632E+02 0.  0.
          5    1    5    5  501    0 -0.69962471701E+02  0.11065956005E+03  0.65318940460E+02  0.14638626869E+03  0.47000000000E+01 0. -1.
        -13    1    6    6    0    0  0.14818285475E+02  0.40187215911E+02  0.11253785119E+03  0.12041329602E+03  0.00000000000E+00 0.  1.
         14    1    6    6    0    0 -0.12522224882E+02 -0.22024719776E+02  0.10769595144E+02  0.27529594563E+02  0.00000000000E+00 0. -1.
         -5    1    3    3    0  503 -0.73333820999E+01  0.18671631844E+02  0.70388667125E+02  0.73342094246E+02  0.47000000000E+01 0.  1.
         11    1    4    4    0    0  0.45116909847E+02 -0.14655284263E+03  0.87386290886E+02  0.17649259211E+03  0.00000000000E+00 0. -1.
        -12    1    4    4    0    0  0.29882883361E+02 -0.94084540283E+00  0.11486802669E+02  0.32028402139E+02  0.00000000000E+00 0.  1.
</event>
<event>
12    1  0.8526130E-002  0.2142083E+03  0.7818608E-02  0.1138753E+00
         21   -1    0    0  503  502  0.00000000000E+00  0.00000000000E+00  0.98881104005E+03  0.98881104005E+03  0.00000000000E+00 0. -1.
         21   -1    0    0  501  503 -0.00000000000E+00 -0.00000000000E+00 -0.72936001937E+02  0.72936001937E+02  0.00000000000E+00 0. -1.
          6    2    1    2  501    0 -0.94809257340E+02  0.86046909928E+02  0.13623060885E+03  0.25385818544E+03  0.17173332100E+03 0.  0.
         24    2    3    3    0    0 -0.52853579873E+02  0.96130289383E+02  0.15651396234E+03  0.20594724888E+03  0.76701469811E+02 0.  0.
         -6    2    1    2    0  502  0.94809257340E+02 -0.86046909928E+02  0.77964442926E+03  0.80788885654E+03  0.16865972391E+03 0.  0.
        -24    2    5    5    0    0  0.48679547435E+01 -0.96425585233E+02  0.43940869067E+03  0.45578148283E+03  0.73042262977E+02 0.  0.
          5    1    3    3  501    0 -0.41955677467E+02 -0.10083379455E+02 -0.20283353491E+02  0.47910936557E+02  0.47000000000E+01 0. -1.
        -11    1    4    4    0    0  0.13107567524E+02  0.38755947113E+02  0.24740173533E+02  0.47811169714E+02  0.00000000000E+00 0.  1.
         12    1    4    4    0    0 -0.65961147397E+02  0.57374342270E+02  0.13177378881E+03  0.15813607917E+03  0.00000000000E+00 0. -1.
         -5    1    5    5    0  502  0.89941302596E+02  0.10378675305E+02  0.34023573859E+03  0.35210737372E+03  0.47000000000E+01 0.  1.
         11    1    6    6    0    0  0.18259315659E+01 -0.67722871362E+02  0.40607704550E+03  0.41168955320E+03  0.00000000000E+00 0. -1.
        -12    1    6    6    0    0  0.30420231776E+01 -0.28702713871E+02  0.33331645172E+02  0.44091929629E+02  0.00000000000E+00 0.  1.
</event>
<event>
12    1  0.8526130E-002  0.1755573E+03  0.7818608E-02  0.1172277E+00
         21   -1    0    0  501  502  0.00000000000E+00  0.00000000000E+00  0.72845077192E+02  0.72845077192E+02  0.00000000000E+00 0. -1.
         21   -1    0    0  502  503 -0.00000000000E+00 -0.00000000000E+00 -0.43560411233E+03  0.43560411233E+03  0.00000000000E+00 0. -1.
         -6    2    1    2    0  503 -0.28461343681E+02 -0.19669205675E+02 -0.22635147782E+03  0.28645309031E+03  0.17211465859E+03 0.  0.
        -24    2    3    3    0    0  0.53881034856E+02 -0.25864145542E+02 -0.11323803837E+03  0.14632677312E+03  0.70827616492E+02 0.  0.
          6    2    1    2  501    0  0.28461343681E+02  0.19669205675E+02 -0.13640755731E+03  0.22199609921E+03  0.17169251770E+03 0.  0.
         24    2    5    5    0    0  0.64647396158E+02  0.58567168530E+02 -0.10669190598E+03  0.16094209162E+03  0.83125176658E+02 0.  0.
          5    1    5    5  501    0 -0.36186052477E+02 -0.38897962856E+02 -0.29715651335E+02  0.61054007587E+02  0.47000000000E+01 0. -1.
        -11    1    6    6    0    0  0.41364000585E+02 -0.24942200460E+01 -0.74305317740E+01  0.42100053212E+02  0.00000000000E+00 0.  1.
         12    1    6    6    0    0  0.23283395573E+02  0.61061388576E+02 -0.99261374204E+02  0.11884203841E+03  0.00000000000E+00 0. -1.
         -5    1    3    3    0  503 -0.82342378537E+02  0.61949398678E+01 -0.11311343945E+03  0.14012631719E+03  0.47000000000E+01 0.  1.
         11    1    4    4    0    0  0.17681161154E+02 -0.57540854576E+00  0.63897189583E+01  0.18809121806E+02  0.00000000000E+00 0. -1.
        -12    1    4    4    0    0  0.36199873701E+02 -0.25288736997E+02 -0.11962775733E+03  0.12751765132E+03  0.00000000000E+00 0.  1.
</event>
<event>
12    1  0.8526130E-002  0.2759090E+03  0.7818608E-02  0.1097994E+00
         21   -1    0    0  503  502  0.00000000000E+00  0.00000000000E+00  0.14102636305E+04  0.14102636305E+04  0.00000000000E+00 0.  1.
         21   -1    0    0  501  503 -0.00000000000E+00 -0.00000000000E+00 -0.10154213014E+03  0.10154213014E+03  0.00000000000E+00 0.  1.
          6    2    1    2  501    0  0.20693487500E+03  0.62106962854E+02  0.13686775879E+03  0.30799117982E+03  0.17159972647E+03 0.  0.
         24    2    3    3    0    0  0.13235188555E+03  0.54119898706E+01  0.30416714535E+01  0.14456396688E+03  0.57820217159E+02 0.  0.
         -6    2    1    2    0  502 -0.20693487500E+03 -0.62106962854E+02  0.11718537416E+04  0.12038145808E+04  0.17102349562E+03 0.  0.
        -24    2    5    5    0    0 -0.11683125641E+03 -0.88645140938E+02  0.55439294562E+03  0.57923243130E+03  0.81554692230E+02 0.  0.
          5    1    3    3  501    0  0.74582989448E+02  0.56694972983E+02  0.13382608734E+03  0.16342721294E+03  0.47000000000E+01 0. -1.
        -13    1    4    4    0    0  0.62161738181E+02  0.63003835334E+01  0.30076096584E+02  0.69342253440E+02  0.00000000000E+00 0.  1.
         14    1    4    4    0    0  0.70190147372E+02 -0.88839366279E+00 -0.27034425131E+02  0.75221713444E+02  0.00000000000E+00 0. -1.
         -5    1    5    5    0  502 -0.90103618586E+02  0.26538178084E+02  0.61746079594E+03  0.62458214952E+03  0.47000000000E+01 0.  1.
         13    1    6    6    0    0  0.54412546725E+01 -0.75353184959E+01  0.49411422946E+01  0.10526308205E+02  0.00000000000E+00 0. -1.
        -14    1    6    6    0    0 -0.12227251109E+03 -0.81109822442E+02  0.54945180333E+03  0.56870612309E+03  0.00000000000E+00 0.  1.
</event>
<event>
12    1  0.8526130E-002  0.1964165E+03  0.7818608E-02  0.1153239E+00
         21   -1    0    0  503  502  0.00000000000E+00  0.00000000000E+00  0.24071294909E+03  0.24071294909E+03  0.00000000000E+00 0.  1.
         21   -1    0    0  501  503 -0.00000000000E+00 -0.00000000000E+00 -0.19750428853E+03  0.19750428853E+03  0.00000000000E+00 0. -1.
          6    2    1    2  501    0 -0.50256864906E+02  0.74128809551E+02 -0.75707895308E+02  0.20860759831E+03  0.17252423536E+03 0.  0.
         24    2    3    3    0    0 -0.14909661372E+02  0.11166322710E+03 -0.34745466613E+02  0.14259041977E+03  0.80211009663E+02 0.  0.
         -6    2    1    2    0  502  0.50256864906E+02 -0.74128809551E+02  0.11891655587E+03  0.22960963931E+03  0.17481020087E+03 0.  0.
        -24    2    5    5    0    0  0.10233497943E+03 -0.55938094061E+02  0.77427108344E+02  0.16042512950E+03  0.78356535695E+02 0.  0.
          5    1    3    3  501    0 -0.35347203535E+02 -0.37534417549E+02 -0.40962428695E+02  0.66017178545E+02  0.47000000000E+01 0. -1.
        -11    1    4    4    0    0  0.11305939490E+02  0.61428629603E+02  0.18181801814E+02  0.65052891710E+02  0.00000000000E+00 0.  1.
         12    1    4    4    0    0 -0.26215600862E+02  0.50234597497E+02 -0.52927268427E+02  0.77537528058E+02  0.00000000000E+00 0. -1.
         -5    1    5    5    0  502 -0.52078114521E+02 -0.18190715490E+02  0.41489447523E+02  0.69184509811E+02  0.47000000000E+01 0.  1.
         13    1    6    6    0    0  0.62842418218E+02 -0.73599868008E+02  0.47394968295E+02  0.10776081439E+03  0.00000000000E+00 0. -1.
        -14    1    6    6    0    0  0.39492561208E+02  0.17661773947E+02  0.30032140049E+02  0.52664315107E+02  0.00000000000E+00 0.  1.
</event>
<event>
12    1  0.8526130E-002  0.2394243E+03  0.7818608E-02  0.1120194E+00
         21   -1    0    0  501  502  0.00000000000E+00  0.00000000000E+00  0.17501614864E+03  0.17501614864E+03  0.00000000000E+00 0. -1.
         21   -1    0    0  502  503 -0.00000000000E+00 -0.00000000000E+00 -0.42472596686E+03  0.42472596686E+03  0.00000000000E+00 0. -1.
         -6    2    1    2    0  503  0.16194708042E+03 -0.39550499144E+02  0.18716479942E+02  0.24005244674E+03  0.17170839154E+03 0.  0.
        -24    2    3    3    0    0  0.11750060600E+03 -0.92829863844E+02  0.12447994388E+02  0.17022720988E+03  0.79991089431E+02 0.  0.
          6    2    1    2  501    0 -0.16194708042E+03  0.39550499144E+02 -0.26842629816E+03  0.35968966876E+03  0.17185133524E+03 0.  0.
         24    2    5    5    0    0 -0.20086667775E+02  0.62636186468E+01 -0.15391491434E+03  0.17430536490E+03  0.79056006966E+02 0.  0.
          5    1    5    5  501    0 -0.14186041265E+03  0.33286880497E+02 -0.11451138383E+03  0.18538430386E+03  0.47000000000E+01 0. -1.
        -13    1    6    6    0    0 -0.70727783133E+01  0.38532959534E+02 -0.43515695780E+02  0.58552787660E+02  0.00000000000E+00 0.  1.
         14    1    6    6    0    0 -0.13013889462E+02 -0.32269340887E+02 -0.11039921856E+03  0.11575257724E+03  0.00000000000E+00 0. -1.
         -5    1    3    3    0  503  0.44446474420E+02  0.53279364700E+02  0.62684855544E+01  0.69825236858E+02  0.47000000000E+01 0.  1.
         13    1    4    4    0    0  0.66752312475E+02 -0.74392677704E+02  0.42297244720E+02  0.10853201660E+03  0.00000000000E+00 0. -1.
        -14    1    4    4    0    0  0.50748293529E+02 -0.18437186140E+02 -0.29849250332E+02  0.61695193283E+02  0.00000000000E+00 0.  1.
</event>
<event>
12    1  0.8526130E-002  0.1848263E+03  0.7818608E-02  0.1163667E+00
         21   -1    0    0  501  502  0.00000000000E+00  0.00000000000E+00  0.37013384353E+03  0.37013384353E+03  0.00000000000E+00 0. -1.
         21   -1    0    0  502  503 -0.00000000000E+00 -0.00000000000E+00 -0.14493542923E+03  0.14493542923E+03  0.00000000000E+00 0. -1.
         -6    2    1    2    0  503 -0.32667599751E+02 -0.34355817125E+02 -0.44395684596E+02  0.18820274695E+03  0.17664032072E+03 0.  0.
        -24    2    3    3    0    0  0.47614728838E+02  0.26781839772E+01 -0.11416932220E+02  0.93722814530E+02  0.79870423502E+02 0.  0.
          6    2    1    2  501    0  0.32667599751E+02  0.34355817125E+02  0.26959409890E+03  0.32686652581E+03  0.17864280923E+03 0.  0.
         24    2    5    5    0    0  0.76715180726E+02 -0.11654814526E+02  0.11391598270E+03  0.15859610810E+03  0.78452665558E+02 0.  0.
          5    1    5    5  501    0 -0.44047580975E+02  0.46010631651E+02  0.15567811620E+03  0.16827041771E+03  0.47000000000E+01 0. -1.
        -13    1    6    6    0    0  0.69886551517E+02  0.16641315098E+02  0.47616650029E+02  0.86188217357E+02  0.00000000000E+00 0.  1.
         14    1    6    6    0    0  0.68286292084E+01 -0.28296129624E+02  0.66299332673E+02  0.72407890741E+02  0.00000000000E+00 0. -1.
         -5    1    3    3    0  503 -0.80282328588E+02 -0.37034001102E+02 -0.32978752376E+02  0.94479932417E+02  0.47000000000E+01 0.  1.
         13    1    4    4    0    0  0.15640584962E+02  0.40270656007E+02 -0.10038977622E+02  0.44352392324E+02  0.00000000000E+00 0. -1.
        -14    1    4    4    0    0  0.31974143876E+02 -0.37592472030E+02 -0.13779545978E+01  0.49370422206E+02  0.00000000000E+00 0.  1.
</event>
<event>
12    1  0.8526130E-002  0.1941178E+03  0.7818608E-02  0.1154839E+00
         21   -1    0    0  501  502  0.00000000000E+00  0.00000000000E+00  0.54336524057E+02  0.54336524057E+02  0.00000000000E+00 0. -1.
         21   -1    0    0  502  503 -0.00000000000E+00 -0.00000000000E+00 -0.91636599108E+03  0.91636599108E+03  0.00000000000E+00 0. -1.
         -6    2    1    2    0  503  0.28319865986E+02  0.84787411618E+02 -0.67057350687E+03  0.69805416428E+03  0.17210423635E+03 0.  0.
        -24    2    3    3    0    0  0.50410582120E+02 -0.94229078322E+01 -0.34560151688E+03  0.35894877018E+03  0.82303056807E+02 0.  0.
          6    2    1    2  501    0 -0.28319865986E+02 -0.84787411618E+02 -0.19145596015E+03  0.27264835085E+03  0.17231023930E+03 0.  0.
         24    2    5    5    0    0  0.33076799061E+02 -0.79052342198E+02 -0.17096042287E+03  0.20749776722E+03  0.80526453835E+02 0.  0.
          5    1    5    5  501    0 -0.61396665048E+02 -0.57350694196E+01 -0.20495537273E+02  0.65150583638E+02  0.47000000000E+01 0. -1.
        -11    1    6    6    0    0  0.37968368574E+02 -0.24972039804E+02 -0.25227757832E+02  0.51977298404E+02  0.00000000000E+00 0.  1.
         12    1    6    6    0    0 -0.48915695122E+01 -0.54080302394E+02 -0.14573266504E+03  0.15552046881E+03  0.00000000000E+00 0. -1.
         -5    1    3    3    0  503 -0.22090716133E+02  0.94210319450E+02 -0.32497198999E+03  0.33910539410E+03  0.47000000000E+01 0.  1.
         13    1    4    4    0    0  0.27135977435E+02  0.30354729634E+02 -0.24412714329E+03  0.24749915752E+03  0.00000000000E+00 0. -1.
        -14    1    4    4    0    0  0.23274604685E+02 -0.39777637466E+02 -0.10147437359E+03  0.11144961266E+03  0.00000000000E+00 0.  1.
</event>
<event>
12    1  0.8526130E-002  0.1888060E+03  0.7818608E-02  0.1159768E+00
         21   -1    0    0  501  502  0.00000000000E+00  0.00000000000E+00  0.23545158988E+03  0.23545158988E+03  0.00000000000E+00 0. -1.
         21   -1    0    0  502  503 -0.00000000000E+00 -0.00000000000E+00 -0.24363698233E+03  0.24363698233E+03  0.00000000000E+00 0. -1.
         -6    2    1    2    0  503  0.58191882724E+02  0.51834808899E+02 -0.15210436525E+03  0.24168514394E+03  0.17088835022E+03 0.  0.
        -24    2    3    3    0    0  0.35522240006E+02 -0.24258234387E+02 -0.12912640327E+03  0.15889540620E+03  0.81998967183E+02 0.  0.
          6    2    1    2  501    0 -0.58191882724E+02 -0.51834808899E+02  0.14391897281E+03  0.23740342828E+03  0.17197259781E+03 0.  0.
         24    2    5    5    0    0  0.16077789783E+02 -0.13266167358E+02  0.20522091510E+02  0.88231029094E+02  0.83241045971E+02 0.  0.
          5    1    5    5  501    0 -0.74269672508E+02 -0.38568641540E+02  0.12339688130E+03  0.14917239918E+03  0.47000000000E+01 0. -1.
        -13    1    6    6    0    0  0.22622739651E+02 -0.41945165767E+02 -0.67316786040E+01  0.48130040280E+02  0.00000000000E+00 0.  1.
         14    1    6    6    0    0 -0.65449498676E+01  0.28678998408E+02  0.27253770114E+02  0.40100988815E+02  0.00000000000E+00 0. -1.
         -5    1    3    3    0  503  0.22669642718E+02  0.76093043285E+02 -0.22977961981E+02  0.82789737735E+02  0.47000000000E+01 0.  1.
         13    1    4    4    0    0 -0.34827770488E+01  0.73544883945E+01  0.88772252203E+01  0.12042564641E+02  0.00000000000E+00 0. -1.
        -14    1    4    4    0    0  0.39005017055E+02 -0.31612722781E+02 -0.13800362849E+03  0.14685284156E+03  0.00000000000E+00 0.  1.
</event>
<event>
12    1  0.8526130E-002  0.2516531E+03  0.7818608E-02  0.1113093E+00
         21   -1    0    0  503  502  0.00000000000E+00  0.00000000000E+00  0.57269792745E+03  0.57269792745E+03  0.00000000000E+00 0.  1.
         21   -1    0    0  501  503 -0.00000000000E+00 -0.00000000000E+00 -0.11968576112E+03  0.11968576112E+03  0.00000000000E+00 0. -1.
          6    2    1    2  501    0 -0.91292810471E+02  0.15819819715E+03  0.12186651830E+03  0.27960813587E+03  0.17311329972E+03 0.  0.
         24    2    3    3    0    0  0.16734263641E+02  0.39821258761E+02  0.60410079647E+02  0.10790510115E+03  0.78283873831E+02 0.  0.
         -6    2    1    2    0  502  0.91292810471E+02 -0.15819819715E+03  0.33114564803E+03  0.41277555270E+03  0.16542421187E+03 0.  0.
        -24    2    5    5    0    0  0.25451361667E+02 -0.14357771874E+03  0.28821782972E+03  0.33268970904E+03  0.79690601729E+02 0.  0.
          5    1    3    3  501    0 -0.10802707411E+03  0.11837693838E+03  0.61456438652E+02  0.17170303473E+03  0.47000000000E+01 0. -1.
        -13    1    4    4    0    0 -0.22996726232E+02  0.43347927291E+02  0.38683745680E+02  0.62484593282E+02  0.00000000000E+00 0.  1.
         14    1    4    4    0    0  0.39730989872E+02 -0.35266685306E+01  0.21726333968E+02  0.45420507866E+02  0.00000000000E+00 0. -1.
         -5    1    5    5    0  502  0.65841448804E+02 -0.14620478401E+02  0.42927818307E+02  0.80085843654E+02  0.47000000000E+01 0.  1.
         11    1    6    6    0    0  0.21331843022E+02 -0.10662786450E+03  0.12678004210E+03  0.16702612996E+03  0.00000000000E+00 0. -1.
        -12    1    6    6    0    0  0.41195186450E+01 -0.36949854243E+02  0.16143778762E+03  0.16566357908E+03  0.00000000000E+00 0.  1.
</event>
<event>
12    1  0.8526130E-002  0.2451333E+03  0.7818608E-02  0.1116501E+00
         21   -1    0    0  503  502  0.00000000000E+00  0.00000000000E+00  0.14547944834E+03  0.14547944834E+03  0.00000000000E+00 0.  1.
         21   -1    0    0  501  503 -0.00000000000E+00 -0.00000000000E+00 -0.62263216841E+03  0.62263216841E+03  0.00000000000E+00 0. -1.
          6    2    1    2  501    0  0.62363248015E+02 -0.16616700742E+03 -0.46200742361E+03  0.52301167924E+03  0.16908491385E+03 0.  0.
         24    2    3    3    0    0  0.64847745613E+02 -0.12374861015E+03 -0.19290913013E+03  0.25053879121E+03  0.77696877607E+02 0.  0.
         -6    2    1    2    0  502 -0.62363248015E+02  0.16616700742E+03 -0.15145296462E+02  0.24509993751E+03  0.16835661646E+03 0.  0.
        -24    2    5    5    0    0 -0.43597565763E+02  0.18968639676E+03  0.27261104141E+01  0.20979002830E+03  0.78247986824E+02 0.  0.
          5    1    3    3  501    0 -0.24844975971E+01 -0.42418397276E+02 -0.26909829348E+03  0.27247288803E+03  0.47000000000E+01 0. -1.
        -11    1    4    4    0    0  0.13793883656E+02 -0.74885502290E+02 -0.14902815694E+03  0.16735441805E+03  0.00000000000E+00 0.  1.
         12    1    4    4    0    0  0.51053861957E+02 -0.48863107859E+02 -0.43880973187E+02  0.83184373161E+02  0.00000000000E+00 0. -1.
         -5    1    5    5    0  502 -0.18765682252E+02 -0.23519389331E+02 -0.17871406876E+02  0.35309909213E+02  0.47000000000E+01 0.  1.
         13    1    6    6    0    0 -0.30831946751E+02  0.14417042411E+02  0.62429811815E-01  0.34036215268E+02  0.00000000000E+00 0. -1.
        -14    1    6    6    0    0 -0.12765619013E+02  0.17526935434E+03  0.26636806023E+01  0.17575381303E+03  0.00000000000E+00 0.  1.
</event>
<event>
12    1  0.8526130E-002  0.2237267E+03  0.7818608E-02  0.1131549E+00
         21   -1    0    0  503  502  0.00000000000E+00  0.00000000000E+00  0.18772246721E+03  0.18772246721E+03  0.00000000000E+00 0.  1.
         21   -1    0    0  501  503 -0.00000000000E+00 -0.00000000000E+00 -0.34678431724E+03  0.34678431724E+03  0.00000000000E+00 0. -1.
          6    2    1    2  501    0  0.13070470114E+03  0.48159972096E+02 -0.21045304277E+03  0.30715491297E+03  0.17507300059E+03 0.  0.
         24    2    3    3    0    0  0.14080559457E+03 -0.11829206571E+02 -0.14651029965E+03  0.21877225628E+03  0.80186573820E+02 0.  0.
         -6    2    1    2    0  502 -0.13070470114E+03 -0.48159972096E+02  0.51391192750E+02  0.22735187149E+03  0.17217641234E+03 0.  0.
        -24    2    5    5    0    0 -0.44965016198E+02  0.31356343953E+02  0.47241152139E+02  0.11024742696E+03  0.83172686066E+02 0.  0.
          5    1    3    3  501    0 -0.10100893437E+02  0.59989178668E+02 -0.63942743121E+02  0.88382656688E+02  0.47000000000E+01 0. -1.
        -13    1    4    4    0    0  0.33304763086E+02 -0.38048560001E+02 -0.33785472948E+02  0.60814129483E+02  0.00000000000E+00 0.  1.
         14    1    4    4    0    0  0.10750083149E+03  0.26219353430E+02 -0.11272482671E+03  0.15795812680E+03  0.00000000000E+00 0. -1.
         -5    1    5    5    0  502 -0.85739684939E+02 -0.79516316050E+02  0.41500406110E+01  0.11710444453E+03  0.47000000000E+01 0.  1.
         13    1    6    6    0    0  0.13309858114E+02  0.12441545260E+02 -0.14485982580E+02  0.23276341267E+02  0.00000000000E+00 0. -1.
        -14    1    6    6    0    0 -0.58274874312E+02  0.18914798694E+02  0.61727134718E+02  0.86971085691E+02  0.00000000000E+00 0.  1.
</event>
<event>
12    1  0.8526130E-002  0.2022269E+03  0.7818608E-02  0.1147874E+00
         21   -1    0    0  501  502  0.00000000000E+00  0.00000000000E+00  0.76004186029E+03  0.76004186029E+03  0.00000000000E+00 0. -1.
         21   -1    0    0  502  503 -0.00000000000E+00 -0.00000000000E+00 -0.66961392941E+02  0.66961392941E+02  0.00000000000E+00 0. -1.
         -6    2    1    2    0  503  0.10611600078E+03  0.49274661638E+01  0.16326507695E+03  0.25990615013E+03  0.17207799388E+03 0.  0.
        -24    2    3    3    0    0  0.48348821919E+02 -0.42998412789E+02  0.31145249885E+02  0.10788090377E+03  0.80509569143E+02 0.  0.
          6    2    1    2  501    0 -0.10611600078E+03 -0.49274661638E+01  0.52981539039E+03  0.56709710310E+03  0.17207524780E+03 0.  0.
         24    2    5    5    0    0 -0.81789916304E+01 -0.33174275439E+02  0.11025985193E+03  0.13531187889E+03  0.70601991227E+02 0.  0.
          5    1    5    5  501    0 -0.97937009146E+02  0.28246809275E+02  0.41955553846E+03  0.43178522421E+03  0.47000000000E+01 0. -1.
        -13    1    6    6    0    0 -0.12131457291E+02 -0.22188963397E+02  0.87306879898E+00  0.25303845592E+02  0.00000000000E+00 0.  1.
         14    1    6    6    0    0  0.39524656607E+01 -0.10985312042E+02  0.10938678313E+03  0.11000803330E+03  0.00000000000E+00 0. -1.
         -5    1    3    3    0  503  0.57767178858E+02  0.47925878953E+02  0.13211982707E+03  0.15202524636E+03  0.47000000000E+01 0.  1.
         13    1    4    4    0    0  0.19525168217E+02  0.18519560738E+01  0.48092837177E+02  0.51938260685E+02  0.00000000000E+00 0. -1.
        -14    1    4    4    0    0  0.28823653702E+02 -0.44850368863E+02 -0.16947587292E+02  0.55942643081E+02  0.00000000000E+00 0.  1.
</event>
<event>
12    1  0.8526130E-002  0.2233195E+03  0.7818608E-02  0.1131447E+00
         21   -1    0    0  501  502  0.00000000000E+00  0.00000000000E+00  0.32041123585E+02  0.32041123585E+02  0.00000000000E+00 0. -1.
         21   -1    0    0  502  503 -0.00000000000E+00 -0.00000000000E+00 -0.25464217705E+04  0.25464217705E+04  0.00000000000E+00 0.  1.
         -6    2    1    2    0  503  0.13928032149E+03  0.27221673506E+02 -0.20614003167E+04  0.20734615710E+04  0.17242851590E+03 0.  0.
        -24    2    3    3    0    0  0.11026319463E+03  0.53895689161E+02 -0.92354883562E+03  0.93491794872E+03  0.77887108384E+02 0.  0.
          6    2    1    2  501    0 -0.13928032149E+03 -0.27221673506E+02 -0.45298033012E+03  0.50500132303E+03  0.17232274755E+03 0.  0.
         24    2    5    5    0    0 -0.80480008070E+02  0.11913729698E+02 -0.12305097243E+03  0.16756313950E+03  0.79478898125E+02 0.  0.
          5    1    5    5  501    0 -0.58800313421E+02 -0.39135403204E+02 -0.32992935769E+03  0.33743818354E+03  0.47000000000E+01 0. -1.
        -11    1    6    6    0    0 -0.25244219932E+02  0.35918574326E+02 -0.86792857399E+02  0.97264663250E+02  0.00000000000E+00 0.  1.
         12    1    6    6    0    0 -0.55235788137E+02 -0.24004844628E+02 -0.36258115032E+02  0.70298476246E+02  0.00000000000E+00 0. -1.
         -5    1    3    3    0  503  0.29017126861E+02 -0.26674015655E+02 -0.11378514811E+04  0.11385436223E+04  0.47000000000E+01 0.  1.
         13    1    4    4    0    0 -0.17244252888E+01  0.23612483424E+02 -0.80014475527E+02  0.83443629535E+02  0.00000000000E+00 0. -1.
        -14    1    4    4    0    0  0.11198761992E+03  0.30283205737E+02 -0.84353436010E+03  0.85147431918E+03  0.00000000000E+00 0.  1.
</event>
<event>
12    1  0.8526130E-002  0.1876087E+03  0.7818608E-02  0.1161024E+00
         21   -1    0    0  503  502  0.00000000000E+00  0.00000000000E+00  0.79602947083E+03  0.79602947083E+03  0.00000000000E+00 0.  1.
         21   -1    0    0  501  503 -0.00000000000E+00 -0.00000000000E+00 -0.45712291670E+02  0.45712291670E+02  0.00000000000E+00 0.  1.
          6    2    1    2  501    0  0.85513712066E+01  0.73542296544E+02  0.45917678158E+03  0.49538970081E+03  0.17054630925E+03 0.  0.
         24    2    3    3    0    0  0.67191167888E+02  0.59254944595E+02  0.35718197645E+03  0.37678200943E+03  0.79749086707E+02 0.  0.
         -6    2    1    2    0  502 -0.85513712066E+01 -0.73542296544E+02  0.29114039758E+03  0.34635206169E+03  0.17238162374E+03 0.  0.
        -24    2    5    5    0    0 -0.45802135372E+02 -0.20659823070E+02  0.25649614346E+03  0.27282322534E+03  0.78214939628E+02 0.  0.
          5    1    3    3  501    0 -0.58639796681E+02  0.14287351949E+02  0.10199480513E+03  0.11860769138E+03  0.47000000000E+01 0. -1.
        -11    1    4    4    0    0  0.34475153650E+02  0.61567391947E+02  0.31776132797E+03  0.32550167668E+03  0.00000000000E+00 0.  1.
         12    1    4    4    0    0  0.32716014238E+02 -0.23124473521E+01  0.39420648480E+02  0.51280332750E+02  0.00000000000E+00 0. -1.
         -5    1    5    5    0  502  0.37250764166E+02 -0.52882473474E+02  0.34644254124E+02  0.73528836353E+02  0.47000000000E+01 0.  1.
         13    1    6    6    0    0  0.10828727780E+01 -0.29895060695E+02  0.18113587184E+03  0.18358946412E+03  0.00000000000E+00 0. -1.
        -14    1    6    6    0    0 -0.46885008150E+02  0.92352376249E+01  0.75360271614E+02  0.89233761218E+02  0.00000000000E+00 0.  1.
</event>
<event>
12    1  0.8526130E-002  0.1839485E+03  0.7818608E-02  0.1164351E+00
         21   -1    0    0  501  502  0.00000000000E+00  0.00000000000E+00  0.49133299682E+02  0.49133299682E+02  0.00000000000E+00 0. -1.
         21   -1    0    0  502  503 -0.00000000000E+00 -0.00000000000E+00 -0.26404159593E+04  0.26404159593E+04  0.00000000000E+00 0. -1.
         -6    2    1    2    0  503 -0.24093725290E+02 -0.55497674817E+02 -0.24545187369E+04  0.24614018956E+04  0.17371402446E+03 0.  0.
        -24    2    3    3    0    0  0.11225871913E+02 -0.96887977074E+02 -0.19244444753E+04  0.19285215677E+04  0.78712122069E+02 0.  0.
          6    2    1    2  501    0  0.24093725290E+02  0.55497674817E+02 -0.13676392272E+03  0.22814736340E+03  0.17229727032E+03 0.  0.
         24    2    5    5    0    0 -0.50447453076E+02  0.41348742261E+02 -0.83767899630E+02  0.13547995797E+03  0.84161119264E+02 0.  0.
          5    1    5    5  501    0  0.74541178366E+02  0.14148932556E+02 -0.52996023089E+02  0.92667405424E+02  0.47000000000E+01 0. -1.
        -13    1    6    6    0    0 -0.60288812568E+02  0.32765910290E+02 -0.95722629371E+02  0.11777592102E+03  0.00000000000E+00 0.  1.
         14    1    6    6    0    0  0.98413594926E+01  0.85828319714E+01  0.11954729741E+02  0.17704036955E+02  0.00000000000E+00 0. -1.
         -5    1    3    3    0  503 -0.35319597203E+02  0.41390302257E+02 -0.53007426162E+03  0.53288032793E+03  0.47000000000E+01 0.  1.
         13    1    4    4    0    0 -0.15648842475E+01 -0.96060699867E+02 -0.11606272263E+04  0.11645967823E+04  0.00000000000E+00 0. -1.
        -14    1    4    4    0    0  0.12790756160E+02 -0.82727720652E+00 -0.76381724898E+03  0.76392478535E+03  0.00000000000E+00 0.  1.
</event>
<event>
12    1  0.8526130E-002  0.1952491E+03  0.7818608E-02  0.1158394E+00
         21   -1    0    0  501  502  0.00000000000E+00  0.00000000000E+00  0.14476425475E+04  0.14476425475E+04  0.00000000000E+00 0. -1.
         21   -1    0    0  502  503 -0.00000000000E+00 -0.00000000000E+00 -0.17864735851E+03  0.17864735851E+03  0.00000000000E+00 0. -1.
         -6    2    1    2    0  503 -0.34726591383E+02 -0.17790405368E+01 -0.11807735170E+03  0.22817641915E+03  0.19212786403E+03 0.  0.
        -24    2    3    3    0    0  0.51543046589E+02 -0.35183727808E+02 -0.72510535195E+02  0.12494489134E+03  0.80367081594E+02 0.  0.
          6    2    1    2  501    0  0.34726591383E+02  0.17790405368E+01  0.13870725407E+04  0.13981134868E+04  0.17187782833E+03 0.  0.
         24    2    5    5    0    0  0.20570770743E+02 -0.11729801129E+02  0.13674606454E+04  0.13700137983E+04  0.80177589744E+02 0.  0.
          5    1    5    5  501    0  0.14155820640E+02  0.13508841666E+02  0.19611895246E+02  0.28099688545E+02  0.47000000000E+01 0. -1.
        -13    1    6    6    0    0  0.20638427358E+02  0.11164931722E+02  0.11629223018E+03  0.11863592704E+03  0.00000000000E+00 0.  1.
         14    1    6    6    0    0 -0.67656615166E-01 -0.22894732851E+02  0.12511684153E+04  0.12513778713E+04  0.00000000000E+00 0. -1.
         -5    1    3    3    0  503 -0.86269637972E+02  0.33404687271E+02 -0.45566816504E+02  0.10323152781E+03  0.47000000000E+01 0.  1.
         11    1    4    4    0    0  0.29961139439E+02 -0.45084055836E+02 -0.82915079138E+02  0.99020969070E+02  0.00000000000E+00 0. -1.
        -12    1    4    4    0    0  0.21581907150E+02  0.99003280275E+01  0.10404543943E+02  0.25923922272E+02  0.00000000000E+00 0.  1.
</event>
<event>
12    1  0.8526130E-002  0.2185411E+03  0.7818608E-02  0.1136774E+00
         21   -1    0    0  503  502  0.00000000000E+00  0.00000000000E+00  0.26560400643E+03  0.26560400643E+03  0.00000000000E+00 0.  1.
         21   -1    0    0  501  503 -0.00000000000E+00 -0.00000000000E+00 -0.24483180707E+03  0.24483180707E+03  0.00000000000E+00 0. -1.
          6    2    1    2  501    0  0.79029344348E+02  0.10706072425E+03 -0.12874743446E+03  0.24564090572E+03  0.16141845228E+03 0.  0.
         24    2    3    3    0    0  0.10812216791E+03  0.10998839790E+03 -0.88660107147E+02  0.19580068634E+03  0.81789017029E+02 0.  0.
         -6    2    1    2    0  502 -0.79029344348E+02 -0.10706072425E+03  0.14951963382E+03  0.26479490779E+03  0.17335681800E+03 0.  0.
        -24    2    5    5    0    0 -0.10359492948E+03 -0.63048408038E+02  0.48902769786E+02  0.15216100845E+03  0.77810541910E+02 0.  0.
          5    1    3    3  501    0 -0.29092823564E+02 -0.29276736508E+01 -0.40087327315E+02  0.49840219374E+02  0.47000000000E+01 0. -1.
        -11    1    4    4    0    0  0.97598807419E+02  0.48832702147E+02 -0.74538811512E+02  0.13215973074E+03  0.00000000000E+00 0.  1.
         12    1    4    4    0    0  0.10523360494E+02  0.61155695756E+02 -0.14121295635E+02  0.63640955602E+02  0.00000000000E+00 0. -1.
         -5    1    5    5    0  502  0.24565585127E+02 -0.44012316214E+02  0.10061686404E+03  0.11263389934E+03  0.47000000000E+01 0.  1.
         11    1    6    6    0    0 -0.58930349370E+02 -0.77192116585E+02  0.35913978337E+02  0.10354333769E+03  0.00000000000E+00 0. -1.
        -12    1    6    6    0    0 -0.44664580105E+02  0.14143708547E+02  0.12988791449E+02  0.48617670766E+02  0.00000000000E+00 0.  1.
</event>
<event>
12    1  0.8526130E-002  0.2002079E+03  0.7818608E-02  0.1150935E+00
         21   -1    0    0  503  502  0.00000000000E+00  0.00000000000E+00  0.21903639604E+03  0.21903639604E+03  0.00000000000E+00 0.  1.
         21   -1    0    0  501  503 -0.00000000000E+00 -0.00000000000E+00 -0.20492289969E+03  0.20492289969E+03  0.00000000000E+00 0.  1.
          6    2    1    2  501    0  0.83485525743E+02 -0.34293108552E+02  0.85120019937E+02  0.21755137681E+03  0.17871019405E+03 0.  0.
         24    2    3    3    0    0  0.92444902936E+02 -0.26968461489E+01  0.11883982725E+03  0.17024694105E+03  0.79421554609E+02 0.  0.
         -6    2    1    2    0  502 -0.83485525743E+02  0.34293108552E+02 -0.71006523584E+02  0.20640791891E+03  0.17151225116E+03 0.  0.
        -24    2    5    5    0    0  0.90885314106E+01 -0.24191827487E+02 -0.39408659871E+02  0.92342329044E+02  0.79411695235E+02 0.  0.
          5    1    3    3  501    0 -0.89593771934E+01 -0.31596262404E+02 -0.33719807316E+02  0.47304435765E+02  0.47000000000E+01 0. -1.
        -11    1    4    4    0    0  0.85661836386E+02 -0.32037332001E+02  0.83787243905E+02  0.12403484630E+03  0.00000000000E+00 0.  1.
         12    1    4    4    0    0  0.67830665503E+01  0.29340485852E+02  0.35052583349E+02  0.46212094751E+02  0.00000000000E+00 0. -1.
         -5    1    5    5    0  502 -0.92574057154E+02  0.58484936039E+02 -0.31597863713E+02  0.11406558987E+03  0.47000000000E+01 0.  1.
         11    1    6    6    0    0 -0.59836564990E+01 -0.64708058391E+01  0.23591556604E+02  0.25184062744E+02  0.00000000000E+00 0. -1.
        -12    1    6    6    0    0  0.15072187910E+02 -0.17721021648E+02 -0.63000216474E+02  0.67158266300E+02  0.00000000000E+00 0.  1.
</event>
<event>
12    1  0.8526130E-002  0.2163039E+03  0.7818608E-02  0.1136817E+00
         21   -1    0    0  501  502  0.00000000000E+00  0.00000000000E+00  0.91225787457E+02  0.91225787457E+02  0.00000000000E+00 0. -1.
         21   -1    0    0  502  503 -0.00000000000E+00 -0.00000000000E+00 -0.59899285213E+03  0.59899285213E+03  0.00000000000E+00 0. -1.
         -6    2    1    2    0  503 -0.10401616963E+03  0.77809210423E+02 -0.12125527308E+03  0.24729792499E+03  0.17198774864E+03 0.  0.
        -24    2    3    3    0    0  0.11761679155E+02  0.32409133689E+02 -0.21526024285E+02  0.87818489631E+02  0.77846183956E+02 0.  0.
          6    2    1    2  501    0  0.10401616963E+03 -0.77809210423E+02 -0.38651179159E+03  0.44292071460E+03  0.17295594123E+03 0.  0.
         24    2    5    5    0    0 -0.10598999619E+02 -0.39133886529E+02 -0.23028340997E+03  0.24528009396E+03  0.74081547765E+02 0.  0.
          5    1    5    5  501    0  0.11461516925E+03 -0.38675323894E+02 -0.15622838163E+03  0.19764062064E+03  0.47000000000E+01 0. -1.
        -13    1    6    6    0    0 -0.26828489678E+02  0.85694150397E+01 -0.43515577131E+02  0.51834430503E+02  0.00000000000E+00 0.  1.
         14    1    6    6    0    0  0.16229490059E+02 -0.47703301569E+02 -0.18676783284E+03  0.19344566346E+03  0.00000000000E+00 0. -1.
         -5    1    3    3    0  503 -0.11577784879E+03  0.45400076734E+02 -0.99729248793E+02  0.15947943536E+03  0.47000000000E+01 0.  1.
         11    1    4    4    0    0  0.24852514648E+02  0.49553584207E+02 -0.31817475460E+02  0.63918361499E+02  0.00000000000E+00 0. -1.
        -12    1    4    4    0    0 -0.13090835493E+02 -0.17144450518E+02  0.10291451175E+02  0.23900128132E+02  0.00000000000E+00 0.  1.
</event>
<event>
12    1  0.8526130E-002  0.1841372E+03  0.7818608E-02  0.1164244E+00
         21   -1    0    0  501  502  0.00000000000E+00  0.00000000000E+00  0.77814749947E+03  0.77814749947E+03  0.00000000000E+00 0. -1.
         21   -1    0    0  502  503 -0.00000000000E+00 -0.00000000000E+00 -0.43508335683E+02  0.43508335683E+02  0.00000000000E+00 0. -1.
         -6    2    1    2    0  503 -0.35413414262E+02 -0.56479219559E+02  0.33366592271E+03  0.38110294348E+03  0.17164641971E+03 0.  0.
        -24    2    3    3    0    0  0.33378629180E+02 -0.68036231189E+02  0.23239939843E+03  0.25804641705E+03  0.82676546367E+02 0.  0.
          6    2    1    2  501    0  0.35413414262E+02  0.56479219559E+02  0.40097324108E+03  0.44055289167E+03  0.16989201908E+03 0.  0.
         24    2    5    5    0    0  0.28711014061E+02 -0.26714852805E+01  0.35737757368E+03  0.36661778318E+03  0.76540248337E+02 0.  0.
          5    1    5    5  501    0  0.67024002004E+01  0.59150704839E+02  0.43595667401E+02  0.73935108491E+02  0.47000000000E+01 0. -1.
        -11    1    6    6    0    0  0.34685174497E+02 -0.34774327914E+02  0.21883460581E+03  0.22427862117E+03  0.00000000000E+00 0.  1.
         12    1    6    6    0    0 -0.59741604359E+01  0.32102842633E+02  0.13854296786E+03  0.14233916201E+03  0.00000000000E+00 0. -1.
         -5    1    3    3    0  503 -0.68792043442E+02  0.11557011630E+02  0.10126652428E+03  0.12305652643E+03  0.47000000000E+01 0.  1.
         13    1    4    4    0    0  0.46560369861E+02 -0.51146523416E+01  0.11548745814E+03  0.12462496017E+03  0.00000000000E+00 0. -1.
        -14    1    4    4    0    0 -0.13181740681E+02 -0.62921578848E+02  0.11691194029E+03  0.13342145687E+03  0.00000000000E+00 0.  1.
</event>
<event>
12    1  0.8526130E-002  0.2011885E+03  0.7818608E-02  0.1149189E+00
         21   -1    0    0  503  502  0.00000000000E+00  0.00000000000E+00  0.29097895551E+04  0.29097895551E+04  0.00000000000E+00 0.  1.
         21   -1    0    0  501  503 -0.00000000000E+00 -0.00000000000E+00 -0.23633701334E+02  0.23633701334E+02  0.00000000000E+00 0. -1.
          6    2    1    2  501    0 -0.57867401078E+02 -0.73406092163E+02  0.49970880666E+03  0.53868886390E+03  0.17815642049E+03 0.  0.
         24    2    3    3    0    0 -0.46038883493E+02  0.14959539345E+02  0.36622143892E+03  0.37809818544E+03  0.80602288442E+02 0.  0.
         -6    2    1    2    0  502  0.57867401078E+02  0.73406092163E+02  0.23864470472E+04  0.23947343926E+04  0.17574473443E+03 0.  0.
        -24    2    5    5    0    0  0.33867153451E+02  0.15042257726E+02  0.53827470137E+03  0.54547901304E+03  0.80214998163E+02 0.  0.
          5    1    3    3  501    0 -0.11828517585E+02 -0.88365631508E+02  0.13348736775E+03  0.16059067846E+03  0.47000000000E+01 0. -1.
        -13    1    4    4    0    0 -0.61141767484E+02 -0.58657179264E+01  0.31319335600E+03  0.31915952222E+03  0.00000000000E+00 0.  1.
         14    1    4    4    0    0  0.15102883990E+02  0.20825257271E+02  0.53028082913E+02  0.58938663225E+02  0.00000000000E+00 0. -1.
         -5    1    5    5    0  502  0.24000247627E+02  0.58363834437E+02  0.18481723458E+04  0.18492553795E+04  0.47000000000E+01 0.  1.
         11    1    6    6    0    0  0.41043820519E+02 -0.24524803667E+02  0.26853229187E+03  0.27275566534E+03  0.00000000000E+00 0. -1.
        -12    1    6    6    0    0 -0.71766670680E+01  0.39567061393E+02  0.26974240950E+03  0.27272334770E+03  0.00000000000E+00 0.  1.
</event>
<event>
12    1  0.8526130E-002  0.1978095E+03  0.7818608E-02  0.1151680E+00
         21   -1    0    0  503  502  0.00000000000E+00  0.00000000000E+00  0.69337041691E+02  0.69337041691E+02  0.00000000000E+00 0.  1.
         21   -1    0    0  501  503 -0.00000000000E+00 -0.00000000000E+00 -0.62121259814E+03  0.62121259814E+03  0.00000000000E+00 0. -1.
          6    2    1    2  501    0 -0.81901998433E+02  0.53184316192E+02 -0.38163074757E+03  0.42984952750E+03  0.17202348668E+03 0.  0.
         24    2    3    3    0    0 -0.46038006916E+02  0.11806145759E+02 -0.78903720212E+02  0.12217417593E+03  0.80261130330E+02 0.  0.
         -6    2    1    2    0  502  0.81901998433E+02 -0.53184316192E+02 -0.17024480888E+03  0.26070011233E+03  0.17159471082E+03 0.  0.
        -24    2    5    5    0    0 -0.78612671712E+01 -0.55582195943E+02 -0.44280342398E+02  0.10593470762E+03  0.78167982752E+02 0.  0.
          5    1    3    3  501    0 -0.35863991517E+02  0.41378170433E+02 -0.30272702736E+03  0.30767535158E+03  0.47000000000E+01 0. -1.
        -13    1    4    4    0    0 -0.46843287735E+02 -0.26645517852E+02 -0.37444579373E+02  0.65622966650E+02  0.00000000000E+00 0.  1.
         14    1    4    4    0    0  0.80528081991E+00  0.38451663611E+02 -0.41459140840E+02  0.56551209278E+02  0.00000000000E+00 0. -1.
         -5    1    5    5    0  502  0.89763265604E+02  0.23978797513E+01 -0.12596446649E+03  0.15476540471E+03  0.47000000000E+01 0.  1.
         11    1    6    6    0    0  0.18368108614E+02 -0.64254350536E+02 -0.40258486680E+02  0.78017656505E+02  0.00000000000E+00 0. -1.
        -12    1    6    6    0    0 -0.26229375785E+02  0.86721545929E+01 -0.40218557178E+01  0.27917051111E+02  0.00000000000E+00 0.  1.
</event>
<event>
12    1  0.8526130E-002  0.3723000E+03  0.7818608E-02  0.1053827E+00
         21   -1    0    0  501  502  0.00000000000E+00  0.00000000000E+00  0.60562796023E+03  0.60562796023E+03  0.00000000000E+00 0.  1.
         21   -1    0    0  502  503 -0.00000000000E+00 -0.00000000000E+00 -0.52124978632E+03  0.52124978632E+03  0.00000000000E+00 0. -1.
         -6    2    1    2    0  503  0.29268981966E+03  0.15166060999E+03 -0.37984211520E+03  0.53187151131E+03  0.17302890195E+03 0.  0.
        -24    2    3    3    0    0  0.89787689896E+02  0.21364320528E+02 -0.18815892009E+03  0.22379532820E+03  0.78500358393E+02 0.  0.
          6    2    1    2  501    0 -0.29268981966E+03 -0.15166060999E+03  0.46422028911E+03  0.59500623523E+03  0.17281108756E+03 0.  0.
         24    2    5    5    0    0 -0.72357981255E+02 -0.57331465778E+02  0.93355149829E+02  0.15341009847E+03  0.79353008101E+02 0.  0.
          5    1    5    5  501    0 -0.22033183840E+03 -0.94329144216E+02  0.37086513928E+03  0.44159613676E+03  0.47000000000E+01 0. -1.
        -11    1    6    6    0    0 -0.31520566661E+02  0.75416454509E+01  0.63218845374E+02  0.71042557310E+02  0.00000000000E+00 0.  1.
         12    1    6    6    0    0 -0.40837414595E+02 -0.64873111229E+02  0.30136304455E+02  0.82367541164E+02  0.00000000000E+00 0. -1.
         -5    1    3    3    0  503  0.20290212976E+03  0.13029628947E+03 -0.19168319511E+03  0.30807618311E+03  0.47000000000E+01 0.  1.
         13    1    4    4    0    0  0.53375286671E+02  0.50897009492E+02 -0.12502341814E+03  0.14515606046E+03  0.00000000000E+00 0. -1.
        -14    1    4    4    0    0  0.36412403225E+02 -0.29532688964E+02 -0.63135501946E+02  0.78639267749E+02  0.00000000000E+00 0.  1.
</event>
<event>
12    1  0.8526130E-002  0.1856433E+03  0.7818608E-02  0.1163192E+00
         21   -1    0    0  503  502  0.00000000000E+00  0.00000000000E+00  0.88084127067E+03  0.88084127067E+03  0.00000000000E+00 0.  1.
         21   -1    0    0  501  503 -0.00000000000E+00 -0.00000000000E+00 -0.85380713076E+02  0.85380713076E+02  0.00000000000E+00 0.  1.
          6    2    1    2  501    0  0.30214421429E+02  0.58176464513E+02  0.41146601784E+02  0.19014861516E+03  0.17368373765E+03 0.  0.
         24    2    3    3    0    0  0.68178321121E+02 -0.10137689101E+02  0.34961537523E+02  0.11160928563E+03  0.80518738944E+02 0.  0.
         -6    2    1    2    0  502 -0.30214421429E+02 -0.58176464513E+02  0.75431395581E+03  0.77607336858E+03  0.17030242867E+03 0.  0.
        -24    2    5    5    0    0 -0.78060158172E+02 -0.68854372175E+01  0.46039779171E+03  0.47386684065E+03  0.80267418782E+02 0.  0.
          5    1    3    3  501    0 -0.37963899692E+02  0.68314153615E+02  0.61850642608E+01  0.78539329535E+02  0.47000000000E+01 0. -1.
        -13    1    4    4    0    0  0.72747467656E+01  0.28458398088E+02 -0.40130364108E+01  0.29646362736E+02  0.00000000000E+00 0.  1.
         14    1    4    4    0    0  0.60903574355E+02 -0.38596087190E+02  0.38974573934E+02  0.81962922891E+02  0.00000000000E+00 0. -1.
         -5    1    5    5    0  502  0.47845736743E+02 -0.51291027296E+02  0.29391616409E+03  0.30220652793E+03  0.47000000000E+01 0.  1.
         11    1    6    6    0    0 -0.16644121430E+02  0.59578766578E+01  0.31515822988E+03  0.31565365978E+03  0.00000000000E+00 0. -1.
        -12    1    6    6    0    0 -0.61416036742E+02 -0.12843313875E+02  0.14523956183E+03  0.15821318087E+03  0.00000000000E+00 0.  1.
</event>
<event>
12    1  0.8526130E-002  0.2137564E+03  0.7818608E-02  0.1138798E+00
         21   -1    0    0  503  502  0.00000000000E+00  0.00000000000E+00  0.97382749136E+03  0.97382749136E+03  0.00000000000E+00 0. -1.
         21   -1    0    0  501  503 -0.00000000000E+00 -0.00000000000E+00 -0.60492656595E+02  0.60492656595E+02  0.00000000000E+00 0.  1.
          6    2    1    2  501    0 -0.10909953886E+03 -0.59355949860E+02  0.20921374139E+03  0.29846805334E+03  0.17287842871E+03 0.  0.
         24    2    3    3    0    0  0.35597629123E+01 -0.33191698146E+02  0.48513681671E+02  0.10041935848E+03  0.81339470797E+02 0.  0.
         -6    2    1    2    0  502  0.10909953886E+03  0.59355949860E+02  0.70412109338E+03  0.73585209462E+03  0.17397112648E+03 0.  0.
        -24    2    5    5    0    0  0.45905263631E+02  0.61681685391E+02  0.62525668859E+03  0.63465619643E+03  0.77010632358E+02 0.  0.
          5    1    3    3  501    0 -0.11265930178E+03 -0.26164251714E+02  0.16070005972E+03  0.19804869486E+03  0.47000000000E+01 0. -1.
        -11    1    4    4    0    0 -0.28140247978E+02  0.43840347818E+01 -0.36824210856E+01  0.28716781545E+02  0.00000000000E+00 0.  1.
         12    1    4    4    0    0  0.31700010890E+02 -0.37575732928E+02  0.52196102757E+02  0.71702576931E+02  0.00000000000E+00 0. -1.
         -5    1    5    5    0  502  0.63194275233E+02 -0.23257355310E+01  0.78864404792E+02  0.10119589819E+03  0.47000000000E+01 0.  1.
         13    1    6    6    0    0  0.63175655456E+02  0.24595730629E+02  0.40414281918E+03  0.40978961883E+03  0.00000000000E+00 0. -1.
        -14    1    6    6    0    0 -0.17270391825E+02  0.37085954762E+02  0.22111386941E+03  0.22486657760E+03  0.00000000000E+00 0.  1.
</event>
<event>
12    1  0.8526130E-002  0.2298271E+03  0.7818608E-02  0.1126891E+00
         21   -1    0    0  503  502  0.00000000000E+00  0.00000000000E+00  0.12232977395E+04  0.12232977395E+04  0.00000000000E+00 0.  1.
         21   -1    0    0  501  503 -0.00000000000E+00 -0.00000000000E+00 -0.60676730180E+02  0.60676730180E+02  0.00000000000E+00 0. -1.
          6    2    1    2  501    0 -0.10655963892E+03 -0.10954107135E+03  0.23586102214E+03  0.32931885660E+03  0.17165746297E+03 0.  0.
         24    2    3    3    0    0 -0.59686542484E+01 -0.98964071698E+02  0.14665180116E+03  0.19437148084E+03  0.80274587887E+02 0.  0.
         -6    2    1    2    0  502  0.10655963892E+03  0.10954107135E+03  0.92675998722E+03  0.95465561311E+03  0.17067238434E+03 0.  0.
        -24    2    5    5    0    0  0.48243512390E+02  0.58926151879E+02  0.24139461328E+03  0.26493797054E+03  0.78237082306E+02 0.  0.
          5    1    3    3  501    0 -0.10059098467E+03 -0.10576999654E+02  0.89209220981E+02  0.13494737577E+03  0.47000000000E+01 0. -1.
        -11    1    4    4    0    0  0.27290707427E+01 -0.34514947515E+02  0.11859234612E+03  0.12354300461E+03  0.00000000000E+00 0.  1.
         12    1    4    4    0    0 -0.86977249910E+01 -0.64449124184E+02  0.28059455032E+02  0.70828476228E+02  0.00000000000E+00 0. -1.
         -5    1    5    5    0  502  0.58316126526E+02  0.50614919473E+02  0.68536537394E+03  0.68971764257E+03  0.47000000000E+01 0.  1.
         11    1    6    6    0    0  0.45054167251E+02 -0.29233307067E+01  0.76942499740E+02  0.89210829586E+02  0.00000000000E+00 0. -1.
        -12    1    6    6    0    0  0.31893451387E+01  0.61849482586E+02  0.16445211354E+03  0.17572714095E+03  0.00000000000E+00 0.  1.
</event>
<event>
12    1  0.8526130E-002  0.2612513E+03  0.7818608E-02  0.1106522E+00
         21   -1    0    0  501  502  0.00000000000E+00  0.00000000000E+00  0.24414576492E+03  0.24414576492E+03  0.00000000000E+00 0.  1.
         21   -1    0    0  502  503 -0.00000000000E+00 -0.00000000000E+00 -0.74049036945E+03  0.74049036945E+03  0.00000000000E+00 0. -1.
         -6    2    1    2    0  503 -0.11469245845E+03  0.15846364622E+03  0.14048341730E+03  0.29662746252E+03  0.17316805071E+03 0.  0.
        -24    2    3    3    0    0 -0.14107877874E+03  0.12446316667E+03  0.73684614302E+02  0.21702570004E+03  0.79223925824E+02 0.  0.
          6    2    1    2  501    0  0.11469245845E+03 -0.15846364622E+03 -0.63682802184E+03  0.68800867185E+03  0.17187471005E+03 0.  0.
         24    2    5    5    0    0 -0.95117454834E+01 -0.70173550080E+02 -0.22935318680E+03  0.25294585278E+03  0.79774179481E+02 0.  0.
          5    1    5    5  501    0  0.12420420393E+03 -0.88290096136E+02 -0.40747483504E+03  0.43506281908E+03  0.47000000000E+01 0. -1.
        -11    1    6    6    0    0  0.17616076747E+02  0.36130948333E+00 -0.11191398610E+03  0.11329252839E+03  0.00000000000E+00 0.  1.
         12    1    6    6    0    0 -0.27127822230E+02 -0.70534859563E+02 -0.11743920069E+03  0.13965332439E+03  0.00000000000E+00 0. -1.
         -5    1    3    3    0  503  0.26386320295E+02  0.34000479548E+02  0.66798802999E+02  0.79601762482E+02  0.47000000000E+01 0.  1.
         13    1    4    4    0    0 -0.15876661816E+02 -0.10726260484E+02  0.12480942988E+02  0.22866897303E+02  0.00000000000E+00 0. -1.
        -14    1    4    4    0    0 -0.12520211693E+03  0.13518942715E+03  0.61203671314E+02  0.19415880273E+03  0.00000000000E+00 0.  1.
</event>
<event>
12    1  0.8526130E-002  0.1753562E+03  0.7818608E-02  0.1172528E+00
         21   -1    0    0  501  502  0.00000000000E+00  0.00000000000E+00  0.34276554002E+02  0.34276554002E+02  0.00000000000E+00 0.  1.
         21   -1    0    0  502  503 -0.00000000000E+00 -0.00000000000E+00 -0.10442339905E+04  0.10442339905E+04  0.00000000000E+00 0.  1.
         -6    2    1    2    0  503 -0.34911132250E+02  0.17091047124E+01 -0.70877955211E+03  0.73000241985E+03  0.17121148123E+03 0.  0.
        -24    2    3    3    0    0 -0.64672929198E+02 -0.32412040838E+02 -0.62822767128E+03  0.63747830064E+03  0.80470172465E+02 0.  0.
          6    2    1    2  501    0  0.34911132250E+02 -0.17091047124E+01 -0.30117788442E+03  0.34850812469E+03  0.17183738450E+03 0.  0.
         24    2    5    5    0    0  0.27711873089E+02  0.62398064501E+02 -0.22772004617E+03  0.25063217015E+03  0.79363712859E+02 0.  0.
          5    1    5    5  501    0  0.71992591606E+01 -0.64107169213E+02 -0.73457838250E+02  0.97875954541E+02  0.47000000000E+01 0. -1.
        -11    1    6    6    0    0 -0.13059611681E+02  0.12459203235E+02 -0.49424929141E+01  0.18713990454E+02  0.00000000000E+00 0.  1.
         12    1    6    6    0    0  0.40771484771E+02  0.49938861266E+02 -0.22277755326E+03  0.23191817969E+03  0.00000000000E+00 0. -1.
         -5    1    3    3    0  503  0.29761796948E+02  0.34121145551E+02 -0.80551880827E+02  0.92524119212E+02  0.47000000000E+01 0.  1.
         13    1    4    4    0    0 -0.19346526367E+02 -0.30268809756E+02 -0.83960537970E+02  0.91322838670E+02  0.00000000000E+00 0. -1.
        -14    1    4    4    0    0 -0.45326402831E+02 -0.21432310825E+01 -0.54426713331E+03  0.54615546197E+03  0.00000000000E+00 0.  1.
</event>
<event>
12    1  0.8526130E-002  0.1964236E+03  0.7818608E-02  0.1152996E+00
         21   -1    0    0  503  502  0.00000000000E+00  0.00000000000E+00  0.71318822720E+02  0.71318822720E+02  0.00000000000E+00 0. -1.
         21   -1    0    0  501  503 -0.00000000000E+00 -0.00000000000E+00 -0.54022702072E+03  0.54022702072E+03  0.00000000000E+00 0. -1.
          6    2    1    2  501    0  0.93770622853E+01 -0.94034359918E+02 -0.21604061150E+03  0.29135178241E+03  0.17111962236E+03 0.  0.
         24    2    3    3    0    0  0.52154230097E+01  0.18226054080E+02 -0.11610721006E+03  0.14092407713E+03  0.77584287095E+02 0.  0.
         -6    2    1    2    0  502 -0.93770622853E+01  0.94034359918E+02 -0.25286758650E+03  0.32019406102E+03  0.17219706813E+03 0.  0.
        -24    2    5    5    0    0  0.25485516196E+02  0.12315396698E+03 -0.20792338083E+03  0.25612048989E+03  0.80926892508E+02 0.  0.
          5    1    3    3  501    0  0.41616392756E+01 -0.11226041400E+03 -0.99933401439E+02  0.15042770528E+03  0.47000000000E+01 0. -1.
        -11    1    4    4    0    0  0.24399908230E+02  0.41643156815E+02 -0.83389268901E+02  0.96349770103E+02  0.00000000000E+00 0.  1.
         12    1    4    4    0    0 -0.19184485220E+02 -0.23417102735E+02 -0.32717941159E+02  0.44574307031E+02  0.00000000000E+00 0. -1.
         -5    1    5    5    0  502 -0.34862578481E+02 -0.29119607061E+02 -0.44944205670E+02  0.64073571128E+02  0.47000000000E+01 0.  1.
         13    1    6    6    0    0 -0.13342063969E+02  0.55311207924E+02 -0.14503124306E+03  0.15579281709E+03  0.00000000000E+00 0. -1.
        -14    1    6    6    0    0  0.38827580164E+02  0.67842759055E+02 -0.62892137765E+02  0.10032767280E+03  0.00000000000E+00 0.  1.
</event>
<event>
12    1  0.8526130E-002  0.1947305E+03  0.7818608E-02  0.1154479E+00
         21   -1    0    0  503  502  0.00000000000E+00  0.00000000000E+00  0.73922895785E+02  0.73922895785E+02  0.00000000000E+00 0. -1.
         21   -1    0    0  501  503 -0.00000000000E+00 -0.00000000000E+00 -0.51941115023E+03  0.51941115023E+03  0.00000000000E+00 0. -1.
          6    2    1    2  501    0  0.31001164915E+02  0.32344965263E+02 -0.26133589008E+03  0.32531904338E+03  0.18849075186E+03 0.  0.
         24    2    3    3    0    0 -0.56508746452E+01 -0.53009652956E+02 -0.98185132058E+02  0.13751850371E+03  0.80181438100E+02 0.  0.
         -6    2    1    2    0  502 -0.31001164915E+02 -0.32344965263E+02 -0.18415236437E+03  0.26801500264E+03  0.18950640974E+03 0.  0.
        -24    2    5    5    0    0 -0.68270824264E+02 -0.64497385835E+02 -0.18013228096E+03  0.21840596387E+03  0.80204165645E+02 0.  0.
          5    1    3    3  501    0  0.36652039561E+02  0.85354618219E+02 -0.16315075802E+03  0.18780053966E+03  0.47000000000E+01 0. -1.
        -11    1    4    4    0    0 -0.31477091782E+02  0.44479337972E+01 -0.21988157792E+02  0.38653208214E+02  0.00000000000E+00 0.  1.
         12    1    4    4    0    0  0.25826217137E+02 -0.57457586753E+02 -0.76196974266E+02  0.98865295501E+02  0.00000000000E+00 0. -1.
         -5    1    5    5    0  502  0.37269659349E+02  0.32152420572E+02 -0.40200834102E+01  0.49609038765E+02  0.47000000000E+01 0.  1.
         11    1    6    6    0    0 -0.77889141216E+02 -0.69677025959E+02 -0.12850509923E+03  0.16563564469E+03  0.00000000000E+00 0. -1.
        -12    1    6    6    0    0  0.96183169519E+01  0.51796401236E+01 -0.51627181728E+02  0.52770319176E+02  0.00000000000E+00 0.  1.
</event>
<event>
12    1  0.8526130E-002  0.2360146E+03  0.7818608E-02  0.1122752E+00
         21   -1    0    0  503  502  0.00000000000E+00  0.00000000000E+00  0.11720465102E+04  0.11720465102E+04  0.00000000000E+00 0. -1.
         21   -1    0    0  501  503 -0.00000000000E+00 -0.00000000000E+00 -0.53474719607E+02  0.53474719607E+02  0.00000000000E+00 0. -1.
          6    2    1    2  501    0  0.14391269008E+03  0.67349123146E+02  0.34773624608E+03  0.41936346893E+03  0.17233239824E+03 0.  0.
         24    2    3    3    0    0  0.12033173003E+03 -0.17828238925E+02  0.22604290630E+03  0.26888887428E+03  0.80051607553E+02 0.  0.
         -6    2    1    2    0  502 -0.14391269008E+03 -0.67349123146E+02  0.77083554450E+03  0.80615776086E+03  0.17451685299E+03 0.  0.
        -24    2    5    5    0    0 -0.10091359440E+03 -0.89190964253E+02  0.36002576534E+03  0.39249998817E+03  0.79366916083E+02 0.  0.
          5    1    3    3  501    0  0.23580960048E+02  0.85177362071E+02  0.12169333978E+03  0.15047459464E+03  0.47000000000E+01 0. -1.
        -13    1    4    4    0    0 -0.23357596292E+01  0.41547302362E+00 -0.56305783412E+01  0.61099757230E+01  0.00000000000E+00 0.  1.
         14    1    4    4    0    0  0.12266748966E+03 -0.18243711949E+02  0.23167348464E+03  0.26277889856E+03  0.00000000000E+00 0. -1.
         -5    1    5    5    0  502 -0.42999095683E+02  0.21841841107E+02  0.41080977916E+03  0.41365777269E+03  0.47000000000E+01 0.  1.
         11    1    6    6    0    0 -0.59143014722E+02 -0.16903585491E+01  0.12694496362E+03  0.14005633613E+03  0.00000000000E+00 0. -1.
        -12    1    6    6    0    0 -0.41770579675E+02 -0.87500605704E+02  0.23308080171E+03  0.25244365203E+03  0.00000000000E+00 0.  1.
</event>
<event>
12    1  0.8526130E-002  0.1754373E+03  0.7818608E-02  0.1172640E+00
         21   -1    0    0  503  502  0.00000000000E+00  0.00000000000E+00  0.33094918311E+02  0.33094918311E+02  0.00000000000E+00 0.  1.
         21   -1    0    0  501  503 -0.00000000000E+00 -0.00000000000E+00 -0.12475860211E+04  0.12475860211E+04  0.00000000000E+00 0.  1.
          6    2    1    2  501    0 -0.27287824757E+02 -0.11503090283E+02 -0.93223999132E+03  0.94834989842E+03  0.17152020859E+03 0.  0.
         24    2    3    3    0    0  0.30392078632E+02 -0.28991897606E+01 -0.26334115751E+03  0.27689719105E+03  0.79946265895E+02 0.  0.
         -6    2    1    2    0  502  0.27287824757E+02  0.11503090283E+02 -0.28225111150E+03  0.33233104101E+03  0.17291987860E+03 0.  0.
        -24    2    5    5    0    0  0.23544451963E+02  0.31566616229E+02 -0.56851979483E+02  0.10596095327E+03  0.80279409368E+02 0.  0.
          5    1    3    3  501    0 -0.57679903389E+02 -0.86039005223E+01 -0.66889883381E+03  0.67145270737E+03  0.47000000000E+01 0. -1.
        -11    1    4    4    0    0  0.14788192745E+02  0.10889177671E+02 -0.25296743278E+03  0.25363317386E+03  0.00000000000E+00 0.  1.
         12    1    4    4    0    0  0.15603885886E+02 -0.13788367432E+02 -0.10373724727E+02  0.23264017192E+02  0.00000000000E+00 0. -1.
         -5    1    5    5    0  502  0.37433727942E+01 -0.20063525946E+02 -0.22539913201E+03  0.22637008774E+03  0.47000000000E+01 0.  1.
         11    1    6    6    0    0  0.19997754316E+02 -0.10362118453E+02 -0.59678952750E+02  0.63787624802E+02  0.00000000000E+00 0. -1.
        -12    1    6    6    0    0  0.35466976465E+01  0.41928734682E+02  0.28269732679E+01  0.42173328468E+02  0.00000000000E+00 0.  1.
</event>
<event>
12    1  0.8526130E-002  0.2967858E+03  0.7818608E-02  0.1087013E+00
         21   -1    0    0  503  502  0.00000000000E+00  0.00000000000E+00  0.73697864775E+03  0.73697864775E+03  0.00000000000E+00 0.  1.
         21   -1    0    0  501  503 -0.00000000000E+00 -0.00000000000E+00 -0.19209371263E+03  0.19209371263E+03  0.00000000000E+00 0. -1.
          6    2    1    2  501    0  0.21312124450E+03  0.10836024054E+03 -0.14398046061E+02  0.29592207346E+03  0.17378136622E+03 0.  0.
         24    2    3    3    0    0  0.28988909502E+02  0.37652914760E+02  0.23845806763E+02  0.94952113043E+02  0.78671356968E+02 0.  0.
         -6    2    1    2    0  502 -0.21312124450E+03 -0.10836024054E+03  0.55928298118E+03  0.63315028691E+03  0.17583863681E+03 0.  0.
        -24    2    5    5    0    0 -0.50494986354E+02 -0.89426518050E+02  0.19375678655E+03  0.23260406655E+03  0.77563610444E+02 0.  0.
          5    1    3    3  501    0  0.18413233500E+03  0.70707325781E+02 -0.38243852824E+02  0.20096996042E+03  0.47000000000E+01 0. -1.
        -13    1    4    4    0    0  0.48679309545E+01  0.49694245433E+02 -0.10766095965E+02  0.51079581079E+02  0.00000000000E+00 0.  1.
         14    1    4    4    0    0  0.24120978547E+02 -0.12041330673E+02  0.34611902728E+02  0.43872531964E+02  0.00000000000E+00 0. -1.
         -5    1    5    5    0  502 -0.16262625815E+03 -0.18933722490E+02  0.36552619463E+03  0.40054622036E+03  0.47000000000E+01 0.  1.
         11    1    6    6    0    0 -0.17302756498E+02 -0.17650880840E+02  0.15503952827E+01  0.24765756649E+02  0.00000000000E+00 0. -1.
        -12    1    6    6    0    0 -0.33192229856E+02 -0.71775637210E+02  0.19220639127E+03  0.20783830990E+03  0.00000000000E+00 0.  1.
</event>
<event>
12    1  0.8526130E-002  0.1971857E+03  0.7818608E-02  0.1152546E+00
         21   -1    0    0  503  502  0.00000000000E+00  0.00000000000E+00  0.20155954210E+04  0.20155954210E+04  0.00000000000E+00 0. -1.
         21   -1    0    0  501  503 -0.00000000000E+00 -0.00000000000E+00 -0.67151589427E+02  0.67151589427E+02  0.00000000000E+00 0. -1.
          6    2    1    2  501    0  0.46174355442E+02  0.79145737591E+02  0.92020839956E+02  0.21588104216E+03  0.17245483612E+03 0.  0.
         24    2    3    3    0    0  0.94089525189E+02  0.38758589878E+02  0.76427279641E+02  0.15113357646E+03  0.81517861968E+02 0.  0.
         -6    2    1    2    0  502 -0.46174355442E+02 -0.79145737591E+02  0.18564229916E+04  0.18668659682E+04  0.17460269406E+03 0.  0.
        -24    2    5    5    0    0 -0.88081562580E+02 -0.31675147022E+02  0.91091949130E+03  0.91923279551E+03  0.80330169398E+02 0.  0.
          5    1    3    3  501    0 -0.47915169747E+02  0.40387147713E+02  0.15593560315E+02  0.64747465708E+02  0.47000000000E+01 0. -1.
        -11    1    4    4    0    0  0.17635857018E+02 -0.14103511970E+02  0.49428581664E+02  0.54342590921E+02  0.00000000000E+00 0.  1.
         12    1    4    4    0    0  0.76453668171E+02  0.52862101848E+02  0.26998697976E+02  0.96790985536E+02  0.00000000000E+00 0. -1.
         -5    1    5    5    0  502  0.41907207138E+02 -0.47470590569E+02  0.94550350029E+03  0.94763317272E+03  0.47000000000E+01 0.  1.
         11    1    6    6    0    0 -0.26334860778E+02 -0.47442835573E+02  0.28843254579E+03  0.29349221627E+03  0.00000000000E+00 0. -1.
        -12    1    6    6    0    0 -0.61746701802E+02  0.15767688551E+02  0.62248694551E+03  0.62574057925E+03  0.00000000000E+00 0.  1.
</event>
<event>
12    1  0.8526130E-002  0.1798084E+03  0.7818608E-02  0.1168091E+00
         21   -1    0    0  501  502  0.00000000000E+00  0.00000000000E+00  0.71717169642E+02  0.71717169642E+02  0.00000000000E+00 0. -1.
         21   -1    0    0  502  503 -0.00000000000E+00 -0.00000000000E+00 -0.45949152338E+03  0.45949152338E+03  0.00000000000E+00 0. -1.
         -6    2    1    2    0  503  0.51888141995E+02 -0.20671396996E+01 -0.15500487054E+03  0.23707830280E+03  0.17170602617E+03 0.  0.
        -24    2    3    3    0    0  0.10068873369E+03 -0.82652384533E+01 -0.93717052034E+02  0.15834964934E+03  0.78007630055E+02 0.  0.
          6    2    1    2  501    0 -0.51888141995E+02  0.20671396996E+01 -0.23276948320E+03  0.29413039022E+03  0.17214645450E+03 0.  0.
         24    2    5    5    0    0 -0.62042885047E+02 -0.46740194788E+02 -0.88565070612E+02  0.14147955558E+03  0.78350032049E+02 0.  0.
          5    1    5    5  501    0  0.10154743052E+02  0.48807334488E+02 -0.14420441258E+03  0.15265083464E+03  0.47000000000E+01 0. -1.
        -11    1    6    6    0    0  0.62898333299E+01 -0.34110042951E+02 -0.89853328501E+01  0.35830060562E+02  0.00000000000E+00 0.  1.
         12    1    6    6    0    0 -0.68332718377E+02 -0.12630151837E+02 -0.79579737762E+02  0.10564949502E+03  0.00000000000E+00 0. -1.
         -5    1    3    3    0  503 -0.48800591695E+02  0.61980987537E+01 -0.61287818511E+02  0.78728653460E+02  0.47000000000E+01 0.  1.
         11    1    4    4    0    0 -0.11569057356E+02 -0.91694330399E+01 -0.16249205441E+02  0.21953547956E+02  0.00000000000E+00 0. -1.
        -12    1    4    4    0    0  0.11225779105E+03  0.90419458661E+00 -0.77467846592E+02  0.13639610139E+03  0.00000000000E+00 0.  1.
</event>
<event>
12    1  0.8526130E-002  0.1805143E+03  0.7818608E-02  0.1168060E+00
         21   -1    0    0  501  502  0.00000000000E+00  0.00000000000E+00  0.37399584702E+02  0.37399584702E+02  0.00000000000E+00 0.  1.
         21   -1    0    0  502  503 -0.00000000000E+00 -0.00000000000E+00 -0.14221886020E+04  0.14221886020E+04  0.00000000000E+00 0.  1.
         -6    2    1    2    0  503  0.28443493082E+02 -0.22425364062E+02 -0.11490873382E+04  0.11627031852E+04  0.17368090498E+03 0.  0.
        -24    2    3    3    0    0  0.40521118558E+02  0.15900730261E+02 -0.32027365796E+03  0.33290262776E+03  0.79712918094E+02 0.  0.
          6    2    1    2  501    0 -0.28443493082E+02  0.22425364062E+02 -0.23570167908E+03  0.29688500151E+03  0.17684313203E+03 0.  0.
         24    2    5    5    0    0  0.25005526449E+02  0.82989648243E+00 -0.22237750467E+03  0.23753194318E+03  0.79647375160E+02 0.  0.
          5    1    5    5  501    0 -0.53449019531E+02  0.21595467579E+02 -0.13324174414E+02  0.59353058325E+02  0.47000000000E+01 0. -1.
        -13    1    6    6    0    0  0.71215081479E+01 -0.32161289581E+02 -0.42443318236E+02  0.53726154606E+02  0.00000000000E+00 0.  1.
         14    1    6    6    0    0  0.17884018301E+02  0.32991186064E+02 -0.17993418643E+03  0.18380578858E+03  0.00000000000E+00 0. -1.
         -5    1    3    3    0  503 -0.12077625476E+02 -0.38326094323E+02 -0.82881368022E+03  0.82980055740E+03  0.47000000000E+01 0.  1.
         13    1    4    4    0    0  0.59251944715E+02 -0.85258663396E+01 -0.20138730801E+03  0.21009600467E+03  0.00000000000E+00 0. -1.
        -14    1    4    4    0    0 -0.18730826156E+02  0.24426596601E+02 -0.11888634995E+03  0.12280662309E+03  0.00000000000E+00 0.  1.
</event>
<event>
12    1  0.8526130E-002  0.2208107E+03  0.7818608E-02  0.1133455E+00
         21   -1    0    0  503  502  0.00000000000E+00  0.00000000000E+00  0.64855561493E+02  0.64855561493E+02  0.00000000000E+00 0. -1.
         21   -1    0    0  501  503 -0.00000000000E+00 -0.00000000000E+00 -0.80636880728E+03  0.80636880728E+03  0.00000000000E+00 0. -1.
          6    2    1    2  501    0 -0.11906379844E+03  0.70905344027E+02 -0.25488660101E+03  0.33723070780E+03  0.17191164882E+03 0.  0.
         24    2    3    3    0    0 -0.11377855660E+03  0.11092864435E+03 -0.22298869336E+03  0.28556481129E+03  0.81071449964E+02 0.  0.
         -6    2    1    2    0  502  0.11906379844E+03 -0.70905344027E+02 -0.48662664478E+03  0.53399366097E+03  0.17070437205E+03 0.  0.
        -24    2    5    5    0    0  0.66993388363E+02 -0.10873597587E+03 -0.29093719852E+03  0.32793800420E+03  0.81161903517E+02 0.  0.
          5    1    3    3  501    0 -0.52852418437E+01 -0.40023300328E+02 -0.31897907651E+02  0.51665896518E+02  0.47000000000E+01 0. -1.
        -13    1    4    4    0    0 -0.44474049305E+02  0.85663657540E+02 -0.82869997537E+02  0.12721493535E+03  0.00000000000E+00 0.  1.
         14    1    4    4    0    0 -0.69304507291E+02  0.25264986815E+02 -0.14011869582E+03  0.15834987593E+03  0.00000000000E+00 0. -1.
         -5    1    5    5    0  502  0.52070410077E+02  0.37830631841E+02 -0.19568944626E+03  0.20605565678E+03  0.47000000000E+01 0.  1.
         13    1    6    6    0    0  0.82121815697E+02 -0.10368699336E+03 -0.23385039178E+03  0.26866520233E+03  0.00000000000E+00 0. -1.
        -14    1    6    6    0    0 -0.15128427335E+02 -0.50489825070E+01 -0.57086806734E+02  0.59272801866E+02  0.00000000000E+00 0.  1.
</event>
<event>
12    1  0.8526130E-002  0.1986630E+03  0.7818608E-02  0.1150905E+00
         21   -1    0    0  501  502  0.00000000000E+00  0.00000000000E+00  0.21983450778E+03  0.21983450778E+03  0.00000000000E+00 0. -1.
         21   -1    0    0  502  503 -0.00000000000E+00 -0.00000000000E+00 -0.19597396968E+03  0.19597396968E+03  0.00000000000E+00 0.  1.
         -6    2    1    2    0  503 -0.28786925539E+01  0.96520570037E+02 -0.48544374339E+02  0.20450807442E+03  0.17361592356E+03 0.  0.
        -24    2    3    3    0    0 -0.49555419365E+02  0.37095885103E+02 -0.74855865780E+02  0.12435575326E+03  0.77647333809E+02 0.  0.
          6    2    1    2  501    0  0.28786925539E+01 -0.96520570037E+02  0.72404912448E+02  0.21130040304E+03  0.17343840886E+03 0.  0.
         24    2    5    5    0    0 -0.22063058058E+02  0.13410705882E+02  0.43893507847E+02  0.94930447547E+02  0.80115693078E+02 0.  0.
          5    1    5    5  501    0  0.24941750612E+02 -0.10993127592E+03  0.28511404601E+02  0.11636995549E+03  0.47000000000E+01 0. -1.
        -11    1    6    6    0    0  0.26697269989E+02 -0.11315475388E+02  0.10344952404E+02  0.30786397132E+02  0.00000000000E+00 0.  1.
         12    1    6    6    0    0 -0.48760328047E+02  0.24726181270E+02  0.33548555443E+02  0.64144050416E+02  0.00000000000E+00 0. -1.
         -5    1    3    3    0  503  0.46676726811E+02  0.59424684934E+02  0.26311491441E+02  0.80152321159E+02  0.47000000000E+01 0.  1.
         11    1    4    4    0    0 -0.37149887559E+02  0.38285660328E+02 -0.52068268755E+01  0.53600531513E+02  0.00000000000E+00 0. -1.
        -12    1    4    4    0    0 -0.12405531806E+02 -0.11897752244E+01 -0.69649038904E+02  0.70755221749E+02  0.00000000000E+00 0.  1.
</event>
<event>
12    1  0.8526130E-002  0.1902765E+03  0.7818608E-02  0.1159062E+00
         21   -1    0    0  501  502  0.00000000000E+00  0.00000000000E+00  0.73731419877E+03  0.73731419877E+03  0.00000000000E+00 0.  1.
         21   -1    0    0  502  503 -0.00000000000E+00 -0.00000000000E+00 -0.48229652177E+02  0.48229652177E+02  0.00000000000E+00 0. -1.
         -6    2    1    2    0  503 -0.21497236177E+02 -0.68796314467E+02  0.33145503626E+03  0.38218789547E+03  0.17609679818E+03 0.  0.
        -24    2    3    3    0    0  0.55453269338E+02 -0.23278636931E+02  0.19237196227E+03  0.21678103122E+03  0.79812803563E+02 0.  0.
          6    2    1    2  501    0  0.21497236177E+02  0.68796314467E+02  0.35762951033E+03  0.40335595548E+03  0.17205259695E+03 0.  0.
         24    2    5    5    0    0  0.18998474901E+01  0.10524724168E+03  0.32392701140E+03  0.34977726408E+03  0.79591673271E+02 0.  0.
          5    1    5    5  501    0  0.19597388687E+02 -0.36450927211E+02  0.33702498930E+02  0.53578691399E+02  0.47000000000E+01 0. -1.
        -11    1    6    6    0    0  0.47258094366E+01  0.43928738007E+02  0.24912819239E+03  0.25301565869E+03  0.00000000000E+00 0.  1.
         12    1    6    6    0    0 -0.28259619466E+01  0.61318503671E+02  0.74798819008E+02  0.96761605394E+02  0.00000000000E+00 0. -1.
         -5    1    3    3    0  503 -0.76950505515E+02 -0.45517677536E+02  0.13908307399E+03  0.16540686424E+03  0.47000000000E+01 0.  1.
         13    1    4    4    0    0  0.47979638260E+02 -0.22850187940E+02  0.46199824123E+02  0.70417331144E+02  0.00000000000E+00 0. -1.
        -14    1    4    4    0    0  0.74736310777E+01 -0.42844899127E+00  0.14617213815E+03  0.14636370008E+03  0.00000000000E+00 0.  1.
</event>
<event>
12    1  0.8526130E-002  0.1835498E+03  0.7818608E-02  0.1164705E+00
         21   -1    0    0  503  502  0.00000000000E+00  0.00000000000E+00  0.30297534455E+02  0.30297534455E+02  0.00000000000E+00 0. -1.
         21   -1    0    0  501  503 -0.00000000000E+00 -0.00000000000E+00 -0.12436145474E+04  0.12436145474E+04  0.00000000000E+00 0. -1.
          6    2    1    2  501    0 -0.60360531667E+02  0.74172348023E+01 -0.82154636109E+03  0.84180102228E+03  0.17318235632E+03 0.  0.
         24    2    3    3    0    0 -0.29375781881E+02  0.32310896217E+02 -0.21248588643E+03  0.23142695592E+03  0.80630350474E+02 0.  0.
         -6    2    1    2    0  502  0.60360531667E+02 -0.74172348023E+01 -0.39177065185E+03  0.43211105957E+03  0.17186423419E+03 0.  0.
        -24    2    5    5    0    0 -0.20101430417E+02  0.53823183575E+01 -0.29362650482E+03  0.30446968892E+03  0.77796081424E+02 0.  0.
          5    1    3    3  501    0 -0.30984749786E+02 -0.24893661414E+02 -0.60906047466E+03  0.61037406637E+03  0.47000000000E+01 0. -1.
        -13    1    4    4    0    0  0.14201482313E+02  0.37189927204E+02 -0.14930098339E+03  0.15451717195E+03  0.00000000000E+00 0.  1.
         14    1    4    4    0    0 -0.43577264194E+02 -0.48790309878E+01 -0.63184903035E+02  0.76909783965E+02  0.00000000000E+00 0. -1.
         -5    1    5    5    0  502  0.80461962084E+02 -0.12799553160E+02 -0.98144147029E+02  0.12764137064E+03  0.47000000000E+01 0.  1.
         13    1    6    6    0    0  0.27676835724E+02  0.13668706548E+02 -0.89906798287E+02  0.95058261885E+02  0.00000000000E+00 0. -1.
        -14    1    6    6    0    0 -0.47778266140E+02 -0.82863881901E+01 -0.20371970653E+03  0.20941142704E+03  0.00000000000E+00 0.  1.
</event>
<event>
12    1  0.8526130E-002  0.4924805E+03  0.7818608E-02  0.1015911E+00
         21   -1    0    0  503  502  0.00000000000E+00  0.00000000000E+00  0.82932423505E+03  0.82932423505E+03  0.00000000000E+00 0.  1.
         21   -1    0    0  501  503 -0.00000000000E+00 -0.00000000000E+00 -0.42403003579E+03  0.42403003579E+03  0.00000000000E+00 0. -1.
          6    2    1    2  501    0  0.43086516786E+03  0.15810604877E+03 -0.14789581176E+03  0.51420838020E+03  0.17859107370E+03 0.  0.
         24    2    3    3    0    0  0.26206091001E+03  0.21960062565E+02 -0.67303665142E+02  0.28280442361E+03  0.79312002706E+02 0.  0.
         -6    2    1    2    0  502 -0.43086516786E+03 -0.15810604877E+03  0.55319001102E+03  0.73914589063E+03  0.17226474919E+03 0.  0.
        -24    2    5    5    0    0 -0.27192232875E+03 -0.47618481462E+02  0.25848742716E+03  0.38652423565E+03  0.79849621720E+02 0.  0.
          5    1    3    3  501    0  0.16880425785E+03  0.13614598621E+03 -0.80592146617E+02  0.23140395659E+03  0.47000000000E+01 0. -1.
        -11    1    4    4    0    0  0.59324064679E+01  0.58304304809E+01 -0.20248421977E+02  0.21890316550E+02  0.00000000000E+00 0.  1.
         12    1    4    4    0    0  0.25612850354E+03  0.16129632084E+02 -0.47055243164E+02  0.26091410706E+03  0.00000000000E+00 0. -1.
         -5    1    5    5    0  502 -0.15894283910E+03 -0.11048756731E+03  0.29470258385E+03  0.35262165498E+03  0.47000000000E+01 0.  1.
         13    1    6    6    0    0 -0.22701955295E+03 -0.28259897739E+02  0.24624963886E+03  0.33611811002E+03  0.00000000000E+00 0. -1.
        -14    1    6    6    0    0 -0.44902775801E+02 -0.19358583723E+02  0.12237788305E+02  0.50406125630E+02  0.00000000000E+00 0.  1.
</event>
<event>
12    1  0.8526130E-002  0.2085452E+03  0.7818608E-02  0.1142829E+00
         21   -1    0    0  503  502  0.00000000000E+00  0.00000000000E+00  0.16571195895E+03  0.16571195895E+03  0.00000000000E+00 0. -1.
         21   -1    0    0  501  503 -0.00000000000E+00 -0.00000000000E+00 -0.26522888142E+03  0.26522888142E+03  0.00000000000E+00 0. -1.
          6    2    1    2  501    0 -0.10683844499E+03  0.49140091010E+02 -0.74248969644E+02  0.22087045929E+03  0.17158568827E+03 0.  0.
         24    2    3    3    0    0 -0.69898898862E+02  0.80501108904E+02 -0.34317380365E+00  0.13237074081E+03  0.78457699795E+02 0.  0.
         -6    2    1    2    0  502  0.10683844499E+03 -0.49140091010E+02 -0.25267952825E+02  0.21007038108E+03  0.17222628630E+03 0.  0.
        -24    2    5    5    0    0  0.21065857208E+02  0.17526339237E+02 -0.50679970368E+02  0.98404762497E+02  0.79775277991E+02 0.  0.
          5    1    3    3  501    0 -0.36939546131E+02 -0.31361017894E+02 -0.73905795841E+02  0.88499718477E+02  0.47000000000E+01 0. -1.
        -13    1    4    4    0    0  0.69147392482E+01  0.27903038685E+01 -0.20004325654E+02  0.21348828057E+02  0.00000000000E+00 0.  1.
         14    1    4    4    0    0 -0.76813638111E+02  0.77710805036E+02  0.19661151850E+02  0.11102191275E+03  0.00000000000E+00 0. -1.
         -5    1    5    5    0  502  0.85772587785E+02 -0.66666430247E+02  0.25412017543E+02  0.11166561858E+03  0.47000000000E+01 0.  1.
         13    1    6    6    0    0  0.16226854835E+02 -0.12234661542E+02  0.15579786403E+02  0.25607176831E+02  0.00000000000E+00 0. -1.
        -14    1    6    6    0    0  0.48390023734E+01  0.29761000779E+02 -0.66259756772E+02  0.72797585666E+02  0.00000000000E+00 0.  1.
</event>
<event>
12    1  0.8526130E-002  0.1823613E+03  0.7818608E-02  0.1166054E+00
         21   -1    0    0  503  502  0.00000000000E+00  0.00000000000E+00  0.36837928390E+03  0.36837928390E+03  0.00000000000E+00 0.  1.
         21   -1    0    0  501  503 -0.00000000000E+00 -0.00000000000E+00 -0.10747802780E+03  0.10747802780E+03  0.00000000000E+00 0.  1.
          6    2    1    2  501    0 -0.40119443285E+01  0.55771540568E+02  0.31717949028E+02  0.18297403172E+03  0.17130939133E+03 0.  0.
         24    2    3    3    0    0  0.49212358541E+02  0.75184728426E+02  0.39297612830E+02  0.12562213914E+03  0.78498534041E+02 0.  0.
         -6    2    1    2    0  502  0.40119443285E+01 -0.55771540568E+02  0.22918330707E+03  0.29288327999E+03  0.17357726529E+03 0.  0.
        -24    2    5    5    0    0  0.30830385942E+02 -0.15613564034E+02  0.23026822975E+03  0.24435330011E+03  0.74099808129E+02 0.  0.
          5    1    3    3  501    0 -0.53224302869E+02 -0.19413187858E+02 -0.75796638020E+01  0.57351892576E+02  0.47000000000E+01 0. -1.
        -13    1    4    4    0    0  0.49334365801E+02  0.75194454445E+02  0.36849298499E+01  0.90009245838E+02  0.00000000000E+00 0.  1.
         14    1    4    4    0    0 -0.12200726065E+00 -0.97260189678E-02  0.35612682980E+02  0.35612893303E+02  0.00000000000E+00 0. -1.
         -5    1    5    5    0  502 -0.26818441613E+02 -0.40157976534E+02 -0.10849226787E+01  0.48529979879E+02  0.47000000000E+01 0.  1.
         13    1    6    6    0    0  0.39533142267E+01  0.26015428446E+02  0.41093510857E+02  0.48796596656E+02  0.00000000000E+00 0. -1.
        -14    1    6    6    0    0  0.26877071715E+02 -0.41628992480E+02  0.18917471889E+03  0.19555670345E+03  0.00000000000E+00 0.  1.
</event>
<event>
12    1  0.8526130E-002  0.1906941E+03  0.7818608E-02  0.1157906E+00
         21   -1    0    0  501  502  0.00000000000E+00  0.00000000000E+00  0.15667554974E+03  0.15667554974E+03  0.00000000000E+00 0.  1.
         21   -1    0    0  502  503 -0.00000000000E+00 -0.00000000000E+00 -0.36425860209E+03  0.36425860209E+03  0.00000000000E+00 0. -1.
         -6    2    1    2    0  503 -0.78975077498E+02 -0.20829687869E+02 -0.26085000396E+03  0.32294023917E+03  0.17197887878E+03 0.  0.
        -24    2    3    3    0    0 -0.10888408372E+03  0.16773690845E+02 -0.15336508066E+03  0.20511128907E+03  0.80079289123E+02 0.  0.
          6    2    1    2  501    0  0.78975077498E+02  0.20829687869E+02  0.53266951611E+02  0.19799391265E+03  0.17231738900E+03 0.  0.
         24    2    5    5    0    0  0.86429197815E+02  0.58444993478E+02  0.79229949822E+02  0.15144670648E+03  0.75979579221E+02 0.  0.
          5    1    5    5  501    0 -0.74541203173E+01 -0.37615305609E+02 -0.25962998211E+02  0.46547206166E+02  0.47000000000E+01 0. -1.
        -11    1    6    6    0    0  0.35995549338E+02 -0.15654514592E+02  0.27875722044E+02  0.48143527901E+02  0.00000000000E+00 0.  1.
         12    1    6    6    0    0  0.50433648476E+02  0.74099508069E+02  0.51354227778E+02  0.10330317858E+03  0.00000000000E+00 0. -1.
         -5    1    3    3    0  503  0.29909006226E+02 -0.37603378713E+02 -0.10748492330E+03  0.11782895010E+03  0.47000000000E+01 0.  1.
         13    1    4    4    0    0 -0.98374538613E+02 -0.16554372833E+02 -0.12609678136E+03  0.16078555711E+03  0.00000000000E+00 0. -1.
        -14    1    4    4    0    0 -0.10509545111E+02  0.33328063678E+02 -0.27268299301E+02  0.44325731960E+02  0.00000000000E+00 0.  1.
</event>
<event>
12    1  0.8526130E-002  0.2041128E+03  0.7818608E-02  0.1146399E+00
         21   -1    0    0  501  502  0.00000000000E+00  0.00000000000E+00  0.50387055427E+02  0.50387055427E+02  0.00000000000E+00 0.  1.
         21   -1    0    0  502  503 -0.00000000000E+00 -0.00000000000E+00 -0.88578111519E+03  0.88578111519E+03  0.00000000000E+00 0. -1.
         -6    2    1    2    0  503  0.94706994226E+02  0.54635702661E+02 -0.29565726436E+03  0.35927047383E+03  0.17235887165E+03 0.  0.
        -24    2    3    3    0    0  0.65058277816E+02 -0.18581193511E+02 -0.77575573197E+02  0.12727591723E+03  0.74855522752E+02 0.  0.
          6    2    1    2  501    0 -0.94706994226E+02 -0.54635702661E+02 -0.53973679540E+03  0.57689769678E+03  0.17187399304E+03 0.  0.
         24    2    5    5    0    0 -0.17252742702E+02 -0.87299985820E+02 -0.32020806387E+03  0.34177842824E+03  0.79751772316E+02 0.  0.
          5    1    5    5  501    0 -0.77454251524E+02  0.32664283159E+02 -0.21952873153E+03  0.23511926855E+03  0.47000000000E+01 0. -1.
        -13    1    6    6    0    0 -0.16999828241E+02 -0.49727668548E+02 -0.63917423416E+02  0.82748245876E+02  0.00000000000E+00 0.  1.
         14    1    6    6    0    0 -0.25291446147E+00 -0.37572317272E+02 -0.25629064045E+03  0.25903018236E+03  0.00000000000E+00 0. -1.
         -5    1    3    3    0  503  0.29648716411E+02  0.73216896173E+02 -0.21808169116E+03  0.23199455660E+03  0.47000000000E+01 0.  1.
         11    1    4    4    0    0  0.35944319546E+02 -0.46558913987E+02 -0.57208724355E+02  0.82052207293E+02  0.00000000000E+00 0. -1.
        -12    1    4    4    0    0  0.29113958269E+02  0.27977720476E+02 -0.20366848842E+02  0.45223709942E+02  0.00000000000E+00 0.  1.
</event>
<event>
12    1  0.8526130E-002  0.1811710E+03  0.7818608E-02  0.1166985E+00
         21   -1    0    0  501  502  0.00000000000E+00  0.00000000000E+00  0.13981993228E+04  0.13981993228E+04  0.00000000000E+00 0. -1.
         21   -1    0    0  502  503 -0.00000000000E+00 -0.00000000000E+00 -0.52017969680E+02  0.52017969680E+02  0.00000000000E+00 0. -1.
         -6    2    1    2    0  503 -0.34184150027E+02 -0.46105047162E+02  0.12107034451E+04  0.12239935543E+04  0.17047919987E+03 0.  0.
        -24    2    3    3    0    0 -0.15905006621E+02  0.36490409278E+02  0.43708847679E+03  0.44575300945E+03  0.77877401643E+02 0.  0.
          6    2    1    2  501    0  0.34184150027E+02  0.46105047162E+02  0.13547790798E+03  0.22622373810E+03  0.17183912431E+03 0.  0.
         24    2    5    5    0    0  0.48962819270E+02 -0.17982683418E+02  0.13389206316E+03  0.16026730416E+03  0.70977388160E+02 0.  0.
          5    1    5    5  501    0 -0.14778669242E+02  0.64087730580E+02  0.15858448181E+01  0.65956433949E+02  0.47000000000E+01 0. -1.
        -13    1    6    6    0    0  0.56118223743E+02 -0.66064430817E+01  0.50451226964E+02  0.75751082029E+02  0.00000000000E+00 0.  1.
         14    1    6    6    0    0 -0.71554044738E+01 -0.11376240336E+02  0.83440836197E+02  0.84516222127E+02  0.00000000000E+00 0. -1.
         -5    1    3    3    0  503 -0.18279143407E+02 -0.82595456440E+02  0.77361496832E+03  0.77824054489E+03  0.47000000000E+01 0.  1.
         11    1    4    4    0    0  0.24877857661E+02  0.12910202448E+02  0.28890725913E+03  0.29026364827E+03  0.00000000000E+00 0. -1.
        -12    1    4    4    0    0 -0.40782864281E+02  0.23580206830E+02  0.14818121766E+03  0.15548936118E+03  0.00000000000E+00 0.  1.
</event>
<event>
12    1  0.8526130E-002  0.1938097E+03  0.7818608E-02  0.1155273E+00
         21   -1    0    0  503  502  0.00000000000E+00  0.00000000000E+00  0.16439635373E+03  0.16439635373E+03  0.00000000000E+00 0. -1.
         21   -1    0    0  501  503 -0.00000000000E+00 -0.00000000000E+00 -0.33671511640E+03  0.33671511640E+03  0.00000000000E+00 0.  1.
          6    2    1    2  501    0  0.32506216476E+02 -0.82439112236E+02 -0.22906119053E+03  0.30005203797E+03  0.17236396128E+03 0.  0.
         24    2    3    3    0    0 -0.28264163340E+02 -0.68939812950E+02 -0.20635157691E+03  0.23362097073E+03  0.80288379805E+02 0.  0.
         -6    2    1    2    0  502 -0.32506216476E+02  0.82439112236E+02  0.56742427852E+02  0.20105943216E+03  0.17132521941E+03 0.  0.
        -24    2    5    5    0    0 -0.74240547251E+02  0.92928048374E+02  0.20387708273E+02  0.14453043268E+03  0.79536823488E+02 0.  0.
          5    1    3    3  501    0  0.60770379816E+02 -0.13499299286E+02 -0.22709613617E+02  0.66431067241E+02  0.47000000000E+01 0. -1.
        -13    1    4    4    0    0 -0.16768750814E+02 -0.81695160826E+01 -0.14606681707E+03  0.14725300352E+03  0.00000000000E+00 0.  1.
         14    1    4    4    0    0 -0.11495412526E+02 -0.60770296867E+02 -0.60284759839E+02  0.86367967206E+02  0.00000000000E+00 0. -1.
         -5    1    5    5    0  502  0.41734330775E+02 -0.10488936138E+02  0.36354719578E+02  0.56528999480E+02  0.47000000000E+01 0.  1.
         13    1    6    6    0    0 -0.10662124852E+02  0.15633329481E+02  0.38427653818E+02  0.42834174149E+02  0.00000000000E+00 0. -1.
        -14    1    6    6    0    0 -0.63578422399E+02  0.77294718893E+02 -0.18039945545E+02  0.10169625853E+03  0.00000000000E+00 0.  1.
</event>
<event>
12    1  0.8526130E-002  0.2325447E+03  0.7818608E-02  0.1124960E+00
         21   -1    0    0  501  502  0.00000000000E+00  0.00000000000E+00  0.30386748834E+03  0.30386748834E+03  0.00000000000E+00 0.  1.
         21   -1    0    0  502  503 -0.00000000000E+00 -0.00000000000E+00 -0.43407297527E+03  0.43407297527E+03  0.00000000000E+00 0.  1.
         -6    2    1    2    0  503  0.15534784989E+03  0.11069015061E+02 -0.34879025385E+03  0.41920364796E+03  0.17268925770E+03 0.  0.
        -24    2    3    3    0    0  0.43364250431E+02 -0.34753814851E+02 -0.22868809998E+03  0.24865548569E+03  0.80268409923E+02 0.  0.
          6    2    1    2  501    0 -0.15534784989E+03 -0.11069015061E+02  0.21858476692E+03  0.31873681565E+03  0.17192550644E+03 0.  0.
         24    2    5    5    0    0 -0.74618280042E+02 -0.37778735511E+02  0.42068028344E+02  0.12274977116E+03  0.79389336421E+02 0.  0.
          5    1    5    5  501    0 -0.80729569844E+02  0.26709720449E+02  0.17651673857E+03  0.19598704450E+03  0.47000000000E+01 0. -1.
        -13    1    6    6    0    0 -0.51575048971E+02 -0.79135719413E+01  0.61224382685E+02  0.80442745680E+02  0.00000000000E+00 0.  1.
         14    1    6    6    0    0 -0.23043231071E+02 -0.29865163570E+02 -0.19156354341E+02  0.42307025479E+02  0.00000000000E+00 0. -1.
         -5    1    3    3    0  503  0.11198359946E+03  0.45822829912E+02 -0.12010215387E+03  0.17054816226E+03  0.47000000000E+01 0.  1.
         13    1    4    4    0    0  0.20431253052E+02 -0.49170773869E+02 -0.71489480098E+02  0.89140040772E+02  0.00000000000E+00 0. -1.
        -14    1    4    4    0    0  0.22932997379E+02  0.14416959019E+02 -0.15719861988E+03  0.15951544492E+03  0.00000000000E+00 0.  1.
</event>
<event>
12    1  0.8526130E-002  0.1931567E+03  0.7818608E-02  0.1155702E+00
         21   -1    0    0  501  502  0.00000000000E+00  0.00000000000E+00  0.95086179036E+02  0.95086179036E+02  0.00000000000E+00 0. -1.
         21   -1    0    0  502  503 -0.00000000000E+00 -0.00000000000E+00 -0.58001315795E+03  0.58001315795E+03  0.00000000000E+00 0. -1.
         -6    2    1    2    0  503 -0.55204580790E+02  0.68036656832E+02 -0.43461260343E+03  0.47549707485E+03  0.17185115862E+03 0.  0.
        -24    2    3    3    0    0 -0.40783309547E+02 -0.13565991348E+02 -0.11947963272E+03  0.14961696732E+03  0.79136210530E+02 0.  0.
          6    2    1    2  501    0  0.55204580790E+02 -0.68036656832E+02 -0.50314375484E+02  0.19960226213E+03  0.17214236624E+03 0.  0.
         24    2    5    5    0    0  0.10404591881E+03 -0.47781072960E+02 -0.25124415617E+02  0.14084522804E+03  0.78086860909E+02 0.  0.
          5    1    5    5  501    0 -0.48841338021E+02 -0.20255583872E+02 -0.25189959867E+02  0.58757034096E+02  0.47000000000E+01 0. -1.
        -11    1    6    6    0    0  0.92311335518E+02 -0.66852008239E+02 -0.30149282731E+02  0.11789636517E+03  0.00000000000E+00 0.  1.
         12    1    6    6    0    0  0.11734583293E+02  0.19070935279E+02  0.50248671145E+01  0.22948862870E+02  0.00000000000E+00 0. -1.
         -5    1    3    3    0  503 -0.14421271243E+02  0.81602648179E+02 -0.31513297071E+03  0.32588010752E+03  0.47000000000E+01 0.  1.
         11    1    4    4    0    0 -0.59804278507E+02 -0.23883131788E+02 -0.10628755149E+03  0.12427388831E+03  0.00000000000E+00 0. -1.
        -12    1    4    4    0    0  0.19020968960E+02  0.10317140440E+02 -0.13192081226E+02  0.25343079018E+02  0.00000000000E+00 0.  1.
</event>
<event>
12    1  0.8526130E-002  0.3510364E+03  0.7818608E-02  0.1062373E+00
         21   -1    0    0  503  502  0.00000000000E+00  0.00000000000E+00  0.29613922141E+03  0.29613922141E+03  0.00000000000E+00 0. -1.
         21   -1    0    0  501  503 -0.00000000000E+00 -0.00000000000E+00 -0.48183781058E+03  0.48183781058E+03  0.00000000000E+00 0.  1.
          6    2    1    2  501    0 -0.16382663342E+03 -0.25822642304E+03 -0.23859663391E+03  0.42297742198E+03  0.16870534792E+03 0.  0.
         24    2    3    3    0    0 -0.65884718674E+02 -0.43279325096E+02 -0.88831814227E+02  0.14325172635E+03  0.80100372963E+02 0.  0.
         -6    2    1    2    0  502  0.16382663342E+03  0.25822642304E+03  0.52898044732E+02  0.35499961000E+03  0.17235564565E+03 0.  0.
        -24    2    5    5    0    0  0.12011694309E+03  0.26860426839E+03  0.42329739964E+02  0.30860978603E+03  0.82896683474E+02 0.  0.
          5    1    3    3  501    0 -0.97941914751E+02 -0.21494709795E+03 -0.14976481968E+03  0.27972569563E+03  0.47000000000E+01 0. -1.
        -13    1    4    4    0    0 -0.54332911140E+02 -0.45960976157E+02 -0.20726953000E+02  0.74122082694E+02  0.00000000000E+00 0.  1.
         14    1    4    4    0    0 -0.11551807533E+02  0.26816510606E+01 -0.68104861227E+02  0.69129643659E+02  0.00000000000E+00 0. -1.
         -5    1    5    5    0  502  0.43709690333E+02 -0.10377845344E+02  0.10568304769E+02  0.46389823978E+02  0.47000000000E+01 0.  1.
         13    1    6    6    0    0  0.40282952082E+02  0.14584903446E+03  0.56453783705E+02  0.16149825626E+03  0.00000000000E+00 0. -1.
        -14    1    6    6    0    0  0.79833991009E+02  0.12275523393E+03 -0.14124043742E+02  0.14711152976E+03  0.00000000000E+00 0.  1.
</event>
<event>
12    1  0.8526130E-002  0.2573032E+03  0.7818608E-02  0.1109342E+00
         21   -1    0    0  503  502  0.00000000000E+00  0.00000000000E+00  0.18892262375E+03  0.18892262375E+03  0.00000000000E+00 0.  1.
         21   -1    0    0  501  503 -0.00000000000E+00 -0.00000000000E+00 -0.48521345124E+03  0.48521345124E+03  0.00000000000E+00 0.  1.
          6    2    1    2  501    0  0.15723881807E+03  0.99492467387E+02 -0.32830595010E+03  0.41484874973E+03  0.17231335210E+03 0.  0.
         24    2    3    3    0    0  0.14687038091E+03  0.13214108404E+03 -0.24116500511E+03  0.32109870466E+03  0.76887213247E+02 0.  0.
         -6    2    1    2    0  502 -0.15723881807E+03 -0.99492467387E+02  0.32015122609E+02  0.25928732526E+03  0.17771367980E+03 0.  0.
        -24    2    5    5    0    0 -0.73055997851E+02  0.18118165495E+02 -0.65511579320E+01  0.10952599453E+03  0.79294256190E+02 0.  0.
          5    1    3    3  501    0  0.10368437155E+02 -0.32648616654E+02 -0.87140944991E+02  0.93750045079E+02  0.47000000000E+01 0. -1.
        -11    1    4    4    0    0  0.66639991861E+02  0.10011987911E+03 -0.17473405002E+03  0.21212464955E+03  0.00000000000E+00 0.  1.
         12    1    4    4    0    0  0.80230389053E+02  0.32021204927E+02 -0.66430955085E+02  0.10897405511E+03  0.00000000000E+00 0. -1.
         -5    1    5    5    0  502 -0.84182820218E+02 -0.11761063288E+03  0.38566280541E+02  0.14976133073E+03  0.47000000000E+01 0.  1.
         11    1    6    6    0    0 -0.86373928440E+02  0.66828937755E+01 -0.18114843731E+02  0.88505729458E+02  0.00000000000E+00 0. -1.
        -12    1    6    6    0    0  0.13317930589E+02  0.11435271719E+02  0.11563685799E+02  0.21020265073E+02  0.00000000000E+00 0.  1.
</event>
<event>
12    1  0.8526130E-002  0.1861883E+03  0.7818608E-02  0.1162188E+00
         21   -1    0    0  503  502  0.00000000000E+00  0.00000000000E+00  0.59566147459E+02  0.59566147459E+02  0.00000000000E+00 0.  1.
         21   -1    0    0  501  503 -0.00000000000E+00 -0.00000000000E+00 -0.10235365271E+04  0.10235365271E+04  0.00000000000E+00 0.  1.
          6    2    1    2  501    0 -0.14547868143E+02  0.69659117029E+02 -0.83822852898E+03  0.85843162531E+03  0.17092031910E+03 0.  0.
         24    2    3    3    0    0 -0.26474556262E+02  0.99293858907E+02 -0.43282425506E+03  0.45174356410E+03  0.78582691435E+02 0.  0.
         -6    2    1    2    0  502  0.14547868143E+02 -0.69659117029E+02 -0.12574185070E+03  0.22467104929E+03  0.17205241736E+03 0.  0.
        -24    2    5    5    0    0  0.13509404951E+02 -0.10198083130E+03 -0.13802690539E+03  0.18975995953E+03  0.79842480255E+02 0.  0.
          5    1    3    3  501    0  0.11926688119E+02 -0.29634741878E+02 -0.40540427392E+03  0.40668806120E+03  0.47000000000E+01 0. -1.
        -13    1    4    4    0    0  0.76948053924E+01  0.71410906286E+02 -0.16005263312E+03  0.17542968088E+03  0.00000000000E+00 0.  1.
         14    1    4    4    0    0 -0.34169361654E+02  0.27882952622E+02 -0.27277162194E+03  0.27631388322E+03  0.00000000000E+00 0. -1.
         -5    1    5    5    0  502  0.10384631915E+01  0.32321714274E+02  0.12285054692E+02  0.34911089759E+02  0.47000000000E+01 0.  1.
         11    1    6    6    0    0  0.28325217263E+02 -0.17593339342E+02 -0.78910348355E+02  0.85666134497E+02  0.00000000000E+00 0. -1.
        -12    1    6    6    0    0 -0.14815812311E+02 -0.84387491960E+02 -0.59116557033E+02  0.10409382503E+03  0.00000000000E+00 0.  1.
</event>
<event>
12    1  0.8526130E-002  0.2286802E+03  0.7818608E-02  0.1127674E+00
         21   -1    0    0  501  502  0.00000000000E+00  0.00000000000E+00  0.15250442600E+03  0.15250442600E+03  0.00000000000E+00 0. -1.
         21   -1    0    0  502  503 -0.00000000000E+00 -0.00000000000E+00 -0.47912887130E+03  0.47912887130E+03  0.00000000000E+00 0.  1.
         -6    2    1    2    0  503  0.14101348181E+03 -0.51558888076E+02 -0.33209258502E+03  0.40288775850E+03  0.17172635188E+03 0.  0.
        -24    2    3    3    0    0  0.11121541564E+03 -0.90531018635E+02 -0.18059088970E+03  0.24357170346E+03  0.78417926983E+02 0.  0.
          6    2    1    2  501    0 -0.14101348181E+03  0.51558888076E+02  0.54681397237E+01  0.22874553880E+03  0.17248623127E+03 0.  0.
         24    2    5    5    0    0 -0.74937079877E+02  0.63623697639E+01  0.67458749242E+02  0.12738607043E+03  0.77591767607E+02 0.  0.
          5    1    5    5  501    0 -0.66076401933E+02  0.45196518312E+02 -0.61990609518E+02  0.10135946837E+03  0.47000000000E+01 0. -1.
        -13    1    6    6    0    0 -0.64615813988E+00  0.25104678937E+02  0.37470850379E+02  0.45107948889E+02  0.00000000000E+00 0.  1.
         14    1    6    6    0    0 -0.74290921737E+02 -0.18742309173E+02  0.29987898863E+02  0.82278121539E+02  0.00000000000E+00 0. -1.
         -5    1    3    3    0  503  0.29798066169E+02  0.38972130560E+02 -0.15150169532E+03  0.15931605504E+03  0.47000000000E+01 0.  1.
         13    1    4    4    0    0  0.48745261214E+01  0.15266764888E+01  0.72740712084E+01  0.88884114416E+01  0.00000000000E+00 0. -1.
        -14    1    4    4    0    0  0.10634088952E+03 -0.92057695124E+02 -0.18786496091E+03  0.23468329202E+03  0.00000000000E+00 0.  1.
</event>
<event>
12    1  0.8526130E-002  0.1868940E+03  0.7818608E-02  0.1161402E+00
         21   -1    0    0  501  502  0.00000000000E+00  0.00000000000E+00  0.20557797243E+03  0.20557797243E+03  0.00000000000E+00 0.  1.
         21   -1    0    0  502  503 -0.00000000000E+00 -0.00000000000E+00 -0.45563350591E+03  0.45563350591E+03  0.00000000000E+00 0.  1.
         -6    2    1    2    0  503 -0.64646851850E+02 -0.30471638161E+02 -0.38696971537E+03  0.42953309004E+03  0.17217833381E+03 0.  0.
        -24    2    3    3    0    0  0.27310650052E+00 -0.63092684550E+02 -0.14959370358E+03  0.18124254524E+03  0.80559435349E+02 0.  0.
          6    2    1    2  501    0  0.64646851850E+02  0.30471638161E+02  0.13691418190E+03  0.23167838830E+03  0.17268945021E+03 0.  0.
         24    2    5    5    0    0  0.67840882414E+02 -0.82142702012E+01  0.19144891343E+02  0.10758770720E+03  0.80862403595E+02 0.  0.
          5    1    5    5  501    0 -0.31940305640E+01  0.38685908362E+02  0.11776929055E+03  0.12409068110E+03  0.47000000000E+01 0. -1.
        -13    1    6    6    0    0  0.61361833228E+02 -0.35813980729E+02  0.30143900743E+02  0.77178821867E+02  0.00000000000E+00 0.  1.
         14    1    6    6    0    0  0.64790491859E+01  0.27599710528E+02 -0.10999009400E+02  0.30408885336E+02  0.00000000000E+00 0. -1.
         -5    1    3    3    0  503 -0.64919958350E+02  0.32621046389E+02 -0.23737601180E+03  0.24829054480E+03  0.47000000000E+01 0.  1.
         11    1    4    4    0    0  0.30406099426E+02 -0.27969924437E+01 -0.73482409155E+02  0.79573981327E+02  0.00000000000E+00 0. -1.
        -12    1    4    4    0    0 -0.30132992926E+02 -0.60295692106E+02 -0.76111294424E+02  0.10166856391E+03  0.00000000000E+00 0.  1.
</event>
<event>
12    1  0.8526130E-002  0.2102780E+03  0.7818608E-02  0.1142058E+00
         21   -1    0    0  503  502  0.00000000000E+00  0.00000000000E+00  0.99595452814E+03  0.99595452814E+03  0.00000000000E+00 0. -1.
         21   -1    0    0  501  503 -0.00000000000E+00 -0.00000000000E+00 -0.48348911053E+02  0.48348911053E+02  0.00000000000E+00 0.  1.
          6    2    1    2  501    0 -0.87879036461E+02 -0.77032192583E+02  0.30730067137E+03  0.37035443122E+03  0.17050518573E+03 0.  0.
         24    2    3    3    0    0 -0.83399377177E+02 -0.20042345134E+01  0.25211517571E+03  0.27699067610E+03  0.78754680845E+02 0.  0.
         -6    2    1    2    0  502  0.87879036461E+02  0.77032192583E+02  0.64030494571E+03  0.67394900797E+03  0.17481463923E+03 0.  0.
        -24    2    5    5    0    0  0.86122756117E+02 -0.77073748400E+01  0.46103695749E+03  0.47559835783E+03  0.78499611785E+02 0.  0.
          5    1    3    3  501    0 -0.44796592840E+01 -0.75027958070E+02  0.55185495665E+02  0.93363755126E+02  0.47000000000E+01 0. -1.
        -11    1    4    4    0    0 -0.37613470328E+02  0.12032244154E+02  0.29526932463E+02  0.49309104536E+02  0.00000000000E+00 0.  1.
         12    1    4    4    0    0 -0.45785906849E+02 -0.14036478667E+02  0.22258824324E+03  0.22768157156E+03  0.00000000000E+00 0. -1.
         -5    1    5    5    0  502  0.17562803448E+01  0.84739567423E+02  0.17926798822E+03  0.19835065013E+03  0.47000000000E+01 0.  1.
         13    1    6    6    0    0  0.57863398529E+02  0.49352240944E+01  0.42100866789E+03  0.42499509146E+03  0.00000000000E+00 0. -1.
        -14    1    6    6    0    0  0.28259357588E+02 -0.12642598934E+02  0.40028289605E+02  0.50603266374E+02  0.00000000000E+00 0.  1.
</event>
<event>
12    1  0.8526130E-002  0.2517226E+03  0.7818608E-02  0.1112313E+00
         21   -1    0    0  503  502  0.00000000000E+00  0.00000000000E+00  0.93534803666E+03  0.93534803666E+03  0.00000000000E+00 0.  1.
         21   -1    0    0  501  503 -0.00000000000E+00 -0.00000000000E+00 -0.17617098645E+03  0.17617098645E+03  0.00000000000E+00 0. -1.
          6    2    1    2  501    0 -0.16588248737E+03 -0.79618041673E+02 -0.56560831992E+02  0.25799881012E+03  0.17177958589E+03 0.  0.
         24    2    3    3    0    0 -0.31417221427E+02  0.84330614279E+01  0.95606112394E+00  0.87223555771E+02  0.80925127749E+02 0.  0.
         -6    2    1    2    0  502  0.16588248737E+03  0.79618041673E+02  0.81573788220E+03  0.85352021299E+03  0.17091643971E+03 0.  0.
        -24    2    5    5    0    0  0.16029570198E+03  0.96047722290E+02  0.80919503968E+03  0.83438790094E+03  0.80539927789E+02 0.  0.
          5    1    3    3  501    0 -0.13446526595E+03 -0.88051103101E+02 -0.57516893116E+02  0.17077525435E+03  0.47000000000E+01 0. -1.
        -13    1    4    4    0    0 -0.36984906351E+02  0.35868321055E+02  0.17851047800E+02  0.54525954009E+02  0.00000000000E+00 0.  1.
         14    1    4    4    0    0  0.55676849241E+01 -0.27435259627E+02 -0.16894986676E+02  0.32697601762E+02  0.00000000000E+00 0. -1.
         -5    1    5    5    0  502  0.55867853938E+01 -0.16429680617E+02  0.65428425160E+01  0.19132312050E+02  0.47000000000E+01 0.  1.
         11    1    6    6    0    0  0.14057845944E+03  0.10447855765E+03  0.62932979212E+03  0.65324884961E+03  0.00000000000E+00 0. -1.
        -12    1    6    6    0    0  0.19717242545E+02 -0.84308353617E+01  0.17986524756E+03  0.18113905134E+03  0.00000000000E+00 0.  1.
</event>
<event>
12    1  0.8526130E-002  0.1796847E+03  0.7818608E-02  0.1169014E+00
         21   -1    0    0  501  502  0.00000000000E+00  0.00000000000E+00  0.13417273379E+03  0.13417273379E+03  0.00000000000E+00 0. -1.
         21   -1    0    0  502  503 -0.00000000000E+00 -0.00000000000E+00 -0.31089680994E+03  0.31089680994E+03  0.00000000000E+00 0.  1.
         -6    2    1    2    0  503  0.10911054265E+02  0.32644929616E+02 -0.19848466515E+03  0.26773635086E+03  0.17635716242E+03 0.  0.
        -24    2    3    3    0    0  0.20862274079E+02  0.83578968784E+02 -0.17336585228E+03  0.20988872444E+03  0.81097961808E+02 0.  0.
          6    2    1    2  501    0 -0.10911054265E+02 -0.32644929616E+02  0.21760589007E+02  0.17733319287E+03  0.17259430907E+03 0.  0.
         24    2    5    5    0    0  0.51324916342E+02  0.16447907366E+02  0.58432549413E+01  0.96346316129E+02  0.79647274336E+02 0.  0.
          5    1    5    5  501    0 -0.62235970607E+02 -0.49092836982E+02  0.15917334066E+02  0.80986876740E+02  0.47000000000E+01 0. -1.
        -13    1    6    6    0    0  0.24036139942E+02 -0.21881308975E+02 -0.24198143540E+02  0.40522559847E+02  0.00000000000E+00 0.  1.
         14    1    6    6    0    0  0.27288776400E+02  0.38329216341E+02  0.30041398481E+02  0.55823756282E+02  0.00000000000E+00 0. -1.
         -5    1    3    3    0  503 -0.99512198136E+01 -0.50934039168E+02 -0.25118812874E+02  0.57847626416E+02  0.47000000000E+01 0.  1.
         11    1    4    4    0    0  0.43317721115E+02  0.36438929483E+02 -0.13079565477E+03  0.14251920520E+03  0.00000000000E+00 0. -1.
        -12    1    4    4    0    0 -0.22455447036E+02  0.47140039301E+02 -0.42570197507E+02  0.67369519241E+02  0.00000000000E+00 0.  1.
</event>
<event>
12    1  0.8526130E-002  0.1786610E+03  0.7818608E-02  0.1170314E+00
         21   -1    0    0  503  502  0.00000000000E+00  0.00000000000E+00  0.60077019797E+03  0.60077019797E+03  0.00000000000E+00 0.  1.
         21   -1    0    0  501  503 -0.00000000000E+00 -0.00000000000E+00 -0.10286711425E+03  0.10286711425E+03  0.00000000000E+00 0.  1.
          6    2    1    2  501    0  0.93154146908E+01 -0.45176578593E+02  0.25455218607E+01  0.17867911321E+03  0.17260372421E+03 0.  0.
         24    2    3    3    0    0 -0.44688722297E-01 -0.89059505600E+02 -0.30377956997E+02  0.12282780813E+03  0.78944617580E+02 0.  0.
         -6    2    1    2    0  502 -0.93154146908E+01  0.45176578593E+02  0.49535756186E+03  0.52495819902E+03  0.16755386126E+03 0.  0.
        -24    2    5    5    0    0 -0.44234603744E+02  0.82791200541E+02  0.35758357243E+03  0.37785968879E+03  0.78107938683E+02 0.  0.
          5    1    3    3  501    0  0.93601034131E+01  0.43882927007E+02  0.32923478858E+02  0.55851305076E+02  0.47000000000E+01 0. -1.
        -11    1    4    4    0    0  0.21590480879E+01  0.18724375160E+01 -0.31730666520E+02  0.31859107155E+02  0.00000000000E+00 0.  1.
         12    1    4    4    0    0 -0.22037368102E+01 -0.90931943116E+02  0.13527095228E+01  0.90968700979E+02  0.00000000000E+00 0. -1.
         -5    1    5    5    0  502  0.34919189053E+02 -0.37614621948E+02  0.13777398943E+03  0.14709851023E+03  0.47000000000E+01 0.  1.
         11    1    6    6    0    0  0.14449337536E+02  0.15736016220E+02  0.22075928699E+02  0.30720549956E+02  0.00000000000E+00 0. -1.
        -12    1    6    6    0    0 -0.58683941280E+02  0.67055184321E+02  0.33550764373E+03  0.34713913883E+03  0.00000000000E+00 0.  1.
</event>
<event>
12    1  0.8526130E-002  0.1963248E+03  0.7818608E-02  0.1153159E+00
         21   -1    0    0  501  502  0.00000000000E+00  0.00000000000E+00  0.21280801787E+03  0.21280801787E+03  0.00000000000E+00 0.  1.
         21   -1    0    0  502  503 -0.00000000000E+00 -0.00000000000E+00 -0.18005444205E+03  0.18005444205E+03  0.00000000000E+00 0.  1.
         -6    2    1    2    0  503  0.65157221164E+02 -0.63825574361E+02  0.21790513443E+02  0.19753041697E+03  0.17385129202E+03 0.  0.
        -24    2    3    3    0    0 -0.23316445813E+02 -0.19433407920E+02  0.44871413111E+02  0.95780369696E+02  0.78988109965E+02 0.  0.
          6    2    1    2  501    0 -0.65157221164E+02  0.63825574361E+02  0.10963062375E+02  0.19533204295E+03  0.17238112093E+03 0.  0.
         24    2    5    5    0    0 -0.10694465837E+03  0.22499594835E+02  0.28135410610E+01  0.13581287638E+03  0.80584301552E+02 0.  0.
          5    1    5    5  501    0  0.41787437201E+02  0.41325979526E+02  0.81495213144E+01  0.59519166571E+02  0.47000000000E+01 0. -1.
        -11    1    6    6    0    0 -0.60899944440E+01  0.14954513047E+02  0.27333381432E+02  0.31746483794E+02  0.00000000000E+00 0.  1.
         12    1    6    6    0    0 -0.10085466392E+03  0.75450817877E+01 -0.24519840371E+02  0.10406639258E+03  0.00000000000E+00 0. -1.
         -5    1    3    3    0  503  0.88473666977E+02 -0.44392166441E+02 -0.23080899668E+02  0.10175004727E+03  0.47000000000E+01 0.  1.
         13    1    4    4    0    0 -0.27565141020E+02 -0.39850987035E+02  0.24589870741E+01  0.48517881080E+02  0.00000000000E+00 0. -1.
        -14    1    4    4    0    0  0.42486952065E+01  0.20417579115E+02  0.42412426037E+02  0.47262488616E+02  0.00000000000E+00 0.  1.
</event>
<event>
12    1  0.8526130E-002  0.2202165E+03  0.7818608E-02  0.1133934E+00
         21   -1    0    0  501  502  0.00000000000E+00  0.00000000000E+00  0.21736870219E+03  0.21736870219E+03  0.00000000000E+00 0. -1.
         21   -1    0    0  502  503 -0.00000000000E+00 -0.00000000000E+00 -0.34350760027E+03  0.34350760027E+03  0.00000000000E+00 0.  1.
         -6    2    1    2    0  503 -0.13615454736E+03  0.73417930491E+01 -0.22999910782E+03  0.31842564852E+03  0.17292582614E+03 0.  0.
        -24    2    3    3    0    0 -0.54030099253E+01  0.66637785051E+01 -0.13416604193E+03  0.15624522194E+03  0.79614346154E+02 0.  0.
          6    2    1    2  501    0  0.13615454736E+03 -0.73417930491E+01  0.10386020973E+03  0.24245065394E+03  0.17147423636E+03 0.  0.
         24    2    5    5    0    0  0.73743791284E+02 -0.42371628479E+02  0.21933965943E+01  0.11803030698E+03  0.81809783786E+02 0.  0.
          5    1    5    5  501    0  0.62410756079E+02  0.35029835430E+02  0.10166681314E+03  0.12442034696E+03  0.47000000000E+01 0. -1.
        -11    1    6    6    0    0  0.19178301578E+02 -0.57629962208E+02  0.71426510542E+01  0.61155844035E+02  0.00000000000E+00 0.  1.
         12    1    6    6    0    0  0.54565489706E+02  0.15258333729E+02 -0.49492544599E+01  0.56874462940E+02  0.00000000000E+00 0. -1.
         -5    1    3    3    0  503 -0.13075153744E+03  0.67801454397E+00 -0.95833065889E+02  0.16218042657E+03  0.47000000000E+01 0.  1.
         13    1    4    4    0    0  0.10454752055E+02  0.40141955929E+02 -0.86002266251E+02  0.95483340257E+02  0.00000000000E+00 0. -1.
        -14    1    4    4    0    0 -0.15857761981E+02 -0.33478177424E+02 -0.48163775676E+02  0.60761881686E+02  0.00000000000E+00 0.  1.
</event>
<event>
12    1  0.8526130E-002  0.2228003E+03  0.7818608E-02  0.1132094E+00
         21   -1    0    0  501  502  0.00000000000E+00  0.00000000000E+00  0.77511163161E+02  0.77511163161E+02  0.00000000000E+00 0.  1.
         21   -1    0    0  502  503 -0.00000000000E+00 -0.00000000000E+00 -0.15747182110E+04  0.15747182110E+04  0.00000000000E+00 0. -1.
         -6    2    1    2    0  503 -0.14134784928E+03 -0.32633381259E+01 -0.13874648506E+04  0.14052397309E+04  0.17219211895E+03 0.  0.
        -24    2    3    3    0    0 -0.76309751044E+02  0.27826174557E+02 -0.11800662649E+04  0.11856201157E+04  0.80877655765E+02 0.  0.
          6    2    1    2  501    0  0.14134784928E+03  0.32633381259E+01 -0.10974219724E+03  0.24698964325E+03  0.17020772645E+03 0.  0.
         24    2    5    5    0    0  0.48504759707E+02  0.43760493026E+02 -0.10131037706E+03  0.14523973205E+03  0.81012929853E+02 0.  0.
          5    1    5    5  501    0  0.92843089570E+02 -0.40497154900E+02 -0.84318201831E+01  0.10174991119E+03  0.47000000000E+01 0. -1.
        -13    1    6    6    0    0  0.62531743845E+02  0.30769099906E+02 -0.38574339850E+02  0.79655107759E+02  0.00000000000E+00 0.  1.
         14    1    6    6    0    0 -0.14026984138E+02  0.12991393120E+02 -0.62736037209E+02  0.65584624295E+02  0.00000000000E+00 0. -1.
         -5    1    3    3    0  503 -0.65038098232E+02 -0.31089512683E+02 -0.20739858575E+03  0.21961961522E+03  0.47000000000E+01 0.  1.
         11    1    4    4    0    0 -0.59617411867E+02  0.11960614205E+02 -0.35056673019E+03  0.35580096178E+03  0.00000000000E+00 0. -1.
        -12    1    4    4    0    0 -0.16692339178E+02  0.15865560351E+02 -0.82949953470E+03  0.82981915395E+03  0.00000000000E+00 0.  1.
</event>
<event>
12    1  0.8526130E-002  0.1807736E+03  0.7818608E-02  0.1167253E+00
         21   -1    0    0  501  502  0.00000000000E+00  0.00000000000E+00  0.40244245479E+02  0.40244245479E+02  0.00000000000E+00 0.  1.
         21   -1    0    0  502  503 -0.00000000000E+00 -0.00000000000E+00 -0.81058871078E+03  0.81058871078E+03  0.00000000000E+00 0.  1.
         -6    2    1    2    0  503  0.54235145809E+02  0.18517403950E+02 -0.40656645662E+03  0.44461436358E+03  0.17059104126E+03 0.  0.
        -24    2    3    3    0    0 -0.19845459939E+02  0.51708339255E+02 -0.19613028991E+03  0.21901506261E+03  0.80205438739E+02 0.  0.
          6    2    1    2  501    0 -0.54235145809E+02 -0.18517403950E+02 -0.36377800868E+03  0.40621859268E+03  0.17144900161E+03 0.  0.
         24    2    5    5    0    0  0.59754011047E+01  0.35699985081E+02 -0.11529198325E+03  0.14481425058E+03  0.79804332074E+02 0.  0.
          5    1    5    5  501    0 -0.60210546913E+02 -0.54217389031E+02 -0.24848602543E+03  0.26140434210E+03  0.47000000000E+01 0. -1.
        -11    1    6    6    0    0 -0.29882012309E+02  0.16279830090E+02 -0.91452898053E+02  0.97578686657E+02  0.00000000000E+00 0.  1.
         12    1    6    6    0    0  0.35857413413E+02  0.19420154990E+02 -0.23839085194E+02  0.47235563926E+02  0.00000000000E+00 0. -1.
         -5    1    3    3    0  503  0.74080605748E+02 -0.33190935305E+02 -0.21043616671E+03  0.22559930096E+03  0.47000000000E+01 0.  1.
         13    1    4    4    0    0 -0.68821498722E+01  0.48684729033E+02 -0.19934655038E+03  0.20532075876E+03  0.00000000000E+00 0. -1.
        -14    1    4    4    0    0 -0.12963310067E+02  0.30236102219E+01  0.32162604726E+01  0.13694303856E+02  0.00000000000E+00 0.  1.
</event>
<event>
12    1  0.8526130E-002  0.2183243E+03  0.7818608E-02  0.1135332E+00
         21   -1    0    0  503  502  0.00000000000E+00  0.00000000000E+00  0.32466354424E+03  0.32466354424E+03  0.00000000000E+00 0.  1.
         21   -1    0    0  501  503 -0.00000000000E+00 -0.00000000000E+00 -0.22239396996E+03  0.22239396996E+03  0.00000000000E+00 0.  1.
          6    2    1    2  501    0  0.10280642193E+02 -0.13292792938E+03  0.21139572855E+03  0.30389741265E+03  0.17288712316E+03 0.  0.
         24    2    3    3    0    0 -0.38462096700E+02 -0.36314328881E+02  0.15341681487E+03  0.18104104600E+03  0.80256326142E+02 0.  0.
         -6    2    1    2    0  502 -0.10280642193E+02  0.13292792938E+03 -0.10912615427E+03  0.24316010155E+03  0.17158901897E+03 0.  0.
        -24    2    5    5    0    0  0.54255618381E+02  0.42894649186E+02 -0.43232546975E+02  0.11418344493E+03  0.79907339615E+02 0.  0.
          5    1    3    3  501    0  0.48742738893E+02 -0.96613600496E+02  0.57978913677E+02  0.12285636665E+03  0.47000000000E+01 0. -1.
        -13    1    4    4    0    0 -0.28442584833E+02 -0.32866336448E+02  0.21126549033E+02  0.48327091548E+02  0.00000000000E+00 0.  1.
         14    1    4    4    0    0 -0.10019511867E+02 -0.34479924338E+01  0.13229026584E+03  0.13271395445E+03  0.00000000000E+00 0. -1.
         -5    1    5    5    0  502 -0.64536260574E+02  0.90033280191E+02 -0.65893607294E+02  0.12897665662E+03  0.47000000000E+01 0.  1.
         11    1    6    6    0    0 -0.51150965938E+01 -0.18728368654E+02 -0.30658015309E+01  0.19654901288E+02  0.00000000000E+00 0. -1.
        -12    1    6    6    0    0  0.59370714974E+02  0.61623017840E+02 -0.40166745444E+02  0.94528543646E+02  0.00000000000E+00 0.  1.
</event>
<event>
12    1  0.8526130E-002  0.1900649E+03  0.7818608E-02  0.1158551E+00
         21   -1    0    0  503  502  0.00000000000E+00  0.00000000000E+00  0.48020137687E+03  0.48020137687E+03  0.00000000000E+00 0.  1.
         21   -1    0    0  501  503 -0.00000000000E+00 -0.00000000000E+00 -0.39387535208E+03  0.39387535208E+03  0.00000000000E+00 0.  1.
          6    2    1    2  501    0  0.54053163135E+02 -0.58882678511E+02 -0.35007592353E+03  0.39834382679E+03  0.17244053418E+03 0.  0.
         24    2    3    3    0    0  0.18698529279E+02  0.22695918172E+02 -0.91090762681E+02  0.12448177919E+03  0.79582954241E+02 0.  0.
         -6    2    1    2    0  502 -0.54053163135E+02  0.58882678511E+02  0.43640194833E+03  0.47573290216E+03  0.17171551887E+03 0.  0.
        -24    2    5    5    0    0 -0.97614794969E+02  0.46728302548E+02  0.24168746024E+03  0.27577999147E+03  0.77003849264E+02 0.  0.
          5    1    3    3  501    0  0.35354633856E+02 -0.81578596682E+02 -0.25898516085E+03  0.27386204760E+03  0.47000000000E+01 0. -1.
        -11    1    4    4    0    0  0.44758258608E+02  0.32543912670E+02 -0.71549957236E+02  0.90453326893E+02  0.00000000000E+00 0.  1.
         12    1    4    4    0    0 -0.26059729329E+02 -0.98479944986E+01 -0.19540805444E+02  0.34028452297E+02  0.00000000000E+00 0. -1.
         -5    1    5    5    0  502  0.43561631834E+02  0.12154375963E+02  0.19471448809E+03  0.19995291070E+03  0.47000000000E+01 0.  1.
         13    1    6    6    0    0  0.24248785595E+00 -0.15759475353E+02  0.19394081227E+02  0.24991003390E+02  0.00000000000E+00 0. -1.
        -14    1    6    6    0    0 -0.97857282825E+02  0.62487777901E+02  0.22229337901E+03  0.25078898808E+03  0.00000000000E+00 0.  1.
</event>
<event>
12    1  0.8526130E-002  0.2001861E+03  0.7818608E-02  0.1150757E+00
         21   -1    0    0  503  502  0.00000000000E+00  0.00000000000E+00  0.14335050581E+03  0.14335050581E+03  0.00000000000E+00 0.  1.
         21   -1    0    0  501  503 -0.00000000000E+00 -0.00000000000E+00 -0.32641545344E+03  0.32641545344E+03  0.00000000000E+00 0.  1.
          6    2    1    2  501    0 -0.88818012484E+02  0.38468548162E+02 -0.18854602700E+03  0.27499834683E+03  0.17523132687E+03 0.  0.
         24    2    3    3    0    0 -0.10244671269E+03  0.10108706696E+02 -0.20384672838E+03  0.23969645538E+03  0.72824358288E+02 0.  0.
         -6    2    1    2    0  502  0.88818012484E+02 -0.38468548162E+02  0.54810793739E+01  0.19476761242E+03  0.16892575907E+03 0.  0.
        -24    2    5    5    0    0  0.25712275875E+01 -0.50183187995E+02 -0.32083517644E+02  0.99852230949E+02  0.80100888587E+02 0.  0.
          5    1    3    3  501    0  0.13628700202E+02  0.28359841466E+02  0.15300701372E+02  0.35301891446E+02  0.47000000000E+01 0. -1.
        -11    1    4    4    0    0 -0.90605164139E+02  0.15459609349E+02 -0.10313107064E+03  0.13814598445E+03  0.00000000000E+00 0.  1.
         12    1    4    4    0    0 -0.11841548548E+02 -0.53509026528E+01 -0.10071565774E+03  0.10155047093E+03  0.00000000000E+00 0. -1.
         -5    1    5    5    0  502  0.86246784897E+02  0.11714639833E+02  0.37564597018E+02  0.94915381475E+02  0.47000000000E+01 0.  1.
         11    1    6    6    0    0 -0.22988099799E+02  0.10797896052E+02  0.19762419953E+01  0.25474552478E+02  0.00000000000E+00 0. -1.
        -12    1    6    6    0    0  0.25559327386E+02 -0.60981084047E+02 -0.34059759640E+02  0.74377678471E+02  0.00000000000E+00 0.  1.
</event>
<event>
12    1  0.8526130E-002  0.1907351E+03  0.7818608E-02  0.1157841E+00
         21   -1    0    0  501  502  0.00000000000E+00  0.00000000000E+00  0.14364889331E+03  0.14364889331E+03  0.00000000000E+00 0. -1.
         21   -1    0    0  502  503 -0.00000000000E+00 -0.00000000000E+00 -0.85643242455E+03  0.85643242455E+03  0.00000000000E+00 0. -1.
         -6    2    1    2    0  503  0.43742941668E+02 -0.68126655494E+02 -0.77617189994E+03  0.79926383493E+03  0.17269966253E+03 0.  0.
        -24    2    3    3    0    0 -0.39627041339E+02 -0.59706201828E+01 -0.39441283442E+03  0.40356698013E+03  0.75490878825E+02 0.  0.
          6    2    1    2  501    0 -0.43742941668E+02  0.68126655494E+02  0.63388368694E+02  0.20081748293E+03  0.17249605802E+03 0.  0.
         24    2    5    5    0    0 -0.54996420825E+02  0.92650840619E+02  0.18319500596E+01  0.13344271670E+03  0.78707166315E+02 0.  0.
          5    1    5    5  501    0  0.11253479157E+02 -0.24524185125E+02  0.61556418635E+02  0.67374766228E+02  0.47000000000E+01 0. -1.
        -11    1    6    6    0    0 -0.31141590887E+02 -0.44225761030E+01 -0.94590255833E+01  0.32845563283E+02  0.00000000000E+00 0.  1.
         12    1    6    6    0    0 -0.23854829938E+02  0.97073416722E+02  0.11290975643E+02  0.10059715342E+03  0.00000000000E+00 0. -1.
         -5    1    3    3    0  503  0.83369983006E+02 -0.62156035311E+02 -0.38175906552E+03  0.39569685480E+03  0.47000000000E+01 0.  1.
         11    1    4    4    0    0 -0.37235519153E+01  0.23767100025E+02 -0.26359344596E+03  0.26468895828E+03  0.00000000000E+00 0. -1.
        -12    1    4    4    0    0 -0.35903489423E+02 -0.29737720208E+02 -0.13081938846E+03  0.13887802185E+03  0.00000000000E+00 0.  1.
</event>
<event>
12    1  0.8526130E-002  0.1900111E+03  0.7818608E-02  0.1158588E+00
         21   -1    0    0  503  502  0.00000000000E+00  0.00000000000E+00  0.81095217931E+03  0.81095217931E+03  0.00000000000E+00 0.  1.
         21   -1    0    0  501  503 -0.00000000000E+00 -0.00000000000E+00 -0.68998307944E+02  0.68998307944E+02  0.00000000000E+00 0.  1.
          6    2    1    2  501    0  0.11002886024E+01  0.81188009772E+02  0.10778512254E+03  0.21792764875E+03  0.17112020303E+03 0.  0.
         24    2    3    3    0    0 -0.50075427597E+02  0.11872059244E+01  0.46767675962E+02  0.10494844124E+03  0.79485859724E+02 0.  0.
         -6    2    1    2    0  502 -0.11002886024E+01 -0.81188009772E+02  0.63416874883E+03  0.66202283850E+03  0.17178921136E+03 0.  0.
        -24    2    5    5    0    0  0.14202575189E+02  0.31316569354E+02  0.11562439590E+03  0.13117277123E+03  0.51525278527E+02 0.  0.
          5    1    3    3  501    0  0.51175716199E+02  0.80000803848E+02  0.61017446578E+02  0.11297920752E+03  0.47000000000E+01 0. -1.
        -11    1    4    4    0    0  0.15455282359E+02 -0.11336701963E+02 -0.57831315224E+01  0.20020768577E+02  0.00000000000E+00 0.  1.
         12    1    4    4    0    0 -0.65530709956E+02  0.12523907887E+02  0.52550807484E+02  0.84927672659E+02  0.00000000000E+00 0. -1.
         -5    1    5    5    0  502 -0.15302863791E+02 -0.11250457913E+03  0.51854435293E+03  0.53085006727E+03  0.47000000000E+01 0.  1.
         11    1    6    6    0    0 -0.51949513511E+01  0.25225703987E+02  0.17921296693E+02  0.31376687785E+02  0.00000000000E+00 0. -1.
        -12    1    6    6    0    0  0.19397526540E+02  0.60908653671E+01  0.97703099203E+02  0.99796083443E+02  0.00000000000E+00 0.  1.
</event>
<event>
12    1  0.8526130E-002  0.3004757E+03  0.7818608E-02  0.1085117E+00
         21   -1    0    0  501  502  0.00000000000E+00  0.00000000000E+00  0.46372727594E+03  0.46372727594E+03  0.00000000000E+00 0. -1.
         21   -1    0    0  502  503 -0.00000000000E+00 -0.00000000000E+00 -0.20412222601E+03  0.20412222601E+03  0.00000000000E+00 0. -1.
         -6    2    1    2    0  503  0.94767039479E+02 -0.22601896794E+03  0.55645046338E+02  0.30468930711E+03  0.17226095624E+03 0.  0.
        -24    2    3    3    0    0  0.11601451964E+03 -0.23247639481E+03  0.34764053283E+02  0.27384680970E+03  0.79239465367E+02 0.  0.
          6    2    1    2  501    0 -0.94767039479E+02  0.22601896794E+03  0.20396000359E+03  0.36316019484E+03  0.17383980675E+03 0.  0.
         24    2    5    5    0    0 -0.84844739379E+01  0.18184655559E+03  0.10843187996E+03  0.22698532368E+03  0.81392312289E+02 0.  0.
          5    1    5    5  501    0 -0.86282565541E+02  0.44172412351E+02  0.95528123632E+02  0.13617487115E+03  0.47000000000E+01 0. -1.
        -11    1    6    6    0    0 -0.38650813240E+02  0.69303665823E+02  0.65216390885E+02  0.10271349035E+03  0.00000000000E+00 0.  1.
         12    1    6    6    0    0  0.30166339302E+02  0.11254288976E+03  0.43215489072E+02  0.12427183333E+03  0.00000000000E+00 0. -1.
         -5    1    3    3    0  503 -0.21247480160E+02  0.64574268763E+01  0.20880993055E+02  0.30842497402E+02  0.47000000000E+01 0.  1.
         11    1    4    4    0    0  0.18103494003E+01 -0.18102356384E+02 -0.17662991563E+02  0.25356536486E+02  0.00000000000E+00 0. -1.
        -12    1    4    4    0    0  0.11420417024E+03 -0.21437403843E+03  0.52427044846E+02  0.24849027322E+03  0.00000000000E+00 0.  1.
</event>
<event>
12    1  0.8526130E-002  0.1894324E+03  0.7818608E-02  0.1160388E+00
         21   -1    0    0  503  502  0.00000000000E+00  0.00000000000E+00  0.49996690537E+03  0.49996690537E+03  0.00000000000E+00 0. -1.
         21   -1    0    0  501  503 -0.00000000000E+00 -0.00000000000E+00 -0.70341932490E+02  0.70341932490E+02  0.00000000000E+00 0. -1.
          6    2    1    2  501    0  0.38943681848E+02  0.68393987750E+02  0.18653701222E+03  0.26585839445E+03  0.17230867957E+03 0.  0.
         24    2    3    3    0    0 -0.18922698144E+02  0.61215959159E+02  0.43030822769E+02  0.11088691824E+03  0.79616548332E+02 0.  0.
         -6    2    1    2    0  502 -0.38943681848E+02 -0.68393987750E+02  0.24308796066E+03  0.30445044341E+03  0.16554143879E+03 0.  0.
        -24    2    5    5    0    0 -0.23388034307E+02  0.16671453961E+02  0.64265272854E+02  0.10576035503E+03  0.78932185298E+02 0.  0.
          5    1    3    3  501    0  0.57866379992E+02  0.71780285910E+01  0.14350618945E+03  0.15497147621E+03  0.47000000000E+01 0. -1.
        -13    1    4    4    0    0  0.14328990415E+02 -0.12350968069E+02 -0.96989319648E+00  0.18942203445E+02  0.00000000000E+00 0.  1.
         14    1    4    4    0    0 -0.33251688558E+02  0.73566927228E+02  0.44000715965E+02  0.91944714798E+02  0.00000000000E+00 0. -1.
         -5    1    5    5    0  502 -0.15555647541E+02 -0.85065441712E+02  0.17882268781E+03  0.19869008838E+03  0.47000000000E+01 0.  1.
         11    1    6    6    0    0  0.45974830325E+01  0.14671831391E+02 -0.15119229031E+02  0.21563640071E+02  0.00000000000E+00 0. -1.
        -12    1    6    6    0    0 -0.27985517339E+02  0.19996225702E+01  0.79384501884E+02  0.84196714963E+02  0.00000000000E+00 0.  1.
</event>
<event>
12    1  0.8526130E-002  0.1939293E+03  0.7818608E-02  0.1157303E+00
         21   -1    0    0  501  502  0.00000000000E+00  0.00000000000E+00  0.20076868581E+03  0.20076868581E+03  0.00000000000E+00 0.  1.
         21   -1    0    0  502  503 -0.00000000000E+00 -0.00000000000E+00 -0.22446197132E+03  0.22446197132E+03  0.00000000000E+00 0.  1.
         -6    2    1    2    0  503  0.71430037992E+02 -0.53274248547E+02  0.85157034486E+02  0.21180251543E+03  0.17224456199E+03 0.  0.
        -24    2    3    3    0    0  0.84686843491E+00 -0.65239696463E+02  0.34365249081E+01  0.10305745828E+03  0.79700030260E+02 0.  0.
          6    2    1    2  501    0 -0.71430037992E+02  0.53274248547E+02 -0.10885032000E+03  0.21342814169E+03  0.16050789269E+03 0.  0.
         24    2    5    5    0    0 -0.20443656979E+02  0.47489965803E+02 -0.53967107959E+01  0.97852157021E+02  0.82901629560E+02 0.  0.
          5    1    5    5  501    0 -0.50986381014E+02  0.57842827443E+01 -0.10345360920E+03  0.11557598467E+03  0.47000000000E+01 0. -1.
        -11    1    6    6    0    0 -0.26333612373E+02  0.14244577353E+02 -0.39697764708E+02  0.49722023766E+02  0.00000000000E+00 0.  1.
         12    1    6    6    0    0  0.58899553940E+01  0.33245388450E+02  0.34301053912E+02  0.48130133256E+02  0.00000000000E+00 0. -1.
         -5    1    3    3    0  503  0.70583169558E+02  0.11965447916E+02  0.81720509578E+02  0.10874505715E+03  0.47000000000E+01 0.  1.
         11    1    4    4    0    0  0.38623891072E+02 -0.47425396560E+02  0.17613616954E+00  0.61163749267E+02  0.00000000000E+00 0. -1.
        -12    1    4    4    0    0 -0.37777022637E+02 -0.17814299903E+02  0.32603887386E+01  0.41893709015E+02  0.00000000000E+00 0.  1.
</event>
<event>
12    1  0.8526130E-002  0.2182651E+03  0.7818608E-02  0.1135272E+00
         21   -1    0    0  503  502  0.00000000000E+00  0.00000000000E+00  0.31137638641E+03  0.31137638641E+03  0.00000000000E+00 0.  1.
         21   -1    0    0  501  503 -0.00000000000E+00 -0.00000000000E+00 -0.18165208094E+03  0.18165208094E+03  0.00000000000E+00 0.  1.
          6    2    1    2  501    0 -0.93488372531E+02  0.95370646835E+02 -0.33667144693E+02  0.22038136791E+03  0.17204311848E+03 0.  0.
         24    2    3    3    0    0 -0.13111271698E+03  0.91849482883E+02 -0.29037979374E+02  0.18202111423E+03  0.81618684872E+02 0.  0.
         -6    2    1    2    0  502  0.93488372531E+02 -0.95370646835E+02  0.16339145017E+03  0.27264709944E+03  0.17263846260E+03 0.  0.
        -24    2    5    5    0    0  0.11896941597E+03 -0.10974232541E+03  0.16274979113E+03  0.24301045918E+03  0.79809077384E+02 0.  0.
          5    1    3    3  501    0  0.37624344450E+02  0.35211639528E+01 -0.46291653190E+01  0.38360253681E+02  0.47000000000E+01 0. -1.
        -11    1    4    4    0    0 -0.96594083301E+02  0.10391004261E+03 -0.31661554255E+02  0.14536219557E+03  0.00000000000E+00 0.  1.
         12    1    4    4    0    0 -0.34518633680E+02 -0.12060559728E+02  0.26235748806E+01  0.36658918659E+02  0.00000000000E+00 0. -1.
         -5    1    5    5    0  502 -0.25481043439E+02  0.14371678574E+02  0.64165903345E+00  0.29636640263E+02  0.47000000000E+01 0.  1.
         13    1    6    6    0    0 -0.19426412775E+01  0.45405295274E+01 -0.48016202362E+01  0.68880926544E+01  0.00000000000E+00 0. -1.
        -14    1    6    6    0    0  0.12091205725E+03 -0.11428285494E+03  0.16755141137E+03  0.23612236652E+03  0.00000000000E+00 0.  1.
</event>
<event>
12    1  0.8526130E-002  0.1888148E+03  0.7818608E-02  0.1159663E+00
         21   -1    0    0  503  502  0.00000000000E+00  0.00000000000E+00  0.15849145798E+03  0.15849145798E+03  0.00000000000E+00 0.  1.
         21   -1    0    0  501  503 -0.00000000000E+00 -0.00000000000E+00 -0.23556719453E+03  0.23556719453E+03  0.00000000000E+00 0. -1.
          6    2    1    2  501    0 -0.17153427495E+02  0.76144689448E+02 -0.81739586103E+02  0.20574831993E+03  0.17192660473E+03 0.  0.
         24    2    3    3    0    0 -0.33981331276E+02  0.41241113127E+01  0.11134631438E+02  0.86929751081E+02  0.79126875562E+02 0.  0.
         -6    2    1    2    0  502  0.17153427495E+02 -0.76144689448E+02  0.46638495475E+01  0.18831033257E+03  0.17130900751E+03 0.  0.
        -24    2    5    5    0    0 -0.14603708386E+02 -0.79861594437E+02 -0.50802924403E+02  0.12411544123E+03  0.78946583583E+02 0.  0.
          5    1    3    3  501    0  0.16827903781E+02  0.72020578136E+02 -0.92874217541E+02  0.11881856885E+03  0.47000000000E+01 0. -1.
        -13    1    4    4    0    0 -0.34534932277E+02  0.35765887264E+02  0.20721106604E+02  0.53863016051E+02  0.00000000000E+00 0.  1.
         14    1    4    4    0    0  0.55360100109E+00 -0.31641775952E+02 -0.95864751655E+01  0.33066735030E+02  0.00000000000E+00 0. -1.
         -5    1    5    5    0  502  0.31757135882E+02  0.37169049881E+01  0.55466773950E+02  0.64194891343E+02  0.47000000000E+01 0.  1.
         11    1    6    6    0    0  0.10750341007E+02 -0.93499119585E+01 -0.46972970592E+02  0.49086155397E+02  0.00000000000E+00 0. -1.
        -12    1    6    6    0    0 -0.25354049394E+02 -0.70511682478E+02 -0.38299538105E+01  0.75029285834E+02  0.00000000000E+00 0.  1.
</event>
<event>
12    1  0.8526130E-002  0.4082979E+03  0.7818608E-02  0.1041036E+00
         21   -1    0    0  503  502  0.00000000000E+00  0.00000000000E+00  0.81540735892E+03  0.81540735892E+03  0.00000000000E+00 0. -1.
         21   -1    0    0  501  503 -0.00000000000E+00 -0.00000000000E+00 -0.54515634150E+03  0.54515634150E+03  0.00000000000E+00 0.  1.
          6    2    1    2  501    0 -0.33178351067E+03  0.16133710502E+03 -0.40303665126E+03  0.57371223780E+03  0.17492063952E+03 0.  0.
         24    2    3    3    0    0 -0.10464366908E+03  0.66121272390E+02 -0.22637661284E+03  0.27057955794E+03  0.81514453903E+02 0.  0.
         -6    2    1    2    0  502  0.33178351067E+03 -0.16133710502E+03  0.67328766868E+03  0.78685146263E+03  0.17236293115E+03 0.  0.
        -24    2    5    5    0    0  0.29896815638E+03 -0.18714572349E+03  0.56849944402E+03  0.67395507521E+03  0.81353212608E+02 0.  0.
          5    1    3    3  501    0 -0.22713984158E+03  0.95215832629E+02 -0.17666003843E+03  0.30313267985E+03  0.47000000000E+01 0. -1.
        -13    1    4    4    0    0 -0.11594406981E+03  0.48838703518E+02 -0.17792978590E+03  0.21791570617E+03  0.00000000000E+00 0.  1.
         14    1    4    4    0    0  0.11300400724E+02  0.17282568872E+02 -0.48446826939E+02  0.52663851775E+02  0.00000000000E+00 0. -1.
         -5    1    5    5    0  502  0.32815354285E+02  0.25808618468E+02  0.10478822466E+03  0.11289638742E+03  0.47000000000E+01 0.  1.
         11    1    6    6    0    0  0.20604470545E+03 -0.11142382559E+03  0.43838056736E+03  0.49703844056E+03  0.00000000000E+00 0. -1.
        -12    1    6    6    0    0  0.92923450935E+02 -0.75721897891E+02  0.13011887666E+03  0.17691663466E+03  0.00000000000E+00 0.  1.
</event>
<event>
12    1  0.8526130E-002  0.2040890E+03  0.7818608E-02  0.1146415E+00
         21   -1    0    0  503  502  0.00000000000E+00  0.00000000000E+00  0.13565876792E+04  0.13565876792E+04  0.00000000000E+00 0. -1.
         21   -1    0    0  501  503 -0.00000000000E+00 -0.00000000000E+00 -0.99080277475E+02  0.99080277475E+02  0.00000000000E+00 0.  1.
          6    2    1    2  501    0 -0.28285861576E+02  0.10530537649E+03  0.24046635482E+02  0.20550077793E+03  0.17251961271E+03 0.  0.
         24    2    3    3    0    0  0.28677216286E+02  0.80581022403E+02 -0.32000168964E+02  0.12171879769E+03  0.80472175266E+02 0.  0.
         -6    2    1    2    0  502  0.28285861576E+02 -0.10530537649E+03  0.12334607663E+04  0.12501671788E+04  0.17205580683E+03 0.  0.
        -24    2    5    5    0    0  0.56959418556E+02 -0.13004035223E+03  0.91473434630E+03  0.92916466681E+03  0.80331719663E+02 0.  0.
          5    1    3    3  501    0 -0.56963077862E+02  0.24724354086E+02  0.56046804446E+02  0.83781980241E+02  0.47000000000E+01 0. -1.
        -11    1    4    4    0    0  0.10235456237E+02 -0.85294352220E+01 -0.27560232383E+02  0.30611799010E+02  0.00000000000E+00 0.  1.
         12    1    4    4    0    0  0.18441760049E+02  0.89110457625E+02 -0.44399365811E+01  0.91106998681E+02  0.00000000000E+00 0. -1.
         -5    1    5    5    0  502 -0.28673556981E+02  0.24734975744E+02  0.31872641997E+03  0.32100251195E+03  0.47000000000E+01 0.  1.
         13    1    6    6    0    0  0.28769517018E+02 -0.19144976090E+02  0.87873502688E+02  0.94424402003E+02  0.00000000000E+00 0. -1.
        -14    1    6    6    0    0  0.28189901538E+02 -0.11089537614E+03  0.82686084361E+03  0.83474026481E+03  0.00000000000E+00 0.  1.
</event>
<event>
12    1  0.8526130E-002  0.2456229E+03  0.7818608E-02  0.1116148E+00
         21   -1    0    0  503  502  0.00000000000E+00  0.00000000000E+00  0.32470954353E+02  0.32470954353E+02  0.00000000000E+00 0.  1.
         21   -1    0    0  501  503 -0.00000000000E+00 -0.00000000000E+00 -0.18862543143E+04  0.18862543143E+04  0.00000000000E+00 0.  1.
          6    2    1    2  501    0 -0.12999745819E+03  0.11926993828E+03 -0.80567398084E+03  0.84228330789E+03  0.17089748400E+03 0.  0.
         24    2    3    3    0    0 -0.48277075153E+02  0.52289188376E+02 -0.20065067943E+03  0.22808470230E+03  0.81835817717E+02 0.  0.
         -6    2    1    2    0  502  0.12999745819E+03 -0.11926993828E+03 -0.10481093791E+04  0.10764419608E+04  0.17049741055E+03 0.  0.
        -24    2    5    5    0    0 -0.21762434949E+01 -0.23697827010E+02 -0.33361574496E+03  0.34355236532E+03  0.78501206306E+02 0.  0.
          5    1    3    3  501    0 -0.81720383041E+02  0.66980749901E+02 -0.60502330140E+03  0.61419860558E+03  0.47000000000E+01 0. -1.
        -11    1    4    4    0    0 -0.60050027253E+02  0.84504504125E+01 -0.13783041897E+03  0.15058100902E+03  0.00000000000E+00 0.  1.
         12    1    4    4    0    0  0.11772952100E+02  0.43838737963E+02 -0.62820260468E+02  0.77503693284E+02  0.00000000000E+00 0. -1.
         -5    1    5    5    0  502  0.13217370169E+03 -0.95572111267E+02 -0.71449363416E+03  0.73288959545E+03  0.47000000000E+01 0.  1.
         13    1    6    6    0    0 -0.12168566726E+02 -0.16716229514E+02 -0.17181086322E+02  0.26883007134E+02  0.00000000000E+00 0. -1.
        -14    1    6    6    0    0  0.99923232314E+01 -0.69815974952E+01 -0.31643465864E+03  0.31666935819E+03  0.00000000000E+00 0.  1.
</event>
<event>
12    1  0.8526130E-002  0.2083224E+03  0.7818608E-02  0.1143716E+00
         21   -1    0    0  503  502  0.00000000000E+00  0.00000000000E+00  0.89497741103E+02  0.89497741103E+02  0.00000000000E+00 0.  1.
         21   -1    0    0  501  503 -0.00000000000E+00 -0.00000000000E+00 -0.53742831843E+03  0.53742831843E+03  0.00000000000E+00 0.  1.
          6    2    1    2  501    0  0.50510631070E+02 -0.10219206059E+03 -0.11569248547E+03  0.23477765151E+03  0.16953245516E+03 0.  0.
         24    2    3    3    0    0  0.16125914004E+02 -0.12726971476E+03 -0.48457679778E+02  0.15506688308E+03  0.72387610148E+02 0.  0.
         -6    2    1    2    0  502 -0.50510631070E+02  0.10219206059E+03 -0.33223809186E+03  0.39214840803E+03  0.17436651954E+03 0.  0.
        -24    2    5    5    0    0 -0.73265880223E+01 -0.31389613914E+01 -0.12880140676E+03  0.15897881179E+03  0.92848953920E+02 0.  0.
          5    1    3    3  501    0  0.34384717066E+02  0.25077654165E+02 -0.67234805695E+02  0.79710768426E+02  0.47000000000E+01 0. -1.
        -11    1    4    4    0    0  0.38337012873E+02 -0.10917523157E+03 -0.25826658993E+02  0.11855789328E+03  0.00000000000E+00 0.  1.
         12    1    4    4    0    0 -0.22211098869E+02 -0.18094483190E+02 -0.22631020785E+02  0.36508989806E+02  0.00000000000E+00 0. -1.
         -5    1    5    5    0  502 -0.43184043048E+02  0.10533102198E+03 -0.20343668510E+03  0.23316959624E+03  0.47000000000E+01 0.  1.
         11    1    6    6    0    0  0.52138255756E+00  0.17119609456E+02 -0.13523921535E+03  0.13631947123E+03  0.00000000000E+00 0. -1.
        -12    1    6    6    0    0 -0.78479705799E+01 -0.20258570847E+02  0.64378085941E+01  0.22659340557E+02  0.00000000000E+00 0.  1.
</event>
<event>
12    1  0.8526130E-002  0.2201867E+03  0.7818608E-02  0.1134310E+00
         21   -1    0    0  503  502  0.00000000000E+00  0.00000000000E+00  0.20850517709E+03  0.20850517709E+03  0.00000000000E+00 0.  1.
         21   -1    0    0  501  503 -0.00000000000E+00 -0.00000000000E+00 -0.13659980625E+04  0.13659980625E+04  0.00000000000E+00 0. -1.
          6    2    1    2  501    0 -0.85017942508E+02 -0.10317323773E+03 -0.12975439974E+04  0.13160936977E+04  0.17495550435E+03 0.  0.
         24    2    3    3    0    0 -0.11139202680E+03 -0.11164226184E+03 -0.87827549545E+03  0.89588484083E+03  0.79809923355E+02 0.  0.
         -6    2    1    2    0  502  0.85017942508E+02  0.10317323773E+03  0.14005111197E+03  0.25840954186E+03  0.17113856909E+03 0.  0.
        -24    2    5    5    0    0 -0.69034874892E+01  0.42105308727E+02  0.11332105654E+03  0.14476348118E+03  0.79336551886E+02 0.  0.
          5    1    3    3  501    0  0.26374084295E+02  0.84690241052E+01 -0.41926850194E+03  0.42020885689E+03  0.47000000000E+01 0. -1.
        -11    1    4    4    0    0  0.12020785480E+02 -0.62610151594E+01 -0.46924513850E+02  0.48842702571E+02  0.00000000000E+00 0.  1.
         12    1    4    4    0    0 -0.12341281228E+03 -0.10538124668E+03 -0.83135098160E+03  0.84704213826E+03  0.00000000000E+00 0. -1.
         -5    1    5    5    0  502  0.91921429997E+02  0.61067929004E+02  0.26730055431E+02  0.11364606068E+03  0.47000000000E+01 0.  1.
         11    1    6    6    0    0 -0.13623009244E+02 -0.18007104784E+02  0.60079115977E+02  0.64182103270E+02  0.00000000000E+00 0. -1.
        -12    1    6    6    0    0  0.67195217552E+01  0.60112413511E+02  0.53241940566E+02  0.80581377911E+02  0.00000000000E+00 0.  1.
</event>
<event>
12    1  0.8526130E-002  0.1771632E+03  0.7818608E-02  0.1171278E+00
         21   -1    0    0  501  502  0.00000000000E+00  0.00000000000E+00  0.54709539778E+02  0.54709539778E+02  0.00000000000E+00 0.  1.
         21   -1    0    0  502  503 -0.00000000000E+00 -0.00000000000E+00 -0.58611100476E+03  0.58611100476E+03  0.00000000000E+00 0.  1.
         -6    2    1    2    0  503  0.24043240098E+02 -0.18875982775E+02 -0.32500349449E+03  0.36881518907E+03  0.17164787251E+03 0.  0.
        -24    2    3    3    0    0  0.81187103632E+02 -0.28731126340E+02 -0.21024149385E+03  0.24014914155E+03  0.77802962868E+02 0.  0.
          6    2    1    2  501    0 -0.24043240098E+02  0.18875982775E+02 -0.20639797049E+03  0.27200535547E+03  0.17450619204E+03 0.  0.
         24    2    5    5    0    0  0.27730081825E+02 -0.13225482590E+02 -0.40920281179E+02  0.95608256283E+02  0.80762605393E+02 0.  0.
          5    1    5    5  501    0 -0.51773321923E+02  0.32101465366E+02 -0.16547768931E+03  0.17639709919E+03  0.47000000000E+01 0. -1.
        -13    1    6    6    0    0 -0.11504795473E+02 -0.23020838669E+02  0.12497751314E+02  0.28609668292E+02  0.00000000000E+00 0.  1.
         14    1    6    6    0    0  0.39234877298E+02  0.97953560782E+01 -0.53418032494E+02  0.66998587991E+02  0.00000000000E+00 0. -1.
         -5    1    3    3    0  503 -0.57143863534E+02  0.98551435645E+01 -0.11476200064E+03  0.12866604752E+03  0.47000000000E+01 0.  1.
         11    1    4    4    0    0  0.29841915542E+02  0.14026013870E+02 -0.20118296540E+02  0.38626607979E+02  0.00000000000E+00 0. -1.
        -12    1    4    4    0    0  0.51345188090E+02 -0.42757140209E+02 -0.19012319731E+03  0.20152253357E+03  0.00000000000E+00 0.  1.
</event>
<event>
12    1  0.8526130E-002  0.2179965E+03  0.7818608E-02  0.1135925E+00
         21   -1    0    0  503  502  0.00000000000E+00  0.00000000000E+00  0.13696239127E+03  0.13696239127E+03  0.00000000000E+00 0.  1.
         21   -1    0    0  501  503 -0.00000000000E+00 -0.00000000000E+00 -0.37609255350E+03  0.37609255350E+03  0.00000000000E+00 0.  1.
          6    2    1    2  501    0  0.12454135110E+03 -0.37322299098E+02 -0.19555318935E+03  0.29074564705E+03  0.17143068358E+03 0.  0.
         24    2    3    3    0    0  0.88396675900E+02  0.44907073564E+01 -0.40811262363E+02  0.12636219587E+03  0.80422053240E+02 0.  0.
         -6    2    1    2    0  502 -0.12454135110E+03  0.37322299098E+02 -0.43576972876E+02  0.22230929772E+03  0.17498276814E+03 0.  0.
        -24    2    5    5    0    0 -0.11433596267E+03 -0.14892405731E+02 -0.76243469183E+02  0.15970166772E+03  0.79981622713E+02 0.  0.
          5    1    3    3  501    0  0.36144675196E+02 -0.41813006454E+02 -0.15474192699E+03  0.16438345118E+03  0.47000000000E+01 0. -1.
        -11    1    4    4    0    0 -0.11640806451E+02 -0.13616092044E+02 -0.54389940830E+01  0.18721351287E+02  0.00000000000E+00 0.  1.
         12    1    4    4    0    0  0.10003748235E+03  0.18106799400E+02 -0.35372268280E+02  0.10764084458E+03  0.00000000000E+00 0. -1.
         -5    1    5    5    0  502 -0.10205388424E+02  0.52214704828E+02  0.32666496307E+02  0.62607630000E+02  0.47000000000E+01 0.  1.
         13    1    6    6    0    0 -0.97279659441E+02 -0.37406718300E+02 -0.79755688420E+02  0.13123857874E+03  0.00000000000E+00 0. -1.
        -14    1    6    6    0    0 -0.17056303230E+02  0.22514312569E+02  0.35122192367E+01  0.28463088980E+02  0.00000000000E+00 0.  1.
</event>
<event>
12    1  0.8526130E-002  0.1832679E+03  0.7818608E-02  0.1165194E+00
         21   -1    0    0  501  502  0.00000000000E+00  0.00000000000E+00  0.13196164706E+03  0.13196164706E+03  0.00000000000E+00 0.  1.
         21   -1    0    0  502  503 -0.00000000000E+00 -0.00000000000E+00 -0.29757236733E+03  0.29757236733E+03  0.00000000000E+00 0.  1.
         -6    2    1    2    0  503 -0.65394467027E+02 -0.47134662250E+01 -0.16771687522E+03  0.24842719819E+03  0.17113874338E+03 0.  0.
        -24    2    3    3    0    0  0.84539858286E+01  0.70772078482E+01 -0.19617909713E+02  0.82451273528E+02  0.79320825623E+02 0.  0.
          6    2    1    2  501    0  0.65394467027E+02  0.47134662250E+01  0.21061549485E+01  0.18110681620E+03  0.16880933002E+03 0.  0.
         24    2    5    5    0    0  0.97867061375E+02 -0.13054129136E+02  0.33739991680E+02  0.13218906426E+03  0.81161503688E+02 0.  0.
          5    1    5    5  501    0 -0.32472594348E+02  0.17767595361E+02 -0.31633836732E+02  0.48917751941E+02  0.47000000000E+01 0. -1.
        -13    1    6    6    0    0  0.77261204337E+01  0.27788836798E+02  0.81257202686E+01  0.29965642283E+02  0.00000000000E+00 0.  1.
         14    1    6    6    0    0  0.90140940941E+02 -0.40842965934E+02  0.25614271412E+02  0.10222342197E+03  0.00000000000E+00 0. -1.
         -5    1    3    3    0  503 -0.73848452856E+02 -0.11790674073E+02 -0.14809896551E+03  0.16597592467E+03  0.47000000000E+01 0.  1.
         11    1    4    4    0    0 -0.12157341045E+02 -0.26735421988E+01  0.27455925041E+02  0.30145921599E+02  0.00000000000E+00 0. -1.
        -12    1    4    4    0    0  0.20611326874E+02  0.97507500470E+01 -0.47073834754E+02  0.52305351929E+02  0.00000000000E+00 0.  1.
</event>
<event>
12    1  0.8526130E-002  0.2013839E+03  0.7818608E-02  0.1148606E+00
         21   -1    0    0  501  502  0.00000000000E+00  0.00000000000E+00  0.60411325329E+03  0.60411325329E+03  0.00000000000E+00 0. -1.
         21   -1    0    0  502  503 -0.00000000000E+00 -0.00000000000E+00 -0.72300928663E+02  0.72300928663E+02  0.00000000000E+00 0.  1.
         -6    2    1    2    0  503 -0.74033882599E+02  0.72341809690E+02  0.17498663208E+03  0.26668248528E+03  0.17258294628E+03 0.  0.
        -24    2    3    3    0    0 -0.40547215919E+00  0.69070862631E+02  0.15895899138E+03  0.19111253633E+03  0.80530069710E+02 0.  0.
          6    2    1    2  501    0  0.74033882599E+02 -0.72341809690E+02  0.35682569254E+03  0.40973169667E+03  0.17274586883E+03 0.  0.
         24    2    5    5    0    0  0.77078381505E+02 -0.98982048837E+02  0.35292214469E+03  0.38223080576E+03  0.76209092406E+02 0.  0.
          5    1    5    5  501    0 -0.30444989066E+01  0.26640239147E+02  0.39035478498E+01  0.27500890917E+02  0.47000000000E+01 0. -1.
        -11    1    6    6    0    0  0.42187502717E+02 -0.13490085248E+02  0.56690386780E+02  0.71941418799E+02  0.00000000000E+00 0.  1.
         12    1    6    6    0    0  0.34890878788E+02 -0.85491963589E+02  0.29623175791E+03  0.31028938696E+03  0.00000000000E+00 0. -1.
         -5    1    3    3    0  503 -0.73628410439E+02  0.32709470585E+01  0.16027640701E+02  0.75569948954E+02  0.47000000000E+01 0.  1.
         11    1    4    4    0    0  0.50414882303E+01  0.70791145850E+01  0.11402339881E+03  0.11435412517E+03  0.00000000000E+00 0. -1.
        -12    1    4    4    0    0 -0.54469603895E+01  0.61991748046E+02  0.44935592567E+02  0.76758411153E+02  0.00000000000E+00 0.  1.
</event>
<event>
12    1  0.8526130E-002  0.1739455E+03  0.7818608E-02  0.1174080E+00
         21   -1    0    0  503  502  0.00000000000E+00  0.00000000000E+00  0.20235520888E+03  0.20235520888E+03  0.00000000000E+00 0. -1.
         21   -1    0    0  501  503 -0.00000000000E+00 -0.00000000000E+00 -0.15691817937E+03  0.15691817937E+03  0.00000000000E+00 0. -1.
          6    2    1    2  501    0 -0.15426973789E+02  0.23465665119E+02 -0.18670495849E+02  0.17494465276E+03  0.17166366871E+03 0.  0.
         24    2    3    3    0    0  0.52866846611E+02 -0.17571086373E+02 -0.64678710307E+01  0.94203988094E+02  0.75689573061E+02 0.  0.
         -6    2    1    2    0  502  0.15426973789E+02 -0.23465665119E+02  0.64107525363E+02  0.18432873549E+03  0.17052471656E+03 0.  0.
        -24    2    5    5    0    0 -0.48761532609E+02  0.49623006721E+01  0.64033620864E+02  0.11396959213E+03  0.80538511524E+02 0.  0.
          5    1    3    3  501    0 -0.68293820401E+02  0.41036751492E+02 -0.12202624818E+02  0.80740664664E+02  0.47000000000E+01 0. -1.
        -11    1    4    4    0    0 -0.18656505516E+02  0.42532467241E+01 -0.27595765938E+01  0.19333146892E+02  0.00000000000E+00 0.  1.
         12    1    4    4    0    0  0.71523352128E+02 -0.21824333097E+02 -0.37082944369E+01  0.74870841202E+02  0.00000000000E+00 0. -1.
         -5    1    5    5    0  502  0.64188506398E+02 -0.28427965791E+02  0.73904498956E-01  0.70359143361E+02  0.47000000000E+01 0.  1.
         13    1    6    6    0    0 -0.91298181384E+01  0.34999468029E+02  0.45781674006E+01  0.36459236941E+02  0.00000000000E+00 0. -1.
        -14    1    6    6    0    0 -0.39631714471E+02 -0.30037167357E+02  0.59455453464E+02  0.77510355187E+02  0.00000000000E+00 0.  1.
</event>
<event>
12    1  0.8526130E-002  0.1807664E+03  0.7818608E-02  0.1167373E+00
         21   -1    0    0  503  502  0.00000000000E+00  0.00000000000E+00  0.39974763521E+03  0.39974763521E+03  0.00000000000E+00 0. -1.
         21   -1    0    0  501  503 -0.00000000000E+00 -0.00000000000E+00 -0.22706469465E+03  0.22706469465E+03  0.00000000000E+00 0. -1.
          6    2    1    2  501    0 -0.52273834509E+02  0.39764685242E+01 -0.16499090514E+03  0.24379783177E+03  0.17165959897E+03 0.  0.
         24    2    3    3    0    0  0.15462423958E+02 -0.19320057248E+02 -0.25708515412E+02  0.87105129597E+02  0.79460837339E+02 0.  0.
         -6    2    1    2    0  502  0.52273834509E+02 -0.39764685242E+01  0.33767384570E+03  0.38301449809E+03  0.17299743813E+03 0.  0.
        -24    2    5    5    0    0  0.63502539112E+02 -0.62490340534E+02  0.23585498008E+03  0.26495041201E+03  0.81446510442E+02 0.  0.
          5    1    3    3  501    0 -0.67736258467E+02  0.23296525773E+02 -0.13928238973E+03  0.15669270217E+03  0.47000000000E+01 0. -1.
        -11    1    4    4    0    0  0.43974042158E+02  0.86969676981E+00 -0.27924909192E+02  0.52098688175E+02  0.00000000000E+00 0.  1.
         12    1    4    4    0    0 -0.28511618199E+02 -0.20189754018E+02  0.22163937796E+01  0.35006441422E+02  0.00000000000E+00 0. -1.
         -5    1    5    5    0  502 -0.11228704603E+02  0.58513872010E+02  0.10181886563E+03  0.11806408608E+03  0.47000000000E+01 0.  1.
         11    1    6    6    0    0  0.71695118555E+02 -0.16436869273E+02  0.15423947539E+03  0.17088059124E+03  0.00000000000E+00 0. -1.
        -12    1    6    6    0    0 -0.81925794428E+01 -0.46053471261E+02  0.81615504689E+02  0.94069820766E+02  0.00000000000E+00 0.  1.
</event>
<event>
12    1  0.8526130E-002  0.1992365E+03  0.7818608E-02  0.1150556E+00
         21   -1    0    0  501  502  0.00000000000E+00  0.00000000000E+00  0.20606468484E+02  0.20606468484E+02  0.00000000000E+00 0. -1.
         21   -1    0    0  502  503 -0.00000000000E+00 -0.00000000000E+00 -0.22764327759E+04  0.22764327759E+04  0.00000000000E+00 0. -1.
         -6    2    1    2    0  503  0.66405250762E+02  0.75348152063E+02 -0.15852218708E+04  0.15976932049E+04  0.17207032352E+03 0.  0.
        -24    2    3    3    0    0  0.41932285960E+02  0.63775847164E+02 -0.50517969897E+03  0.51730159673E+03  0.81047754091E+02 0.  0.
          6    2    1    2  501    0 -0.66405250762E+02 -0.75348152063E+02 -0.67060443664E+03  0.69934603942E+03  0.17113611854E+03 0.  0.
         24    2    5    5    0    0  0.10398941720E+02 -0.71535861477E+02 -0.51031435578E+03  0.52150223839E+03  0.79487895120E+02 0.  0.
          5    1    5    5  501    0 -0.76804192481E+02 -0.38122905862E+01 -0.16029008086E+03  0.17784380103E+03  0.47000000000E+01 0. -1.
        -13    1    6    6    0    0 -0.21132139699E+02  0.70724171165E+01 -0.12723161182E+03  0.12916837639E+03  0.00000000000E+00 0.  1.
         14    1    6    6    0    0  0.31531081419E+02 -0.78608278594E+02 -0.38308274396E+03  0.39233386200E+03  0.00000000000E+00 0. -1.
         -5    1    3    3    0  503  0.24472964802E+02  0.11572304900E+02 -0.10800421718E+04  0.10803916082E+04  0.47000000000E+01 0.  1.
         13    1    4    4    0    0  0.43308009930E+02  0.75975908413E+02 -0.49017021022E+03  0.49791039090E+03  0.00000000000E+00 0. -1.
        -14    1    4    4    0    0 -0.13757239704E+01 -0.12200061249E+02 -0.15009488750E+02  0.19391205828E+02  0.00000000000E+00 0.  1.
</event>
<event>
12    1  0.8526130E-002  0.1757400E+03  0.7818608E-02  0.1172691E+00
         21   -1    0    0  501  502  0.00000000000E+00  0.00000000000E+00  0.43657425634E+03  0.43657425634E+03  0.00000000000E+00 0. -1.
         21   -1    0    0  502  503 -0.00000000000E+00 -0.00000000000E+00 -0.74496818975E+02  0.74496818975E+02  0.00000000000E+00 0. -1.
         -6    2    1    2    0  503 -0.30872911011E+02 -0.15871394885E+02  0.24771667321E+03  0.30372373228E+03  0.17227744355E+03 0.  0.
        -24    2    3    3    0    0 -0.85208872077E+01 -0.32286859984E+02  0.25824150271E+03  0.27369137475E+03  0.84280769131E+02 0.  0.
          6    2    1    2  501    0  0.30872911011E+02  0.15871394885E+02  0.11436076416E+03  0.20734734304E+03  0.16943877501E+03 0.  0.
         24    2    5    5    0    0  0.42225986765E+02  0.26393657278E+02  0.14542464181E+03  0.17232356783E+03  0.77893687044E+02 0.  0.
          5    1    5    5  501    0 -0.11353075754E+02 -0.10522262394E+02 -0.31063877652E+02  0.35023775207E+02  0.47000000000E+01 0. -1.
        -13    1    6    6    0    0  0.58803440308E+02  0.49191302160E+01  0.66700381060E+02  0.89056068113E+02  0.00000000000E+00 0.  1.
         14    1    6    6    0    0 -0.16577453543E+02  0.21474527062E+02  0.78724260750E+02  0.83267499717E+02  0.00000000000E+00 0. -1.
         -5    1    3    3    0  503 -0.22352023804E+02  0.16415465100E+02 -0.10524829503E+02  0.30032357527E+02  0.47000000000E+01 0.  1.
         13    1    4    4    0    0  0.23697401231E+02  0.11573768946E+02  0.34495501054E+02  0.43421867138E+02  0.00000000000E+00 0. -1.
        -14    1    4    4    0    0 -0.32218288439E+02 -0.43860628930E+02  0.22374600166E+03  0.23026950761E+03  0.00000000000E+00 0.  1.
</event>
<event>
12    1  0.8526130E-002  0.1788580E+03  0.7818608E-02  0.1168942E+00
         21   -1    0    0  501  502  0.00000000000E+00  0.00000000000E+00  0.28333378385E+03  0.28333378385E+03  0.00000000000E+00 0. -1.
         21   -1    0    0  502  503 -0.00000000000E+00 -0.00000000000E+00 -0.13997067590E+03  0.13997067590E+03  0.00000000000E+00 0. -1.
         -6    2    1    2    0  503  0.68717418362E+01 -0.54711703837E+02  0.16486090605E+03  0.24315915802E+03  0.17001960597E+03 0.  0.
        -24    2    3    3    0    0 -0.52595933768E+02 -0.18331901600E+02  0.13711950562E+03  0.16798223503E+03  0.79459937069E+02 0.  0.
          6    2    1    2  501    0 -0.68717418362E+01  0.54711703837E+02 -0.21497798096E+02  0.18014530172E+03  0.17014576997E+03 0.  0.
         24    2    5    5    0    0 -0.39795434569E+02  0.45242254454E+02  0.35632046579E+02  0.11336544572E+03  0.89171426703E+02 0.  0.
          5    1    5    5  501    0  0.32923692733E+02  0.94694493828E+01 -0.57129844674E+02  0.66779855999E+02  0.47000000000E+01 0. -1.
        -11    1    6    6    0    0 -0.23866813955E+02  0.29016996596E+01 -0.26968961638E+02  0.36129898438E+02  0.00000000000E+00 0.  1.
         12    1    6    6    0    0 -0.15928620614E+02  0.42340554794E+02  0.62601008217E+02  0.77235547287E+02  0.00000000000E+00 0. -1.
         -5    1    3    3    0  503  0.59467675604E+02 -0.36379802237E+02  0.27741400425E+02  0.75176922989E+02  0.47000000000E+01 0.  1.
         13    1    4    4    0    0 -0.67483406116E+01 -0.41661083715E+02  0.40349402444E+02  0.58388871156E+02  0.00000000000E+00 0. -1.
        -14    1    4    4    0    0 -0.45847593157E+02  0.23329182115E+02  0.96770103179E+02  0.10959336388E+03  0.00000000000E+00 0.  1.
</event>
<event>
12    1  0.8526130E-002  0.2821250E+03  0.7818608E-02  0.1094755E+00
         21   -1    0    0  503  502  0.00000000000E+00  0.00000000000E+00  0.16252779555E+04  0.16252779555E+04  0.00000000000E+00 0.  1.
         21   -1    0    0  501  503 -0.00000000000E+00 -0.00000000000E+00 -0.60557950086E+02  0.60557950086E+02  0.00000000000E+00 0.  1.
          6    2    1    2  501    0  0.12556946039E+03 -0.18445842548E+03  0.11573340304E+04  0.11912248287E+04  0.17263236776E+03 0.  0.
         24    2    3    3    0    0  0.13786532835E+03 -0.11810332038E+03  0.65706535805E+03  0.68640305529E+03  0.80368068996E+02 0.  0.
         -6    2    1    2    0  502 -0.12556946039E+03  0.18445842548E+03  0.40738597498E+03  0.49461107688E+03  0.16995347792E+03 0.  0.
        -24    2    5    5    0    0 -0.57666480691E+02  0.87783809469E+02  0.97858681288E+02  0.16327132441E+03  0.77780355297E+02 0.  0.
          5    1    3    3  501    0 -0.12295867961E+02 -0.66355105101E+02  0.50026867237E+03  0.50482177340E+03  0.47000000000E+01 0. -1.
        -11    1    4    4    0    0  0.64333320046E+02 -0.84543257815E+01  0.17714505210E+03  0.18865476717E+03  0.00000000000E+00 0.  1.
         12    1    4    4    0    0  0.73532008307E+02 -0.10964899459E+03  0.47992030596E+03  0.49774828812E+03  0.00000000000E+00 0. -1.
         -5    1    5    5    0  502 -0.67902979701E+02  0.96674616007E+02  0.30952729369E+03  0.33133975248E+03  0.47000000000E+01 0.  1.
         11    1    6    6    0    0 -0.13920133235E+01  0.16280103225E+02 -0.12256447120E+02  0.20425473266E+02  0.00000000000E+00 0. -1.
        -12    1    6    6    0    0 -0.56274467367E+02  0.71503706244E+02  0.11011512841E+03  0.14284585114E+03  0.00000000000E+00 0.  1.
</event>
<event>
12    1  0.8526130E-002  0.2944386E+03  0.7818608E-02  0.1088120E+00
         21   -1    0    0  501  502  0.00000000000E+00  0.00000000000E+00  0.23655927196E+03  0.23655927196E+03  0.00000000000E+00 0.  1.
         21   -1    0    0  502  503 -0.00000000000E+00 -0.00000000000E+00 -0.58435358053E+03  0.58435358053E+03  0.00000000000E+00 0.  1.
         -6    2    1    2    0  503 -0.49496347259E+02  0.23374161867E+03 -0.42480069585E+03  0.51657082910E+03  0.17118632420E+03 0.  0.
        -24    2    3    3    0    0 -0.88237060043E+02  0.10215221149E+03 -0.23240565949E+03  0.28023514639E+03  0.79363049514E+02 0.  0.
          6    2    1    2  501    0  0.49496347259E+02 -0.23374161867E+03  0.77006387283E+02  0.30434202339E+03  0.17207280676E+03 0.  0.
         24    2    5    5    0    0  0.80627063763E+02 -0.15833726426E+03  0.81113330991E+02  0.22252579540E+03  0.10661587355E+03 0.  0.
          5    1    5    5  501    0 -0.31130716504E+02 -0.75404354419E+02 -0.41069437084E+01  0.81816227987E+02  0.47000000000E+01 0. -1.
        -11    1    6    6    0    0  0.73160580880E+02 -0.11813058996E+03  0.85265058812E+01  0.13921209783E+03  0.00000000000E+00 0.  1.
         12    1    6    6    0    0  0.74664828836E+01 -0.40206674296E+02  0.72586825110E+02  0.83313697578E+02  0.00000000000E+00 0. -1.
         -5    1    3    3    0  503  0.38740712784E+02  0.13158940719E+03 -0.19239503636E+03  0.23633568272E+03  0.47000000000E+01 0.  1.
         13    1    4    4    0    0 -0.55319823303E+02  0.39047926495E+02 -0.49228698152E+02  0.83716713598E+02  0.00000000000E+00 0. -1.
        -14    1    4    4    0    0 -0.32917236740E+02  0.63104284991E+02 -0.18317696134E+03  0.19651843279E+03  0.00000000000E+00 0.  1.
</event>
<event>
12    1  0.8526130E-002  0.1833107E+03  0.7818608E-02  0.1164994E+00
         21   -1    0    0  501  502  0.00000000000E+00  0.00000000000E+00  0.54803159948E+02  0.54803159948E+02  0.00000000000E+00 0.  1.
         21   -1    0    0  502  503 -0.00000000000E+00 -0.00000000000E+00 -0.70205814867E+03  0.70205814867E+03  0.00000000000E+00 0.  1.
         -6    2    1    2    0  503 -0.26618196826E+02 -0.52062185927E+02 -0.46319924362E+03  0.49815294863E+03  0.17373491686E+03 0.  0.
        -24    2    3    3    0    0 -0.19362549374E+02 -0.62013895425E+02 -0.12717555037E+03  0.16187078531E+03  0.76209572770E+02 0.  0.
          6    2    1    2  501    0  0.26618196826E+02  0.52062185927E+02 -0.18405574510E+03  0.25870835998E+03  0.17214673571E+03 0.  0.
         24    2    5    5    0    0  0.43369546297E+01  0.13930159379E+02 -0.20527085163E+02  0.89255659140E+02  0.85629159446E+02 0.  0.
          5    1    5    5  501    0  0.22281242196E+02  0.38132026548E+02 -0.16352865994E+03  0.16945270084E+03  0.47000000000E+01 0. -1.
        -13    1    6    6    0    0  0.30591785732E+02 -0.51743424778E+01  0.20310368090E+02  0.37082910165E+02  0.00000000000E+00 0.  1.
         14    1    6    6    0    0 -0.26254831102E+02  0.19104501857E+02 -0.40837453254E+02  0.52172748975E+02  0.00000000000E+00 0. -1.
         -5    1    3    3    0  503 -0.72556474516E+01  0.99517094979E+01 -0.33602369325E+03  0.33628216332E+03  0.47000000000E+01 0.  1.
         11    1    4    4    0    0  0.24066576748E+02 -0.23212929760E+01 -0.47212543676E+02  0.53043499109E+02  0.00000000000E+00 0. -1.
        -12    1    4    4    0    0 -0.43429126122E+02 -0.59692602449E+02 -0.79963006695E+02  0.10882728620E+03  0.00000000000E+00 0.  1.
</event>
<event>
12    1  0.8526130E-002  0.2350167E+03  0.7818608E-02  0.1123774E+00
         21   -1    0    0  501  502  0.00000000000E+00  0.00000000000E+00  0.23198527824E+03  0.23198527824E+03  0.00000000000E+00 0.  1.
         21   -1    0    0  502  503 -0.00000000000E+00 -0.00000000000E+00 -0.24851424018E+03  0.24851424018E+03  0.00000000000E+00 0.  1.
         -6    2    1    2    0  503 -0.15354583055E+03  0.12419096302E+02 -0.65291772645E+02  0.24047733779E+03  0.17273036324E+03 0.  0.
        -24    2    3    3    0    0 -0.10292238952E+02 -0.14456758751E+02 -0.33736438444E+02  0.91273677629E+02  0.82932556290E+02 0.  0.
          6    2    1    2  501    0  0.15354583055E+03 -0.12419096302E+02  0.48762810705E+02  0.24002218063E+03  0.17748881502E+03 0.  0.
         24    2    5    5    0    0  0.25585169680E+02 -0.69012645407E+01 -0.31129281870E+02  0.88994985558E+02  0.79049648354E+02 0.  0.
          5    1    5    5  501    0  0.12796066086E+03 -0.55178317618E+01  0.79892092574E+02  0.15102719508E+03  0.47000000000E+01 0. -1.
        -11    1    6    6    0    0  0.38377193981E+02  0.66471860669E+01  0.13026045668E+02  0.41069112070E+02  0.00000000000E+00 0.  1.
         12    1    6    6    0    0 -0.12792024301E+02 -0.13548450608E+02 -0.44155327538E+02  0.47925873488E+02  0.00000000000E+00 0. -1.
         -5    1    3    3    0  503 -0.14325359159E+03  0.26875855053E+02 -0.31555334201E+02  0.14920366016E+03  0.47000000000E+01 0.  1.
         11    1    4    4    0    0 -0.15875940592E+02  0.24242339008E+02  0.11769498399E+02  0.31277109566E+02  0.00000000000E+00 0. -1.
        -12    1    4    4    0    0  0.55837016403E+01 -0.38699097758E+02 -0.45505936843E+02  0.59996568063E+02  0.00000000000E+00 0.  1.
</event>
<event>
12    1  0.8526130E-002  0.1977728E+03  0.7818608E-02  0.1152639E+00
         21   -1    0    0  503  502  0.00000000000E+00  0.00000000000E+00  0.38810137075E+03  0.38810137075E+03  0.00000000000E+00 0.  1.
         21   -1    0    0  501  503 -0.00000000000E+00 -0.00000000000E+00 -0.21402880148E+03  0.21402880148E+03  0.00000000000E+00 0.  1.
          6    2    1    2  501    0  0.51954117998E+02  0.85370883323E+02 -0.13374022256E+03  0.23874786273E+03  0.17066539406E+03 0.  0.
         24    2    3    3    0    0 -0.12959402613E+02  0.85437276293E+02 -0.42750022616E+02  0.12687706201E+03  0.82478785970E+02 0.  0.
         -6    2    1    2    0  502 -0.51954117998E+02 -0.85370883323E+02  0.30781279183E+03  0.36338230950E+03  0.16525909945E+03 0.  0.
        -24    2    5    5    0    0 -0.97092126439E+02 -0.74659466031E+02  0.22198998911E+03  0.26571031898E+03  0.79507870444E+02 0.  0.
          5    1    3    3  501    0  0.64913520611E+02 -0.66392970726E-01 -0.90990199945E+02  0.11187080071E+03  0.47000000000E+01 0. -1.
        -13    1    4    4    0    0 -0.41728556541E+02  0.37318865246E+02 -0.43361356402E+02  0.70810856253E+02  0.00000000000E+00 0.  1.
         14    1    4    4    0    0  0.28769153927E+02  0.48118411047E+02  0.61133378663E+00  0.56066205761E+02  0.00000000000E+00 0. -1.
         -5    1    5    5    0  502  0.45138008441E+02 -0.10711417292E+02  0.85822802716E+02  0.97671990522E+02  0.47000000000E+01 0.  1.
         11    1    6    6    0    0 -0.57455470345E+02 -0.17090966514E+02  0.43618382279E+02  0.74133632594E+02  0.00000000000E+00 0. -1.
        -12    1    6    6    0    0 -0.39636656094E+02 -0.57568499517E+02  0.17837160683E+03  0.19157668638E+03  0.00000000000E+00 0.  1.
</event>
<event>
12    1  0.8526130E-002  0.1804833E+03  0.7818608E-02  0.1167369E+00
         21   -1    0    0  501  502  0.00000000000E+00  0.00000000000E+00  0.11685707116E+03  0.11685707116E+03  0.00000000000E+00 0. -1.
         21   -1    0    0  502  503 -0.00000000000E+00 -0.00000000000E+00 -0.34916220502E+03  0.34916220502E+03  0.00000000000E+00 0. -1.
         -6    2    1    2    0  503 -0.46939139683E+02 -0.28344764220E+02 -0.22098040739E+03  0.28531837091E+03  0.17195209751E+03 0.  0.
        -24    2    3    3    0    0 -0.49040384307E+02 -0.80744690819E+02 -0.10972301599E+03  0.16223114705E+03  0.73178825127E+02 0.  0.
          6    2    1    2  501    0  0.46939139683E+02  0.28344764220E+02 -0.11324726479E+02  0.18070090527E+03  0.17180762277E+03 0.  0.
         24    2    5    5    0    0  0.89727551282E+02  0.36596413964E+02 -0.28501509667E+02  0.13362575502E+03  0.87482428957E+02 0.  0.
          5    1    5    5  501    0 -0.42788411599E+02 -0.82516497436E+01  0.17176783188E+02  0.47075150253E+02  0.47000000000E+01 0. -1.
        -13    1    6    6    0    0  0.44386526207E+02 -0.23107414590E+02  0.72583227700E+01  0.50564805619E+02  0.00000000000E+00 0.  1.
         14    1    6    6    0    0  0.45341025075E+02  0.59703828554E+02 -0.35759832437E+02  0.83060949398E+02  0.00000000000E+00 0. -1.
         -5    1    3    3    0  503  0.21012446235E+01  0.52399926599E+02 -0.11125739140E+03  0.12308722386E+03  0.47000000000E+01 0.  1.
         11    1    4    4    0    0  0.25566766490E+01  0.58719139258E+01 -0.37916701649E+02  0.38453767469E+02  0.00000000000E+00 0. -1.
        -12    1    4    4    0    0 -0.51597060956E+02 -0.86616604745E+02 -0.71806314340E+02  0.12377737958E+03  0.00000000000E+00 0.  1.
</event>
<event>
12    1  0.8526130E-002  0.1728430E+03  0.7818608E-02  0.1175061E+00
         21   -1    0    0  503  502  0.00000000000E+00  0.00000000000E+00  0.34213897035E+03  0.34213897035E+03  0.00000000000E+00 0.  1.
         21   -1    0    0  501  503 -0.00000000000E+00 -0.00000000000E+00 -0.20196664775E+03  0.20196664775E+03  0.00000000000E+00 0.  1.
          6    2    1    2  501    0 -0.85526388617E+01  0.16684125628E+02 -0.13509499582E+03  0.21937490516E+03  0.17182311671E+03 0.  0.
         24    2    3    3    0    0 -0.36566046671E+02  0.52134829667E+02 -0.12863001050E+03  0.17349038196E+03  0.97458282345E+02 0.  0.
         -6    2    1    2    0  502  0.85526388617E+01 -0.16684125628E+02  0.27526731842E+03  0.32473071294E+03  0.17124961798E+03 0.  0.
        -24    2    5    5    0    0 -0.18331311145E+02 -0.40883486264E+02  0.67158663277E+02  0.11344971955E+03  0.79706062476E+02 0.  0.
          5    1    3    3  501    0  0.28013407809E+02 -0.35450704039E+02 -0.64649853239E+01  0.45884523199E+02  0.47000000000E+01 0. -1.
        -13    1    4    4    0    0  0.13941723035E+02  0.62417353291E+02 -0.81934225193E+02  0.10393995811E+03  0.00000000000E+00 0.  1.
         14    1    4    4    0    0 -0.50507769706E+02 -0.10282523625E+02 -0.46695785308E+02  0.69550423854E+02  0.00000000000E+00 0. -1.
         -5    1    5    5    0  502  0.26883950007E+02  0.24199360637E+02  0.20810865514E+03  0.21128099339E+03  0.47000000000E+01 0.  1.
         13    1    6    6    0    0 -0.37601351844E+02 -0.84145284873E+01  0.65085825106E+02  0.75636172431E+02  0.00000000000E+00 0. -1.
        -14    1    6    6    0    0  0.19270040700E+02 -0.32468957777E+02  0.20728381711E+01  0.37813547120E+02  0.00000000000E+00 0.  1.
</event>
<event>
12    1  0.8526130E-002  0.2222222E+03  0.7818608E-02  0.1132305E+00
         21   -1    0    0  501  502  0.00000000000E+00  0.00000000000E+00  0.61331095980E+02  0.61331095980E+02  0.00000000000E+00 0. -1.
         21   -1    0    0  502  503 -0.00000000000E+00 -0.00000000000E+00 -0.15816664086E+04  0.15816664086E+04  0.00000000000E+00 0. -1.
         -6    2    1    2    0  503  0.94738629990E+02  0.10410557058E+03 -0.13359339305E+04  0.13542301976E+04  0.17148347914E+03 0.  0.
        -24    2    3    3    0    0  0.90906671976E+02  0.24468831668E+02 -0.10498335441E+04  0.10571911174E+04  0.81485223279E+02 0.  0.
          6    2    1    2  501    0 -0.94738629990E+02 -0.10410557058E+03 -0.18440138208E+03  0.28876730693E+03  0.17195729121E+03 0.  0.
         24    2    5    5    0    0 -0.55680317709E+02 -0.13053733886E+03 -0.17725442186E+03  0.24083653213E+03  0.80267119789E+02 0.  0.
          5    1    5    5  501    0 -0.39058312281E+02  0.26431768286E+02 -0.71469602173E+01  0.47930774804E+02  0.47000000000E+01 0. -1.
        -11    1    6    6    0    0 -0.47723475102E+02 -0.81243893007E+02 -0.16405783331E+03  0.18919057296E+03  0.00000000000E+00 0.  1.
         12    1    6    6    0    0 -0.79568426068E+01 -0.49293445857E+02 -0.13196588551E+02  0.51645959165E+02  0.00000000000E+00 0. -1.
         -5    1    3    3    0  503  0.38319580137E+01  0.79636738910E+02 -0.28610038643E+03  0.29703908026E+03  0.47000000000E+01 0.  1.
         11    1    4    4    0    0  0.22527014064E+02  0.43392464205E+02 -0.57652287008E+03  0.57859225024E+03  0.00000000000E+00 0. -1.
        -12    1    4    4    0    0  0.68379657913E+02 -0.18923632537E+02 -0.47331067400E+03  0.47859886711E+03  0.00000000000E+00 0.  1.
</event>
<event>
12    1  0.8526130E-002  0.1819256E+03  0.7818608E-02  0.1166752E+00
         21   -1    0    0  501  502  0.00000000000E+00  0.00000000000E+00  0.20602187622E+03  0.20602187622E+03  0.00000000000E+00 0. -1.
         21   -1    0    0  502  503 -0.00000000000E+00 -0.00000000000E+00 -0.17437278755E+03  0.17437278755E+03  0.00000000000E+00 0. -1.
         -6    2    1    2    0  503  0.92994734053E+01 -0.49732402292E+02  0.74450531022E+02  0.19350196283E+03  0.17129020990E+03 0.  0.
        -24    2    3    3    0    0 -0.37067691434E+01  0.27680956053E+02 -0.20791269094E+01  0.83771069557E+02  0.78951211900E+02 0.  0.
          6    2    1    2  501    0 -0.92994734053E+01  0.49732402292E+02 -0.42801442353E+02  0.18689270095E+03  0.17474875151E+03 0.  0.
         24    2    5    5    0    0  0.52525950125E+02  0.33367404122E+02  0.11638809289E+02  0.10277357614E+03  0.80960403753E+02 0.  0.
          5    1    5    5  501    0 -0.61825423530E+02  0.16364998170E+02 -0.54440251642E+02  0.84119124809E+02  0.47000000000E+01 0. -1.
        -11    1    6    6    0    0 -0.82448535634E+01  0.31875463741E+02  0.23996217130E+02  0.40741149168E+02  0.00000000000E+00 0.  1.
         12    1    6    6    0    0  0.60770803689E+02  0.14919403805E+01 -0.12357407841E+02  0.62032426968E+02  0.00000000000E+00 0. -1.
         -5    1    3    3    0  503  0.13006242549E+02 -0.77413358345E+02  0.76529657931E+02  0.10973089327E+03  0.47000000000E+01 0.  1.
         11    1    4    4    0    0  0.80736504027E+01 -0.26801497960E+02 -0.93739395059E-02  0.27991145236E+02  0.00000000000E+00 0. -1.
        -12    1    4    4    0    0 -0.11780419546E+02  0.54482454013E+02 -0.20697529699E+01  0.55779924321E+02  0.00000000000E+00 0.  1.
</event>
<event>
12    1  0.8526130E-002  0.1792820E+03  0.7818608E-02  0.1168539E+00
         21   -1    0    0  503  502  0.00000000000E+00  0.00000000000E+00  0.22416622411E+03  0.22416622411E+03  0.00000000000E+00 0.  1.
         21   -1    0    0  501  503 -0.00000000000E+00 -0.00000000000E+00 -0.23800191945E+03  0.23800191945E+03  0.00000000000E+00 0.  1.
          6    2    1    2  501    0 -0.41009437132E+02 -0.30938317639E+02 -0.15271975266E+03  0.23551084772E+03  0.17176461541E+03 0.  0.
         24    2    3    3    0    0  0.53374354344E+02 -0.96800041321E+01 -0.89349899413E+02  0.11976092639E+03  0.58452979248E+02 0.  0.
         -6    2    1    2    0  502  0.41009437132E+02  0.30938317639E+02  0.13888405733E+03  0.22665729584E+03  0.17159777081E+03 0.  0.
        -24    2    5    5    0    0  0.50420816575E+02 -0.38770738361E+02  0.86693807489E+02  0.13894276609E+03  0.87999131217E+02 0.  0.
          5    1    3    3  501    0 -0.94383791476E+02 -0.21258313507E+02 -0.63369853250E+02  0.11574992133E+03  0.47000000000E+01 0. -1.
        -13    1    4    4    0    0  0.13264549871E+02 -0.24404533177E+02 -0.97853624618E+01  0.29449666235E+02  0.00000000000E+00 0.  1.
         14    1    4    4    0    0  0.40109804473E+02  0.14724529045E+02 -0.79564536951E+02  0.90311260155E+02  0.00000000000E+00 0. -1.
         -5    1    5    5    0  502 -0.94113794429E+01  0.69709056000E+02  0.52190249837E+02  0.87714529751E+02  0.47000000000E+01 0.  1.
         11    1    6    6    0    0  0.13224377512E+02  0.27695089517E+02  0.14289715918E+02  0.33854071025E+02  0.00000000000E+00 0. -1.
        -12    1    6    6    0    0  0.37196439062E+02 -0.66465827878E+02  0.72404091571E+02  0.10508869507E+03  0.00000000000E+00 0.  1.
</event>
<event>
12    1  0.8526130E-002  0.2356149E+03  0.7818608E-02  0.1123656E+00
         21   -1    0    0  501  502  0.00000000000E+00  0.00000000000E+00  0.22089178514E+04  0.22089178514E+04  0.00000000000E+00 0. -1.
         21   -1    0    0  502  503 -0.00000000000E+00 -0.00000000000E+00 -0.24997018860E+02  0.24997018860E+02  0.00000000000E+00 0. -1.
         -6    2    1    2    0  503  0.13875421109E+02  0.15328665969E+03  0.93473248366E+03  0.96270052938E+03  0.17140060065E+03 0.  0.
        -24    2    3    3    0    0 -0.25193232820E+02  0.22925558852E+02  0.49122676175E+03  0.49876110262E+03  0.79363882221E+02 0.  0.
          6    2    1    2  501    0 -0.13875421109E+02 -0.15328665969E+03  0.12491883489E+04  0.12712143409E+04  0.17839574586E+03 0.  0.
         24    2    5    5    0    0  0.22831729918E+02 -0.22849652277E+01  0.39417535598E+03  0.40218141015E+03  0.76479843445E+02 0.  0.
          5    1    5    5  501    0 -0.36707151027E+02 -0.15100169446E+03  0.85501299289E+03  0.86903293072E+03  0.47000000000E+01 0. -1.
        -11    1    6    6    0    0  0.65572785391E+01 -0.37592924834E+02  0.14251079470E+03  0.14753153055E+03  0.00000000000E+00 0.  1.
         12    1    6    6    0    0  0.16274451379E+02  0.35307959606E+02  0.25166456128E+03  0.25464987960E+03  0.00000000000E+00 0. -1.
         -5    1    3    3    0  503  0.39068653929E+02  0.13036110083E+03  0.44350572191E+03  0.46393942675E+03  0.47000000000E+01 0.  1.
         11    1    4    4    0    0 -0.29411829381E+01  0.42859901139E+02  0.14453672288E+03  0.15078622597E+03  0.00000000000E+00 0. -1.
        -12    1    4    4    0    0 -0.22252049882E+02 -0.19934342287E+02  0.34669003888E+03  0.34797487665E+03  0.00000000000E+00 0.  1.
</event>
<event>
12    1  0.8526130E-002  0.1903302E+03  0.7818608E-02  0.1159487E+00
         21   -1    0    0  501  502  0.00000000000E+00  0.00000000000E+00  0.70223596919E+03  0.70223596919E+03  0.00000000000E+00 0.  1.
         21   -1    0    0  502  503 -0.00000000000E+00 -0.00000000000E+00 -0.62157713403E+02  0.62157713403E+02  0.00000000000E+00 0.  1.
         -6    2    1    2    0  503 -0.82414581620E+02 -0.42354342514E+01  0.14725714094E+03  0.23609619174E+03  0.16506557494E+03 0.  0.
        -24    2    3    3    0    0 -0.54234746436E+02 -0.11076925835E+02  0.17315992160E+03  0.19693047760E+03  0.75717557755E+02 0.  0.
          6    2    1    2  501    0  0.82414581620E+02  0.42354342514E+01  0.49282111485E+03  0.52829749085E+03  0.17150943250E+03 0.  0.
         24    2    5    5    0    0  0.57592564123E+02 -0.27884381523E+02  0.47265768161E+03  0.48272919971E+03  0.74348867432E+02 0.  0.
          5    1    5    5  501    0  0.24822017497E+02  0.32119815775E+02  0.20163433233E+02  0.45568291144E+02  0.47000000000E+01 0. -1.
        -13    1    6    6    0    0 -0.92983059291E+01 -0.18345749411E+00  0.74353530086E+01  0.11906998957E+02  0.00000000000E+00 0.  1.
         14    1    6    6    0    0  0.66890870052E+02 -0.27700924029E+02  0.46522232861E+03  0.47082220075E+03  0.00000000000E+00 0. -1.
         -5    1    3    3    0  503 -0.28179835184E+02  0.68414915836E+01 -0.25902780660E+02  0.39165714139E+02  0.47000000000E+01 0.  1.
         13    1    4    4    0    0 -0.60026994015E+02  0.43008949491E-02  0.66679493231E+02  0.89718419773E+02  0.00000000000E+00 0. -1.
        -14    1    4    4    0    0  0.57922475791E+01 -0.11081226730E+02  0.10648042837E+03  0.10721205783E+03  0.00000000000E+00 0.  1.
</event>
<event>
12    1  0.8526130E-002  0.2180833E+03  0.7818608E-02  0.1135459E+00
         21   -1    0    0  501  502  0.00000000000E+00  0.00000000000E+00  0.10407054161E+03  0.10407054161E+03  0.00000000000E+00 0.  1.
         21   -1    0    0  502  503 -0.00000000000E+00 -0.00000000000E+00 -0.11517469780E+04  0.11517469780E+04  0.00000000000E+00 0. -1.
         -6    2    1    2    0  503 -0.10772179538E+03 -0.78626914557E+02 -0.10124061040E+04  0.10356285172E+04  0.17255181656E+03 0.  0.
        -24    2    3    3    0    0 -0.25642172630E+02 -0.83973201576E+02 -0.78164692287E+03  0.79060293300E+03  0.79825221752E+02 0.  0.
          6    2    1    2  501    0  0.10772179538E+03  0.78626914557E+02 -0.35270332344E+02  0.22018900233E+03  0.17161883204E+03 0.  0.
         24    2    5    5    0    0  0.70505500867E+02  0.43518053332E+02  0.46013680887E+02  0.12402837878E+03  0.80005832893E+02 0.  0.
          5    1    5    5  501    0  0.37216294518E+02  0.35108861225E+02 -0.81284013231E+02  0.96160623548E+02  0.47000000000E+01 0. -1.
        -13    1    6    6    0    0  0.18855159179E+02  0.55742259878E+02  0.38747160660E+02  0.70456078682E+02  0.00000000000E+00 0.  1.
         14    1    6    6    0    0  0.51650341687E+02 -0.12224206546E+02  0.72665202273E+01  0.53572300103E+02  0.00000000000E+00 0. -1.
         -5    1    3    3    0  503 -0.82079622755E+02  0.53462870186E+01 -0.23075918114E+03  0.24502558425E+03  0.47000000000E+01 0.  1.
         11    1    4    4    0    0 -0.31720199327E+02 -0.12644822549E+02 -0.45122093064E+03  0.45251120520E+03  0.00000000000E+00 0. -1.
        -12    1    4    4    0    0  0.60780266970E+01 -0.71328379027E+02 -0.33042599223E+03  0.33809172780E+03  0.00000000000E+00 0.  1.
</event>
<event>
12    1  0.8526130E-002  0.2086048E+03  0.7818608E-02  0.1143012E+00
         21   -1    0    0  503  502  0.00000000000E+00  0.00000000000E+00  0.14160500699E+03  0.14160500699E+03  0.00000000000E+00 0. -1.
         21   -1    0    0  501  503 -0.00000000000E+00 -0.00000000000E+00 -0.31125929232E+03  0.31125929232E+03  0.00000000000E+00 0. -1.
          6    2    1    2  501    0  0.10902146739E+03 -0.42841959135E+02 -0.52649208405E+02  0.21514620954E+03  0.17261181454E+03 0.  0.
         24    2    3    3    0    0  0.28769700178E+01  0.31927963168E+02 -0.36014113812E+02  0.84165249187E+02  0.68986237675E+02 0.  0.
         -6    2    1    2    0  502 -0.10902146739E+03  0.42841959135E+02 -0.11700507693E+03  0.23771808977E+03  0.17058308346E+03 0.  0.
        -24    2    5    5    0    0 -0.80661864935E+02 -0.19216722251E+02 -0.12271433825E+03  0.16908695506E+03  0.81584132588E+02 0.  0.
          5    1    3    3  501    0  0.10614449737E+03 -0.74769922302E+02 -0.16635094593E+02  0.13098096035E+03  0.47000000000E+01 0. -1.
        -11    1    4    4    0    0  0.29380325443E+02  0.33513524391E+02 -0.36504119528E+02  0.57609986832E+02  0.00000000000E+00 0.  1.
         12    1    4    4    0    0 -0.26503355425E+02 -0.15855612239E+01  0.49000571571E+00  0.26555262356E+02  0.00000000000E+00 0. -1.
         -5    1    5    5    0  502 -0.28359602452E+02  0.62058681386E+02  0.57092613207E+01  0.68631134709E+02  0.47000000000E+01 0.  1.
         11    1    6    6    0    0 -0.60388951554E+02  0.25129840275E+02 -0.53942111740E+02  0.84782579349E+02  0.00000000000E+00 0. -1.
        -12    1    6    6    0    0 -0.20272913381E+02 -0.44346562526E+02 -0.68772226508E+02  0.84304375709E+02  0.00000000000E+00 0.  1.
</event>
<event>
12    1  0.8526130E-002  0.2268754E+03  0.7818608E-02  0.1131783E+00
         21   -1    0    0  503  502  0.00000000000E+00  0.00000000000E+00  0.12501871156E+03  0.12501871156E+03  0.00000000000E+00 0.  1.
         21   -1    0    0  501  503 -0.00000000000E+00 -0.00000000000E+00 -0.43330676711E+03  0.43330676711E+03  0.00000000000E+00 0.  1.
          6    2    1    2  501    0  0.12315527581E+03  0.12198321116E+01 -0.64634610791E+02  0.23590266942E+03  0.19053536831E+03 0.  0.
         24    2    3    3    0    0  0.81978121880E+02  0.43248232233E+02 -0.10837140557E+03  0.16243878958E+03  0.77789310044E+02 0.  0.
         -6    2    1    2    0  502 -0.12315527581E+03 -0.12198321116E+01 -0.24365344476E+03  0.32242280925E+03  0.17152479946E+03 0.  0.
        -24    2    5    5    0    0  0.35650625623E+01 -0.17042352831E+02 -0.71440012942E+02  0.10797479127E+03  0.79067873618E+02 0.  0.
          5    1    3    3  501    0  0.41177153932E+02 -0.42028400121E+02  0.43736794782E+02  0.73463879835E+02  0.47000000000E+01 0. -1.
        -13    1    4    4    0    0  0.56656385596E+02  0.16395339490E+01 -0.17472219729E+02  0.59311993413E+02  0.00000000000E+00 0.  1.
         14    1    4    4    0    0  0.25321736285E+02  0.41608698284E+02 -0.90899185844E+02  0.10312679617E+03  0.00000000000E+00 0. -1.
         -5    1    5    5    0  502 -0.12672033837E+03  0.15822520719E+02 -0.17221343182E+03  0.21444801799E+03  0.47000000000E+01 0.  1.
         11    1    6    6    0    0  0.22319205250E+02 -0.29027392761E+02 -0.38538909460E+01  0.36818323277E+02  0.00000000000E+00 0. -1.
        -12    1    6    6    0    0 -0.18754142688E+02  0.11985039930E+02 -0.67586121996E+02  0.71156467989E+02  0.00000000000E+00 0.  1.
</event>
<event>
12    1  0.8526130E-002  0.1889930E+03  0.7818608E-02  0.1159687E+00
         21   -1    0    0  501  502  0.00000000000E+00  0.00000000000E+00  0.33613598293E+03  0.33613598293E+03  0.00000000000E+00 0.  1.
         21   -1    0    0  502  503 -0.00000000000E+00 -0.00000000000E+00 -0.13296386119E+03  0.13296386119E+03  0.00000000000E+00 0.  1.
         -6    2    1    2    0  503 -0.74091715529E+02  0.16022534825E+02 -0.47390896165E+01  0.18905244624E+03  0.17312441921E+03 0.  0.
        -24    2    3    3    0    0  0.14554393576E+02  0.48658825112E+02 -0.95807478257E+01  0.94348741151E+02  0.78932772625E+02 0.  0.
          6    2    1    2  501    0  0.74091715529E+02 -0.16022534825E+02  0.20791121135E+03  0.28004739788E+03  0.17161925686E+03 0.  0.
         24    2    5    5    0    0  0.39534378730E+02  0.12252737870E+02  0.21668870509E+03  0.23429988463E+03  0.78926195507E+02 0.  0.
          5    1    5    5  501    0  0.34557336799E+02 -0.28275272695E+02 -0.87774937389E+01  0.45747513254E+02  0.47000000000E+01 0. -1.
        -13    1    6    6    0    0  0.34952891491E+02 -0.14095448321E+02  0.19828729127E+03  0.20183715259E+03  0.00000000000E+00 0.  1.
         14    1    6    6    0    0  0.45814872392E+01  0.26348186191E+02  0.18401413821E+02  0.32462732040E+02  0.00000000000E+00 0. -1.
         -5    1    3    3    0  503 -0.88646109105E+02 -0.32636290287E+02  0.48416582092E+01  0.94703705088E+02  0.47000000000E+01 0.  1.
         11    1    4    4    0    0  0.45565416476E+02  0.38082230939E+02 -0.14724745454E+02  0.61182363640E+02  0.00000000000E+00 0. -1.
        -12    1    4    4    0    0 -0.31011022900E+02  0.10576594173E+02  0.51439976281E+01  0.33166377511E+02  0.00000000000E+00 0.  1.
</event>
<event>
12    1  0.8526130E-002  0.1928341E+03  0.7818608E-02  0.1156115E+00
         21   -1    0    0  501  502  0.00000000000E+00  0.00000000000E+00  0.35095268996E+03  0.35095268996E+03  0.00000000000E+00 0. -1.
         21   -1    0    0  502  503 -0.00000000000E+00 -0.00000000000E+00 -0.12886184635E+03  0.12886184635E+03  0.00000000000E+00 0. -1.
         -6    2    1    2    0  503  0.85915330624E+02 -0.72508147339E+01  0.86925490301E+01  0.19219702769E+03  0.17155208741E+03 0.  0.
        -24    2    3    3    0    0  0.98394485483E+02  0.41467528820E+02  0.30166017343E+02  0.13731163669E+03  0.80891694551E+02 0.  0.
          6    2    1    2  501    0 -0.85915330624E+02  0.72508147339E+01  0.21339829458E+03  0.28761750862E+03  0.17248472622E+03 0.  0.
         24    2    5    5    0    0 -0.12188490230E+02  0.51774990992E+02  0.15365994493E+03  0.18269463368E+03  0.83287102917E+02 0.  0.
          5    1    5    5  501    0 -0.73726840393E+02 -0.44524176258E+02  0.59738349655E+02  0.10492287494E+03  0.47000000000E+01 0. -1.
        -11    1    6    6    0    0 -0.88918249907E+01  0.28209401191E+02  0.15600516717E+03  0.15878427835E+03  0.00000000000E+00 0.  1.
         12    1    6    6    0    0 -0.32966652398E+01  0.23565589801E+02 -0.23452222435E+01  0.23910355324E+02  0.00000000000E+00 0. -1.
         -5    1    3    3    0  503 -0.12479154860E+02 -0.48718343554E+02 -0.21473468313E+02  0.54885391008E+02  0.47000000000E+01 0.  1.
         11    1    4    4    0    0  0.26849275509E+02 -0.61310617007E+01 -0.23325306155E+02  0.36090766411E+02  0.00000000000E+00 0. -1.
        -12    1    4    4    0    0  0.71545209974E+02  0.47598590521E+02  0.53491323498E+02  0.10122087028E+03  0.00000000000E+00 0.  1.
</event>
<event>
12    1  0.8526130E-002  0.2537379E+03  0.7818608E-02  0.1111330E+00
         21   -1    0    0  501  502  0.00000000000E+00  0.00000000000E+00  0.92036121967E+03  0.92036121967E+03  0.00000000000E+00 0. -1.
         21   -1    0    0  502  503 -0.00000000000E+00 -0.00000000000E+00 -0.70751892781E+02  0.70751892781E+02  0.00000000000E+00 0.  1.
         -6    2    1    2    0  503 -0.40885642099E+02  0.18332595608E+03  0.49748108323E+03  0.55845351377E+03  0.17059559480E+03 0.  0.
        -24    2    3    3    0    0 -0.84664186106E+02  0.93617357888E+02  0.35004718486E+03  0.38034389052E+03  0.78716004213E+02 0.  0.
          6    2    1    2  501    0  0.40885642099E+02 -0.18332595608E+03  0.35212824366E+03  0.43265959868E+03  0.16709274803E+03 0.  0.
         24    2    5    5    0    0  0.49114282502E+02 -0.18943420100E+03  0.23844681155E+03  0.31842046710E+03  0.78975836015E+02 0.  0.
          5    1    5    5  501    0 -0.82286404031E+01  0.61082449166E+01  0.11368143210E+03  0.11423913158E+03  0.47000000000E+01 0. -1.
        -13    1    6    6    0    0  0.41732351992E+01 -0.13469634748E+03  0.18866668164E+03  0.23185262276E+03  0.00000000000E+00 0.  1.
         14    1    6    6    0    0  0.44941047302E+02 -0.54737853517E+02  0.49780129910E+02  0.86567844342E+02  0.00000000000E+00 0. -1.
         -5    1    3    3    0  503  0.43778544007E+02  0.89708598196E+02  0.14743389837E+03  0.17810962325E+03  0.47000000000E+01 0.  1.
         13    1    4    4    0    0 -0.42420375560E+02  0.11709090244E+02  0.50718355338E+02  0.67148660636E+02  0.00000000000E+00 0. -1.
        -14    1    4    4    0    0 -0.42243810545E+02  0.81908267645E+02  0.29932882952E+03  0.31319522988E+03  0.00000000000E+00 0.  1.
</event>
<event>
12    1  0.8526130E-002  0.4026873E+03  0.7818608E-02  0.1042948E+00
         21   -1    0    0  501  502  0.00000000000E+00  0.00000000000E+00  0.32907991844E+03  0.32907991844E+03  0.00000000000E+00 0.  1.
         21   -1    0    0  502  503 -0.00000000000E+00 -0.00000000000E+00 -0.10126989874E+04  0.10126989874E+04  0.00000000000E+00 0. -1.
         -6    2    1    2    0  503 -0.24491566855E+03  0.26810654834E+03 -0.82337940003E+03  0.91657552169E+03  0.17404667365E+03 0.  0.
        -24    2    3    3    0    0 -0.24823413072E+03  0.27971249782E+03 -0.74825646844E+03  0.84034393307E+03  0.80193005816E+02 0.  0.
          6    2    1    2  501    0  0.24491566855E+03 -0.26810654834E+03  0.13976033110E+03  0.42520338412E+03  0.17146475366E+03 0.  0.
         24    2    5    5    0    0  0.18946790419E+03 -0.27034859022E+03  0.14342099561E+03  0.36939145179E+03  0.83030209691E+02 0.  0.
          5    1    5    5  501    0  0.55447764368E+02  0.22420418821E+01 -0.36606645104E+01  0.55811932325E+02  0.47000000000E+01 0. -1.
        -13    1    6    6    0    0  0.10392727546E+03 -0.20882738951E+03  0.11602557588E+03  0.26052195964E+03  0.00000000000E+00 0.  1.
         14    1    6    6    0    0  0.85540628724E+02 -0.61521200711E+02  0.27395419737E+02  0.10886949215E+03  0.00000000000E+00 0. -1.
         -5    1    3    3    0  503  0.33184621683E+01 -0.11605949479E+02 -0.75122931588E+02  0.76231588628E+02  0.47000000000E+01 0.  1.
         11    1    4    4    0    0 -0.15872141680E+03  0.13724540404E+03 -0.35119494835E+03  0.40910473089E+03  0.00000000000E+00 0. -1.
        -12    1    4    4    0    0 -0.89512713918E+02  0.14246709378E+03 -0.39706152009E+03  0.43123920218E+03  0.00000000000E+00 0.  1.
</event>
<event>
12    1  0.8526130E-002  0.1909373E+03  0.7818608E-02  0.1157630E+00
         21   -1    0    0  503  502  0.00000000000E+00  0.00000000000E+00  0.42394819047E+03  0.42394819047E+03  0.00000000000E+00 0.  1.
         21   -1    0    0  501  503 -0.00000000000E+00 -0.00000000000E+00 -0.89556617635E+02  0.89556617635E+02  0.00000000000E+00 0.  1.
          6    2    1    2  501    0  0.76776094202E+02 -0.33245563317E+02  0.11584372952E+03  0.22333120421E+03  0.17163106067E+03 0.  0.
         24    2    3    3    0    0  0.10508131712E+03 -0.17649663060E+02  0.46303104767E+02  0.14650408504E+03  0.89251754097E+02 0.  0.
         -6    2    1    2    0  502 -0.76776094202E+02  0.33245563317E+02  0.21854784332E+03  0.29017360389E+03  0.17157425347E+03 0.  0.
        -24    2    5    5    0    0 -0.45713792181E+02  0.31608032256E+02  0.34574319351E+02  0.10352983722E+03  0.80213621899E+02 0.  0.
          5    1    3    3  501    0 -0.28305222921E+02 -0.15595900256E+02  0.69540624750E+02  0.76827119170E+02  0.47000000000E+01 0. -1.
        -13    1    4    4    0    0  0.57793082951E+02 -0.84051187955E+01 -0.22433441996E+02  0.62561535937E+02  0.00000000000E+00 0.  1.
         14    1    4    4    0    0  0.47288234172E+02 -0.92445442650E+01  0.68736546764E+02  0.83942549108E+02  0.00000000000E+00 0. -1.
         -5    1    5    5    0  502 -0.31062302021E+02  0.16375310601E+01  0.18397352397E+03  0.18664376667E+03  0.47000000000E+01 0.  1.
         11    1    6    6    0    0 -0.65793245256E+02  0.34373711440E+02  0.37304355085E+02  0.83077783238E+02  0.00000000000E+00 0. -1.
        -12    1    6    6    0    0  0.20079453074E+02 -0.27656791838E+01 -0.27300357339E+01  0.20452053985E+02  0.00000000000E+00 0.  1.
</event>
<event>
12    1  0.8526130E-002  0.2058194E+03  0.7818608E-02  0.1145020E+00
         21   -1    0    0  501  502  0.00000000000E+00  0.00000000000E+00  0.48163487524E+03  0.48163487524E+03  0.00000000000E+00 0. -1.
         21   -1    0    0  502  503 -0.00000000000E+00 -0.00000000000E+00 -0.87815017908E+02  0.87815017908E+02  0.00000000000E+00 0.  1.
         -6    2    1    2    0  503  0.39750820805E+02 -0.10530601381E+03  0.18906966497E+03  0.27947984242E+03  0.17231413119E+03 0.  0.
        -24    2    3    3    0    0  0.55587901780E+02 -0.66774742650E+02  0.20410198447E+03  0.23494297431E+03  0.77406072329E+02 0.  0.
          6    2    1    2  501    0 -0.39750820805E+02  0.10530601381E+03  0.20475019236E+03  0.28997005072E+03  0.17172799639E+03 0.  0.
         24    2    5    5    0    0 -0.40533504033E+02  0.31665669128E+02  0.27038308980E+02  0.97545737153E+02  0.78348076771E+02 0.  0.
          5    1    5    5  501    0  0.78268322805E+00  0.73640344686E+02  0.17771188338E+03  0.19242431357E+03  0.47000000000E+01 0. -1.
        -13    1    6    6    0    0 -0.61367956520E+02  0.37402066485E+02  0.17767094693E+02  0.74031144248E+02  0.00000000000E+00 0.  1.
         14    1    6    6    0    0  0.20834452488E+02 -0.57363973574E+01  0.92712142867E+01  0.23514592904E+02  0.00000000000E+00 0. -1.
         -5    1    3    3    0  503 -0.15837080975E+02 -0.38531271164E+02 -0.15032319503E+02  0.44536868109E+02  0.47000000000E+01 0.  1.
         13    1    4    4    0    0  0.64540767978E+02 -0.32240270295E+02  0.17363932783E+03  0.18803074729E+03  0.00000000000E+00 0. -1.
        -14    1    4    4    0    0 -0.89528661978E+01 -0.34534472354E+02  0.30462656644E+02  0.46912227018E+02  0.00000000000E+00 0.  1.
</event>
<event>
12    1  0.8526130E-002  0.2061554E+03  0.7818608E-02  0.1144798E+00
         21   -1    0    0  503  502  0.00000000000E+00  0.00000000000E+00  0.55511822270E+03  0.55511822270E+03  0.00000000000E+00 0. -1.
         21   -1    0    0  501  503 -0.00000000000E+00 -0.00000000000E+00 -0.11702550135E+03  0.11702550135E+03  0.00000000000E+00 0.  1.
          6    2    1    2  501    0  0.29048265749E+02  0.10802951659E+03  0.20494751328E+02  0.20643125692E+03  0.17227783027E+03 0.  0.
         24    2    3    3    0    0 -0.27334021365E+02  0.25299763469E+01  0.12472310119E+02  0.86449738112E+02  0.81021288534E+02 0.  0.
         -6    2    1    2    0  502 -0.29048265749E+02 -0.10802951659E+03  0.41759797002E+03  0.46571246713E+03  0.17316425518E+03 0.  0.
        -24    2    5    5    0    0 -0.56083036318E+02 -0.81817910360E+02  0.15191960142E+03  0.19733770553E+03  0.77608809478E+02 0.  0.
          5    1    3    3  501    0  0.56382287114E+02  0.10549954024E+03  0.80224412089E+01  0.11998151881E+03  0.47000000000E+01 0. -1.
        -11    1    4    4    0    0  0.18031236561E+02 -0.18766305900E+02 -0.14233477663E+02  0.29662967071E+02  0.00000000000E+00 0.  1.
         12    1    4    4    0    0 -0.45365257926E+02  0.21296282247E+02  0.26705787783E+02  0.56786771042E+02  0.00000000000E+00 0. -1.
         -5    1    5    5    0  502  0.27034770569E+02 -0.26211606231E+02  0.26567836860E+03  0.26837476160E+03  0.47000000000E+01 0.  1.
         11    1    6    6    0    0 -0.13989304003E+02 -0.64243357262E+02  0.41202999249E+02  0.77592504315E+02  0.00000000000E+00 0. -1.
        -12    1    6    6    0    0 -0.42093732315E+02 -0.17574553098E+02  0.11071660217E+03  0.11974520121E+03  0.00000000000E+00 0.  1.
</event>
<event>
12    1  0.8526130E-002  0.2456097E+03  0.7818608E-02  0.1116142E+00
         21   -1    0    0  501  502  0.00000000000E+00  0.00000000000E+00  0.17161080618E+03  0.17161080618E+03  0.00000000000E+00 0. -1.
         21   -1    0    0  502  503 -0.00000000000E+00 -0.00000000000E+00 -0.39515232240E+03  0.39515232240E+03  0.00000000000E+00 0. -1.
         -6    2    1    2    0  503 -0.16036091489E+02 -0.17461412244E+03 -0.20626968314E+03  0.32073557467E+03  0.17197929728E+03 0.  0.
        -24    2    3    3    0    0  0.37273664298E+02 -0.14076769127E+03 -0.92014135138E+02  0.19010659162E+03  0.80430380801E+02 0.  0.
          6    2    1    2  501    0  0.16036091489E+02  0.17461412244E+03 -0.17271833085E+02  0.24602755391E+03  0.17170903610E+03 0.  0.
         24    2    5    5    0    0  0.54090485267E+02  0.44774461669E+02 -0.30035572899E+02  0.11004418195E+03  0.79227857016E+02 0.  0.
          5    1    5    5  501    0 -0.38054393777E+02  0.12983966077E+03  0.12763739814E+02  0.13598337196E+03  0.47000000000E+01 0. -1.
        -13    1    6    6    0    0  0.13815873448E+01  0.23434955551E+02  0.22579404951E+02  0.32572004133E+02  0.00000000000E+00 0.  1.
         14    1    6    6    0    0  0.52708897922E+02  0.21339506118E+02 -0.52614977850E+02  0.77472177817E+02  0.00000000000E+00 0. -1.
         -5    1    3    3    0  503 -0.53309755787E+02 -0.33846431172E+02 -0.11425554800E+03  0.13062898306E+03  0.47000000000E+01 0.  1.
         13    1    4    4    0    0 -0.14542586978E+02 -0.89690452802E+02 -0.67992999033E+02  0.11348529454E+03  0.00000000000E+00 0. -1.
        -14    1    4    4    0    0  0.51816251276E+02 -0.51077238465E+02 -0.24021136105E+02  0.76621297074E+02  0.00000000000E+00 0.  1.
</event>
<event>
12    1  0.8526130E-002  0.1865618E+03  0.7818608E-02  0.1162351E+00
         21   -1    0    0  503  502  0.00000000000E+00  0.00000000000E+00  0.22333928588E+03  0.22333928588E+03  0.00000000000E+00 0. -1.
         21   -1    0    0  501  503 -0.00000000000E+00 -0.00000000000E+00 -0.17166911910E+03  0.17166911910E+03  0.00000000000E+00 0. -1.
          6    2    1    2  501    0  0.50081041452E+02 -0.40957965857E+02  0.90487048424E+02  0.20445118915E+03  0.17154217304E+03 0.  0.
         24    2    3    3    0    0  0.67030272193E+02 -0.82934502868E+02  0.90566651386E+02  0.15893852697E+03  0.75418484846E+02 0.  0.
         -6    2    1    2    0  502 -0.50081041452E+02  0.40957965857E+02 -0.38816881639E+02  0.19055721583E+03  0.17498467511E+03 0.  0.
        -24    2    5    5    0    0 -0.84116254535E+02 -0.17506939225E+02 -0.14201555407E+02  0.11841468232E+03  0.80239115241E+02 0.  0.
          5    1    3    3  501    0 -0.16949230741E+02  0.41976537010E+02 -0.79602961777E-01  0.45512662180E+02  0.47000000000E+01 0. -1.
        -13    1    4    4    0    0  0.28153371439E+02  0.85944278797E+01  0.32220927779E+02  0.43642464423E+02  0.00000000000E+00 0.  1.
         14    1    4    4    0    0  0.38876900754E+02 -0.91528930747E+02  0.58345723606E+02  0.11529606255E+03  0.00000000000E+00 0. -1.
         -5    1    5    5    0  502  0.34035213084E+02  0.58464905083E+02 -0.24615326232E+02  0.72142533512E+02  0.47000000000E+01 0.  1.
         11    1    6    6    0    0 -0.30925004005E+02  0.27805071157E+02  0.12787756011E+02  0.43508672222E+02  0.00000000000E+00 0. -1.
        -12    1    6    6    0    0 -0.53191250530E+02 -0.45312010382E+02 -0.26989311418E+02  0.74906010097E+02  0.00000000000E+00 0.  1.
</event>
<event>
12    1  0.8526130E-002  0.2030944E+03  0.7818608E-02  0.1147391E+00
         21   -1    0    0  501  502  0.00000000000E+00  0.00000000000E+00  0.24495513529E+03  0.24495513529E+03  0.00000000000E+00 0. -1.
         21   -1    0    0  502  503 -0.00000000000E+00 -0.00000000000E+00 -0.16859721603E+03  0.16859721603E+03  0.00000000000E+00 0. -1.
         -6    2    1    2    0  503 -0.96017716022E+02  0.46478530893E+02  0.55387867048E+02  0.21051167538E+03  0.17282272429E+03 0.  0.
        -24    2    3    3    0    0 -0.11990793996E+03  0.71279857536E+02  0.21972560636E+02  0.16229838566E+03  0.79995252434E+02 0.  0.
          6    2    1    2  501    0  0.96017716022E+02 -0.46478530893E+02  0.20970052214E+02  0.20304067593E+03  0.17148211968E+03 0.  0.
         24    2    5    5    0    0  0.38232472235E+02 -0.46397440393E+02 -0.51111909293E+02  0.11053640495E+03  0.77404296648E+02 0.  0.
          5    1    5    5  501    0  0.57785243787E+02 -0.81090500848E-01  0.72081961507E+02  0.92504270982E+02  0.47000000000E+01 0. -1.
        -11    1    6    6    0    0  0.34422617343E+02 -0.66793201905E+02 -0.48941806565E+02  0.89674683358E+02  0.00000000000E+00 0.  1.
         12    1    6    6    0    0  0.38098548920E+01  0.20395761512E+02 -0.21701027276E+01  0.20861721593E+02  0.00000000000E+00 0. -1.
         -5    1    3    3    0  503  0.23890223938E+02 -0.24801326643E+02  0.33415306412E+02  0.48213289720E+02  0.47000000000E+01 0.  1.
         11    1    4    4    0    0 -0.31588236597E+02 -0.10487749247E+02  0.25434649369E+02  0.41889508999E+02  0.00000000000E+00 0. -1.
        -12    1    4    4    0    0 -0.88319703363E+02  0.81767606783E+02 -0.34620887331E+01  0.12040887666E+03  0.00000000000E+00 0.  1.
</event>
<event>
12    1  0.8526130E-002  0.2590033E+03  0.7818608E-02  0.1108131E+00
         21   -1    0    0  501  502  0.00000000000E+00  0.00000000000E+00  0.43739768566E+03  0.43739768566E+03  0.00000000000E+00 0.  1.
         21   -1    0    0  502  503 -0.00000000000E+00 -0.00000000000E+00 -0.18000158352E+03  0.18000158352E+03  0.00000000000E+00 0. -1.
         -6    2    1    2    0  503 -0.18733743511E+03  0.50007040528E+02  0.61027882074E+01  0.25652392489E+03  0.16784296625E+03 0.  0.
        -24    2    3    3    0    0 -0.14357100336E+03  0.69940258156E+02 -0.47506380411E+02  0.18435144624E+03  0.78894403075E+02 0.  0.
          6    2    1    2  501    0  0.18733743511E+03 -0.50007040528E+02  0.25129331393E+03  0.36087534429E+03  0.17171681861E+03 0.  0.
         24    2    5    5    0    0  0.13170042981E+03 -0.97369529548E+02  0.14992537942E+03  0.23583043287E+03  0.79451527216E+02 0.  0.
          5    1    5    5  501    0  0.55637005302E+02  0.47362489020E+02  0.10136793452E+03  0.12504491143E+03  0.47000000000E+01 0. -1.
        -11    1    6    6    0    0  0.58170927882E+02 -0.77649270899E+02  0.11930355088E+03  0.15377452121E+03  0.00000000000E+00 0.  1.
         12    1    6    6    0    0  0.73529501924E+02 -0.19720258649E+02  0.30621828540E+02  0.82055911655E+02  0.00000000000E+00 0. -1.
         -5    1    3    3    0  503 -0.43766431751E+02 -0.19933217628E+02  0.53609168619E+02  0.72172478641E+02  0.47000000000E+01 0.  1.
         13    1    4    4    0    0 -0.13077585059E+02  0.30044207510E+02 -0.34014848295E+02  0.47230154990E+02  0.00000000000E+00 0. -1.
        -14    1    4    4    0    0 -0.13049341830E+03  0.39896050646E+02 -0.13491532116E+02  0.13712129125E+03  0.00000000000E+00 0.  1.
</event>
<event>
12    1  0.8526130E-002  0.2188400E+03  0.7818608E-02  0.1134907E+00
         21   -1    0    0  503  502  0.00000000000E+00  0.00000000000E+00  0.38413301995E+03  0.38413301995E+03  0.00000000000E+00 0. -1.
         21   -1    0    0  501  503 -0.00000000000E+00 -0.00000000000E+00 -0.24237980000E+03  0.24237980000E+03  0.00000000000E+00 0. -1.
          6    2    1    2  501    0  0.70133687666E+02  0.11234318075E+03 -0.14793001808E+03  0.26346002595E+03  0.17317092889E+03 0.  0.
         24    2    3    3    0    0  0.11229528881E+03  0.10843493463E+03 -0.11462066706E+03  0.20938158417E+03  0.79588840520E+02 0.  0.
         -6    2    1    2    0  502 -0.70133687666E+02 -0.11234318075E+03  0.28968323803E+03  0.36305279400E+03  0.17421603952E+03 0.  0.
        -24    2    5    5    0    0 -0.44680722582E+02 -0.75356292106E+02  0.29487944004E+03  0.31761081035E+03  0.79043057613E+02 0.  0.
          5    1    3    3  501    0 -0.42161601147E+02  0.39082461216E+01 -0.33309351028E+02  0.54078441776E+02  0.47000000000E+01 0. -1.
        -13    1    4    4    0    0  0.40156462296E+02  0.22924687979E+02  0.38949580230E+01  0.46403162403E+02  0.00000000000E+00 0.  1.
         14    1    4    4    0    0  0.72138826517E+02  0.85510246649E+02 -0.11851562508E+03  0.16297842177E+03  0.00000000000E+00 0. -1.
         -5    1    5    5    0  502 -0.25452965084E+02 -0.36986888643E+02 -0.51962020099E+01  0.45441983654E+02  0.47000000000E+01 0.  1.
         11    1    6    6    0    0  0.15032750738E+01 -0.64971740044E+02  0.12035466755E+03  0.13678023557E+03  0.00000000000E+00 0. -1.
        -12    1    6    6    0    0 -0.46183997656E+02 -0.10384552062E+02  0.17452477249E+03  0.18083057478E+03  0.00000000000E+00 0.  1.
</event>
<event>
12    1  0.8526130E-002  0.2061669E+03  0.7818608E-02  0.1144691E+00
         21   -1    0    0  503  502  0.00000000000E+00  0.00000000000E+00  0.33198367563E+03  0.33198367563E+03  0.00000000000E+00 0.  1.
         21   -1    0    0  501  503 -0.00000000000E+00 -0.00000000000E+00 -0.19929521003E+03  0.19929521003E+03  0.00000000000E+00 0.  1.
          6    2    1    2  501    0  0.42459966432E+02 -0.10526084691E+03 -0.92710045374E+02  0.22581318915E+03  0.17179566129E+03 0.  0.
         24    2    3    3    0    0  0.71211973296E+01 -0.49507628311E+02 -0.12159125814E+03  0.15360886492E+03  0.79432566459E+02 0.  0.
         -6    2    1    2    0  502 -0.42459966432E+02  0.10526084691E+03  0.22539851097E+03  0.30546569652E+03  0.17211074446E+03 0.  0.
        -24    2    5    5    0    0 -0.52837233633E+02  0.13605356371E+03  0.14837035513E+03  0.22173215560E+03  0.76479023860E+02 0.  0.
          5    1    3    3  501    0  0.35338769103E+02 -0.55753218603E+02  0.28881212764E+02  0.72204324226E+02  0.47000000000E+01 0. -1.
        -13    1    4    4    0    0  0.14081788409E+01 -0.50755199797E+02 -0.24562061622E+02  0.56403618193E+02  0.00000000000E+00 0.  1.
         14    1    4    4    0    0  0.57130184887E+01  0.12475714861E+01 -0.97029196516E+02  0.97205246728E+02  0.00000000000E+00 0. -1.
         -5    1    5    5    0  502  0.10377267201E+02 -0.30792716795E+02  0.77028155839E+02  0.83733540915E+02  0.47000000000E+01 0.  1.
         11    1    6    6    0    0 -0.20157642559E+02  0.85924753017E+02  0.37808245586E+02  0.96014879934E+02  0.00000000000E+00 0. -1.
        -12    1    6    6    0    0 -0.32679591074E+02  0.50128810692E+02  0.11056210955E+03  0.12571727567E+03  0.00000000000E+00 0.  1.
</event>
<event>
12    1  0.8526130E-002  0.1740527E+03  0.7818608E-02  0.1173948E+00
         21   -1    0    0  501  502  0.00000000000E+00  0.00000000000E+00  0.75713198548E+02  0.75713198548E+02  0.00000000000E+00 0. -1.
         21   -1    0    0  502  503 -0.00000000000E+00 -0.00000000000E+00 -0.77423911360E+03  0.77423911360E+03  0.00000000000E+00 0. -1.
         -6    2    1    2    0  503  0.78195888581E+00  0.24432323836E+02 -0.64614407144E+03  0.66917597637E+03  0.17232752649E+03 0.  0.
        -24    2    3    3    0    0  0.27730363795E+02  0.77013494452E+02 -0.36292827172E+03  0.37982450283E+03  0.76483142790E+02 0.  0.
          6    2    1    2  501    0 -0.78195888581E+00 -0.24432323836E+02 -0.52381843612E+02  0.18077633578E+03  0.17128536461E+03 0.  0.
         24    2    5    5    0    0  0.31120178408E+02  0.14938219729E+02 -0.83958759180E+02  0.12088495358E+03  0.79827832528E+02 0.  0.
          5    1    5    5  501    0 -0.31902137294E+02 -0.39370543565E+02  0.31576915569E+02  0.59891382196E+02  0.47000000000E+01 0. -1.
        -11    1    6    6    0    0  0.55726202537E+02  0.23679473035E+02 -0.53854088448E+02  0.81033264373E+02  0.00000000000E+00 0.  1.
         12    1    6    6    0    0 -0.24606024128E+02 -0.87412533056E+01 -0.30104670732E+02  0.39851689207E+02  0.00000000000E+00 0. -1.
         -5    1    3    3    0  503 -0.26948404909E+02 -0.52581170616E+02 -0.28321579972E+03  0.28935147354E+03  0.47000000000E+01 0.  1.
         13    1    4    4    0    0  0.53712819110E+02  0.60985147672E+02 -0.25262993925E+03  0.26537924067E+03  0.00000000000E+00 0. -1.
        -14    1    4    4    0    0 -0.25982455315E+02  0.16028346780E+02 -0.11029833247E+03  0.11444526216E+03  0.00000000000E+00 0.  1.
</event>
<event>
12    1  0.8526130E-002  0.1764370E+03  0.7818608E-02  0.1171338E+00
         21   -1    0    0  503  502  0.00000000000E+00  0.00000000000E+00  0.29717066202E+02  0.29717066202E+02  0.00000000000E+00 0.  1.
         21   -1    0    0  501  503 -0.00000000000E+00 -0.00000000000E+00 -0.11400267834E+04  0.11400267834E+04  0.00000000000E+00 0.  1.
          6    2    1    2  501    0 -0.12355791426E+02  0.37861878383E+02 -0.72238021368E+03  0.74357567557E+03  0.17171320498E+03 0.  0.
         24    2    3    3    0    0 -0.20126822026E+02 -0.16227062811E+02 -0.63400663774E+03  0.63956615004E+03  0.80075196214E+02 0.  0.
         -6    2    1    2    0  502  0.12355791426E+02 -0.37861878383E+02 -0.38792950355E+03  0.42616817406E+03  0.17188317383E+03 0.  0.
        -24    2    5    5    0    0 -0.29583248625E+01 -0.76755784278E+00 -0.37543423523E+03  0.38387476436E+03  0.79997680572E+02 0.  0.
          5    1    3    3  501    0  0.77710305996E+01  0.54088941194E+02 -0.88373575947E+02  0.10400952553E+03  0.47000000000E+01 0. -1.
        -11    1    4    4    0    0 -0.33954122035E+02 -0.12088233956E+02 -0.11855452374E+03  0.12391199660E+03  0.00000000000E+00 0.  1.
         12    1    4    4    0    0  0.13827300009E+02 -0.41388288550E+01 -0.51545211400E+03  0.51565415344E+03  0.00000000000E+00 0. -1.
         -5    1    5    5    0  502  0.15314116289E+02 -0.37094320540E+02 -0.12495268314E+02  0.42293409703E+02  0.47000000000E+01 0.  1.
         13    1    6    6    0    0 -0.30978178516E+02 -0.24368298546E+02 -0.25383660184E+03  0.25687834076E+03  0.00000000000E+00 0. -1.
        -14    1    6    6    0    0  0.28019853653E+02  0.23600740703E+02 -0.12159763340E+03  0.12699642360E+03  0.00000000000E+00 0.  1.
</event>
<event>
12    1  0.8526130E-002  0.1881912E+03  0.7818608E-02  0.1160683E+00
         21   -1    0    0  501  502  0.00000000000E+00  0.00000000000E+00  0.37657998674E+03  0.37657998674E+03  0.00000000000E+00 0.  1.
         21   -1    0    0  502  503 -0.00000000000E+00 -0.00000000000E+00 -0.14331280862E+03  0.14331280862E+03  0.00000000000E+00 0. -1.
         -6    2    1    2    0  503 -0.42814221566E+02  0.63658111859E+02 -0.37197035837E+02  0.19183204838E+03  0.17184441375E+03 0.  0.
        -24    2    3    3    0    0 -0.77613826856E+01  0.10681192299E+03 -0.21712579548E+02  0.13392858290E+03  0.77436446533E+02 0.  0.
          6    2    1    2  501    0  0.42814221566E+02 -0.63658111859E+02  0.27046421396E+03  0.32806074697E+03  0.16907853175E+03 0.  0.
         24    2    5    5    0    0  0.20425705276E+01 -0.49098884189E+02  0.26805048767E+03  0.28444636043E+03  0.81509481047E+02 0.  0.
          5    1    5    5  501    0  0.40771651038E+02 -0.14559227670E+02  0.24137262888E+01  0.43614386541E+02  0.47000000000E+01 0. -1.
        -11    1    6    6    0    0  0.22715367378E+02  0.15091904550E+02  0.90509173051E+02  0.94528640657E+02  0.00000000000E+00 0.  1.
         12    1    6    6    0    0 -0.20672796850E+02 -0.64190788738E+02  0.17754131462E+03  0.18991771978E+03  0.00000000000E+00 0. -1.
         -5    1    3    3    0  503 -0.35052838880E+02 -0.43153811131E+02 -0.15484456289E+02  0.57903465486E+02  0.47000000000E+01 0.  1.
         11    1    4    4    0    0 -0.32880453504E+02  0.57601542023E+02 -0.37855224768E+02  0.76368055549E+02  0.00000000000E+00 0. -1.
        -12    1    4    4    0    0  0.25119070818E+02  0.49210380968E+02  0.16142645220E+02  0.57560527347E+02  0.00000000000E+00 0.  1.
</event>
<event>
12    1  0.8526130E-002  0.1990892E+03  0.7818608E-02  0.1151265E+00
         21   -1    0    0  503  502  0.00000000000E+00  0.00000000000E+00  0.29393265566E+02  0.29393265566E+02  0.00000000000E+00 0.  1.
         21   -1    0    0  501  503 -0.00000000000E+00 -0.00000000000E+00 -0.13437948318E+04  0.13437948318E+04  0.00000000000E+00 0.  1.
          6    2    1    2  501    0  0.42767304636E+02 -0.82353103733E+02 -0.56960613437E+03  0.60224273617E+03  0.17214554572E+03 0.  0.
         24    2    3    3    0    0 -0.17567248357E+02 -0.19566080673E+02 -0.13513912661E+03  0.15911054439E+03  0.79763036988E+02 0.  0.
         -6    2    1    2    0  502 -0.42767304636E+02  0.82353103733E+02 -0.74479543181E+03  0.77094536115E+03  0.17614039454E+03 0.  0.
        -24    2    5    5    0    0 -0.20847064264E+02 -0.24023730479E+02 -0.41139214340E+03  0.42026549216E+03  0.79798800297E+02 0.  0.
          5    1    3    3  501    0  0.60334552993E+02 -0.62787023060E+02 -0.43446700777E+03  0.44313219178E+03  0.47000000000E+01 0. -1.
        -11    1    4    4    0    0 -0.27159156608E+01 -0.40200269506E+02 -0.12568679525E+03  0.13198715228E+03  0.00000000000E+00 0.  1.
         12    1    4    4    0    0 -0.14851332697E+02  0.20634188833E+02 -0.94523313524E+01  0.27123392112E+02  0.00000000000E+00 0. -1.
         -5    1    5    5    0  502 -0.21920240372E+02  0.10637683421E+03 -0.33340328841E+03  0.35067986899E+03  0.47000000000E+01 0.  1.
         13    1    6    6    0    0  0.69013341257E+01 -0.91632819870E+01 -0.35872855765E+03  0.35891192822E+03  0.00000000000E+00 0. -1.
        -14    1    6    6    0    0 -0.27748398389E+02 -0.14860448492E+02 -0.52663585756E+02  0.61353563933E+02  0.00000000000E+00 0.  1.
</event>
<event>
12    1  0.8526130E-002  0.1929589E+03  0.7818608E-02  0.1156057E+00
         21   -1    0    0  503  502  0.00000000000E+00  0.00000000000E+00  0.18868573127E+03  0.18868573127E+03  0.00000000000E+00 0. -1.
         21   -1    0    0  501  503 -0.00000000000E+00 -0.00000000000E+00 -0.40714247291E+03  0.40714247291E+03  0.00000000000E+00 0. -1.
          6    2    1    2  501    0 -0.75803489062E+02  0.41529459025E+02 -0.32350138309E+03  0.37612951527E+03  0.17131667308E+03 0.  0.
         24    2    3    3    0    0 -0.27514405453E+02 -0.36959311691E+02 -0.21144759487E+03  0.23097282690E+03  0.80717582731E+02 0.  0.
         -6    2    1    2    0  502  0.75803489062E+02 -0.41529459025E+02  0.10504464145E+03  0.21969868891E+03  0.17251745503E+03 0.  0.
        -24    2    5    5    0    0  0.90303777545E+02 -0.53779987440E+02  0.13377177288E+03  0.18494711495E+03  0.72549905722E+02 0.  0.
          5    1    3    3  501    0 -0.48289083609E+02  0.78488770716E+02 -0.11205378822E+03  0.14515668837E+03  0.47000000000E+01 0. -1.
        -11    1    4    4    0    0 -0.46487468482E+02 -0.14586014348E+02 -0.62933773706E+02  0.79589549649E+02  0.00000000000E+00 0.  1.
         12    1    4    4    0    0  0.18973063029E+02 -0.22373297343E+02 -0.14851382116E+03  0.15138327725E+03  0.00000000000E+00 0. -1.
         -5    1    5    5    0  502 -0.14500288483E+02  0.12250528415E+02 -0.28727131431E+02  0.34751573962E+02  0.47000000000E+01 0.  1.
         13    1    6    6    0    0  0.36766136276E+02 -0.56470807015E+02  0.10315710442E+03  0.12321562001E+03  0.00000000000E+00 0. -1.
        -14    1    6    6    0    0  0.53537641268E+02  0.26908195750E+01  0.30614668459E+02  0.61731494939E+02  0.00000000000E+00 0.  1.
</event>
<event>
12    1  0.8526130E-002  0.1816986E+03  0.7818608E-02  0.1167024E+00
         21   -1    0    0  503  502  0.00000000000E+00  0.00000000000E+00  0.48963082396E+03  0.48963082396E+03  0.00000000000E+00 0. -1.
         21   -1    0    0  501  503 -0.00000000000E+00 -0.00000000000E+00 -0.14216718634E+03  0.14216718634E+03  0.00000000000E+00 0. -1.
          6    2    1    2  501    0 -0.27731202797E+02 -0.49525031886E+02 -0.56509686759E+02  0.19028331174E+03  0.17260546236E+03 0.  0.
         24    2    3    3    0    0  0.34819414089E+02  0.13544665312E+02 -0.90914695971E+01  0.89481805322E+02  0.80799066259E+02 0.  0.
         -6    2    1    2    0  502  0.27731202797E+02  0.49525031886E+02  0.40397332439E+03  0.44151469856E+03  0.16887579411E+03 0.  0.
        -24    2    5    5    0    0  0.39314433570E+02  0.74181101972E+02  0.16836495440E+03  0.20429014875E+03  0.79619384742E+02 0.  0.
          5    1    3    3  501    0 -0.62550616886E+02 -0.63069697198E+02 -0.47418217162E+02  0.10080150642E+03  0.47000000000E+01 0. -1.
        -13    1    4    4    0    0  0.93552040333E+01  0.17481101902E+02 -0.42731726105E+02  0.47107421731E+02  0.00000000000E+00 0.  1.
         14    1    4    4    0    0  0.25464210056E+02 -0.39364365906E+01  0.33640256508E+02  0.42374383591E+02  0.00000000000E+00 0. -1.
         -5    1    5    5    0  502 -0.11583230773E+02 -0.24656070086E+02  0.23560836998E+03  0.23722454981E+03  0.47000000000E+01 0.  1.
         11    1    6    6    0    0 -0.74373727210E+01  0.53879981095E+02  0.12864833833E+03  0.13967376930E+03  0.00000000000E+00 0. -1.
        -12    1    6    6    0    0  0.46751806291E+02  0.20301120877E+02  0.39716616077E+02  0.64616379448E+02  0.00000000000E+00 0.  1.
</event>
<event>
12    1  0.8526130E-002  0.2175996E+03  0.7818608E-02  0.1139301E+00
         21   -1    0    0  501  502  0.00000000000E+00  0.00000000000E+00  0.12976343334E+04  0.12976343334E+04  0.00000000000E+00 0.  1.
         21   -1    0    0  502  503 -0.00000000000E+00 -0.00000000000E+00 -0.92785803572E+02  0.92785803572E+02  0.00000000000E+00 0.  1.
         -6    2    1    2    0  503  0.35612664984E+02  0.97087022635E+02  0.37353020767E+02  0.20281947067E+03  0.17042986139E+03 0.  0.
        -24    2    3    3    0    0 -0.39810552122E+02  0.20597463852E+02  0.26363854200E+02  0.94735401252E+02  0.79187169824E+02 0.  0.
          6    2    1    2  501    0 -0.35612664984E+02 -0.97087022635E+02  0.11674955091E+04  0.11876006663E+04  0.19145607079E+03 0.  0.
         24    2    5    5    0    0  0.29819333866E+02 -0.94637802776E+02  0.99112815017E+03  0.99941224893E+03  0.81512740463E+02 0.  0.
          5    1    5    5  501    0 -0.65431998850E+02 -0.24492198587E+01  0.17636735893E+03  0.18818841741E+03  0.47000000000E+01 0. -1.
        -11    1    6    6    0    0 -0.68018982642E+01 -0.10137655849E+02  0.16939580147E+02  0.20880307988E+02  0.00000000000E+00 0.  1.
         12    1    6    6    0    0  0.36621232130E+02 -0.84500146927E+02  0.97418857002E+03  0.97853194094E+03  0.00000000000E+00 0. -1.
         -5    1    3    3    0  503  0.75423217105E+02  0.76489558782E+02  0.10989166568E+02  0.10808406942E+03  0.47000000000E+01 0.  1.
         11    1    4    4    0    0 -0.13237553623E+02  0.30467442306E+02 -0.21169821498E+02  0.39391105708E+02  0.00000000000E+00 0. -1.
        -12    1    4    4    0    0 -0.26572998499E+02 -0.98699784540E+01  0.47533675698E+02  0.55344295544E+02  0.00000000000E+00 0.  1.
</event>
<event>
12    1  0.8526130E-002  0.1732091E+03  0.7818608E-02  0.1175153E+00
         21   -1    0    0  501  502  0.00000000000E+00  0.00000000000E+00  0.55639693890E+02  0.55639693890E+02  0.00000000000E+00 0.  1.
         21   -1    0    0  502  503 -0.00000000000E+00 -0.00000000000E+00 -0.86990868372E+03  0.86990868372E+03  0.00000000000E+00 0.  1.
         -6    2    1    2    0  503 -0.18789556846E+02  0.96267465698E+00 -0.69736105457E+03  0.71854981003E+03  0.17218424688E+03 0.  0.
        -24    2    3    3    0    0  0.19286351572E+02  0.60052642126E+02 -0.44656534532E+03  0.45804649559E+03  0.80048118633E+02 0.  0.
          6    2    1    2  501    0  0.18789556846E+02 -0.96267465698E+00 -0.11690793526E+03  0.20699856758E+03  0.16978506254E+03 0.  0.
         24    2    5    5    0    0 -0.41195342856E+02 -0.24984502118E+02 -0.25165790841E+02  0.94686736281E+02  0.77530506124E+02 0.  0.
          5    1    5    5  501    0  0.59984899702E+02  0.24021827461E+02 -0.91742144415E+02  0.11231183129E+03  0.47000000000E+01 0. -1.
        -11    1    6    6    0    0 -0.29739582066E+02  0.17172041184E+02 -0.35922510051E+02  0.49696563948E+02  0.00000000000E+00 0.  1.
         12    1    6    6    0    0 -0.11455760790E+02 -0.42156543301E+02  0.10756719210E+02  0.44990172333E+02  0.00000000000E+00 0. -1.
         -5    1    3    3    0  503 -0.38075908418E+02 -0.59089967469E+02 -0.25079570925E+03  0.26050331445E+03  0.47000000000E+01 0.  1.
         13    1    4    4    0    0  0.15218976973E+01 -0.17425175917E+02 -0.38163029884E+02  0.41980588113E+02  0.00000000000E+00 0. -1.
        -14    1    4    4    0    0  0.17764453875E+02  0.77477818043E+02 -0.40840231543E+03  0.41606590747E+03  0.00000000000E+00 0.  1.
</event>
<event>
12    1  0.8526130E-002  0.2252489E+03  0.7818608E-02  0.1130166E+00
         21   -1    0    0  501  502  0.00000000000E+00  0.00000000000E+00  0.74735188658E+03  0.74735188658E+03  0.00000000000E+00 0.  1.
         21   -1    0    0  502  503 -0.00000000000E+00 -0.00000000000E+00 -0.71817161338E+02  0.71817161338E+02  0.00000000000E+00 0.  1.
         -6    2    1    2    0  503  0.41690724145E+02 -0.13922547803E+03  0.23871253763E+03  0.32769099762E+03  0.17110191142E+03 0.  0.
        -24    2    3    3    0    0  0.42547116369E+02 -0.68572623410E+01  0.77631919314E+02  0.11914571830E+03  0.79446259417E+02 0.  0.
          6    2    1    2  501    0 -0.41690724145E+02  0.13922547803E+03  0.43682218762E+03  0.49147805030E+03  0.17209067411E+03 0.  0.
         24    2    5    5    0    0 -0.56263068735E+02  0.60993079161E+02  0.12677535804E+03  0.17134715833E+03  0.80013552929E+02 0.  0.
          5    1    5    5  501    0  0.14572344590E+02  0.78232398866E+02  0.31004682958E+03  0.32013089197E+03  0.47000000000E+01 0. -1.
        -11    1    6    6    0    0 -0.35198061941E+02  0.53778246763E+01  0.99956082393E+02  0.10610863758E+03  0.00000000000E+00 0.  1.
         12    1    6    6    0    0 -0.21065006795E+02  0.55615254485E+02  0.26819275644E+02  0.65238520743E+02  0.00000000000E+00 0. -1.
         -5    1    3    3    0  503 -0.85639222357E+00 -0.13236821569E+03  0.16108061831E+03  0.20854527932E+03  0.47000000000E+01 0.  1.
         13    1    4    4    0    0 -0.87170955217E+01  0.27297986455E+02  0.27616634238E+02  0.39797566577E+02  0.00000000000E+00 0. -1.
        -14    1    4    4    0    0  0.51264211890E+02 -0.34155248796E+02  0.50015285076E+02  0.79348151726E+02  0.00000000000E+00 0.  1.
</event>
<event>
12    1  0.8526130E-002  0.2150577E+03  0.7818608E-02  0.1138381E+00
         21   -1    0    0  503  502  0.00000000000E+00  0.00000000000E+00  0.10290065571E+03  0.10290065571E+03  0.00000000000E+00 0. -1.
         21   -1    0    0  501  503 -0.00000000000E+00 -0.00000000000E+00 -0.13733889390E+04  0.13733889390E+04  0.00000000000E+00 0.  1.
          6    2    1    2  501    0 -0.11621642924E+03 -0.38029509284E+02 -0.12452010648E+04  0.12636358346E+04  0.17691051022E+03 0.  0.
         24    2    3    3    0    0 -0.13014110538E+03 -0.45856951135E+02 -0.12321284950E+04  0.12424663392E+04  0.80885157311E+02 0.  0.
         -6    2    1    2    0  502  0.11621642924E+03  0.38029509284E+02 -0.25287218552E+02  0.21265376020E+03  0.17213272874E+03 0.  0.
        -24    2    5    5    0    0 -0.44088685875E+01 -0.12375121345E+02  0.13000523832E+02  0.76348476067E+02  0.74077624336E+02 0.  0.
          5    1    3    3  501    0  0.13924676139E+02  0.78274418505E+01 -0.13072569808E+02  0.21169495338E+02  0.47000000000E+01 0. -1.
        -11    1    4    4    0    0 -0.24202912837E+02  0.17268492281E+02 -0.41741397932E+03  0.41847151868E+03  0.00000000000E+00 0.  1.
         12    1    4    4    0    0 -0.10593819255E+03 -0.63125443416E+02 -0.81471451565E+03  0.82399482053E+03  0.00000000000E+00 0. -1.
         -5    1    5    5    0  502  0.12062529783E+03  0.50404630629E+02 -0.38287742384E+02  0.13630528413E+03  0.47000000000E+01 0.  1.
         11    1    6    6    0    0  0.27055497464E+02 -0.15847172526E+02 -0.14379376570E+02  0.34494916881E+02  0.00000000000E+00 0. -1.
        -12    1    6    6    0    0 -0.31464366052E+02  0.34720511815E+01  0.27379900402E+02  0.41853559185E+02  0.00000000000E+00 0.  1.
</event>
<event>
12    1  0.8526130E-002  0.2064807E+03  0.7818608E-02  0.1144976E+00
         21   -1    0    0  503  502  0.00000000000E+00  0.00000000000E+00  0.10994456964E+03  0.10994456964E+03  0.00000000000E+00 0.  1.
         21   -1    0    0  501  503 -0.00000000000E+00 -0.00000000000E+00 -0.10292611006E+04  0.10292611006E+04  0.00000000000E+00 0. -1.
          6    2    1    2  501    0 -0.46846294417E+02 -0.10432041125E+03 -0.91244204254E+03  0.93551311001E+03  0.17192141958E+03 0.  0.
         24    2    3    3    0    0  0.27624873362E+02 -0.50516296660E+02 -0.29689991083E+03  0.31313457288E+03  0.81170646328E+02 0.  0.
         -6    2    1    2    0  502  0.46846294417E+02  0.10432041125E+03 -0.68744883801E+01  0.20369256019E+03  0.16842231736E+03 0.  0.
        -24    2    5    5    0    0 -0.19137998507E+02  0.99498452298E+02 -0.31299454790E+02  0.13301125301E+03  0.80287810786E+02 0.  0.
          5    1    3    3  501    0 -0.74471167779E+02 -0.53804114588E+02 -0.61554213170E+03  0.62237853713E+03  0.47000000000E+01 0. -1.
        -11    1    4    4    0    0  0.43551030077E+00 -0.56912877045E+02 -0.10703458192E+03  0.12122568610E+03  0.00000000000E+00 0.  1.
         12    1    4    4    0    0  0.27189363061E+02  0.63965803852E+01 -0.18986532891E+03  0.19190888679E+03  0.00000000000E+00 0. -1.
         -5    1    5    5    0  502  0.65984292924E+02  0.48219589497E+01  0.24424966410E+02  0.70681307182E+02  0.47000000000E+01 0.  1.
         13    1    6    6    0    0  0.14548648226E+01 -0.13670641903E+02  0.19833483235E+00  0.13749269741E+02  0.00000000000E+00 0. -1.
        -14    1    6    6    0    0 -0.20592863330E+02  0.11316909420E+03 -0.31497789623E+02  0.11926198327E+03  0.00000000000E+00 0.  1.
</event>
<event>
12    1  0.8526130E-002  0.2244163E+03  0.7818608E-02  0.1130875E+00
         21   -1    0    0  501  502  0.00000000000E+00  0.00000000000E+00  0.20390878353E+04  0.20390878353E+04  0.00000000000E+00 0.  1.
         21   -1    0    0  502  503 -0.00000000000E+00 -0.00000000000E+00 -0.34730301861E+02  0.34730301861E+02  0.00000000000E+00 0. -1.
         -6    2    1    2    0  503 -0.11977299319E+03  0.77931410041E+02  0.44296257970E+03  0.49656673931E+03  0.17304278374E+03 0.  0.
        -24    2    3    3    0    0 -0.13437224729E+03  0.97085182804E+02  0.30263294659E+03  0.35410796927E+03  0.79525593213E+02 0.  0.
          6    2    1    2  501    0  0.11977299319E+03 -0.77931410041E+02  0.15613949537E+04  0.15772513979E+04  0.17131519461E+03 0.  0.
         24    2    5    5    0    0  0.11986519090E+02 -0.30847869863E+02  0.99527788435E+03  0.99902530884E+03  0.79863839926E+02 0.  0.
          5    1    5    5  501    0  0.10778647410E+03 -0.47083540178E+02  0.56611706940E+03  0.57822608902E+03  0.47000000000E+01 0. -1.
        -13    1    6    6    0    0  0.16391111278E+02 -0.13733690154E+02  0.95251224675E+03  0.95275225687E+03  0.00000000000E+00 0.  1.
         14    1    6    6    0    0 -0.44045921877E+01 -0.17114179709E+02  0.42765637600E+02  0.46273051972E+02  0.00000000000E+00 0. -1.
         -5    1    3    3    0  503  0.14599254105E+02 -0.19153772763E+02  0.14032963311E+03  0.14245877004E+03  0.47000000000E+01 0.  1.
         11    1    4    4    0    0 -0.67554174602E+02  0.45903344795E+02  0.73026521185E+02  0.10956074281E+03  0.00000000000E+00 0. -1.
        -12    1    4    4    0    0 -0.66818072690E+02  0.51181838010E+02  0.22960642540E+03  0.24454722645E+03  0.00000000000E+00 0.  1.
</event>
<event>
12    1  0.8526130E-002  0.1729662E+03  0.7818608E-02  0.1174847E+00
         21   -1    0    0  503  502  0.00000000000E+00  0.00000000000E+00  0.21799554548E+03  0.21799554548E+03  0.00000000000E+00 0.  1.
         21   -1    0    0  501  503 -0.00000000000E+00 -0.00000000000E+00 -0.15954700110E+03  0.15954700110E+03  0.00000000000E+00 0.  1.
          6    2    1    2  501    0  0.67106623216E+01 -0.77139982221E+01 -0.41662188285E+02  0.17769395240E+03  0.17243800054E+03 0.  0.
         24    2    3    3    0    0  0.10229077902E+02  0.29593341840E+02 -0.84587998184E+02  0.12051937740E+03  0.79933666107E+02 0.  0.
         -6    2    1    2    0  502 -0.67106623216E+01  0.77139982221E+01  0.10011073266E+03  0.19984859417E+03  0.17266372822E+03 0.  0.
        -24    2    5    5    0    0  0.56304641799E+02  0.33153455805E+02  0.73729210305E+02  0.12679950604E+03  0.79829530626E+02 0.  0.
          5    1    3    3  501    0 -0.35184155803E+01 -0.37307340062E+02  0.42925809898E+02  0.57174574997E+02  0.47000000000E+01 0. -1.
        -13    1    4    4    0    0 -0.30816098728E+02 -0.55267236213E+01 -0.24785689194E+02  0.39931278512E+02  0.00000000000E+00 0.  1.
         14    1    4    4    0    0  0.41045176630E+02  0.35120065461E+02 -0.59802308990E+02  0.80588098892E+02  0.00000000000E+00 0. -1.
         -5    1    5    5    0  502 -0.63015304121E+02 -0.25439457583E+02  0.26381522353E+02  0.73049088134E+02  0.47000000000E+01 0.  1.
         11    1    6    6    0    0  0.15039614109E+02  0.37657452668E+02 -0.18277208042E+01  0.40590815431E+02  0.00000000000E+00 0. -1.
        -12    1    6    6    0    0  0.41265027690E+02 -0.45039968630E+01  0.75556931109E+02  0.86208690610E+02  0.00000000000E+00 0.  1.
</event>
<event>
12    1  0.8526130E-002  0.1806280E+03  0.7818608E-02  0.1169616E+00
         21   -1    0    0  503  502  0.00000000000E+00  0.00000000000E+00  0.15812328211E+03  0.15812328211E+03  0.00000000000E+00 0. -1.
         21   -1    0    0  501  503 -0.00000000000E+00 -0.00000000000E+00 -0.31010126131E+03  0.31010126131E+03  0.00000000000E+00 0. -1.
          6    2    1    2  501    0  0.30703378140E+02  0.19670104480E+02 -0.21969839152E+03  0.28441843969E+03  0.17690917206E+03 0.  0.
         24    2    3    3    0    0 -0.33952204719E+02  0.52301016926E+02 -0.10643033726E+03  0.14989385845E+03  0.85162218944E+02 0.  0.
         -6    2    1    2    0  502 -0.30703378140E+02 -0.19670104480E+02  0.67720412309E+02  0.18380610373E+03  0.16694016619E+03 0.  0.
        -24    2    5    5    0    0 -0.35687997727E+01  0.19306102831E+01  0.10523348249E+03  0.13250116580E+03  0.80411501137E+02 0.  0.
          5    1    3    3  501    0  0.64655582859E+02 -0.32630912445E+02 -0.11326805426E+03  0.13452458124E+03  0.47000000000E+01 0. -1.
        -11    1    4    4    0    0 -0.51471664677E+02  0.17622534424E+02 -0.94861604640E+02  0.10935542976E+03  0.00000000000E+00 0.  1.
         12    1    4    4    0    0  0.17519459958E+02  0.34678482502E+02 -0.11568732617E+02  0.40538428685E+02  0.00000000000E+00 0. -1.
         -5    1    5    5    0  502 -0.27134578367E+02 -0.21600714764E+02 -0.37513070179E+02  0.51304937927E+02  0.47000000000E+01 0.  1.
         11    1    6    6    0    0  0.27701285782E+02  0.20567553700E+02  0.82901259314E+02  0.89794233083E+02  0.00000000000E+00 0. -1.
        -12    1    6    6    0    0 -0.31270085555E+02 -0.18636943417E+02  0.22332223174E+02  0.42706932721E+02  0.00000000000E+00 0.  1.
</event>
<event>
12    1  0.8526130E-002  0.1936889E+03  0.7818608E-02  0.1156617E+00
         21   -1    0    0  501  502  0.00000000000E+00  0.00000000000E+00  0.11240805091E+03  0.11240805091E+03  0.00000000000E+00 0.  1.
         21   -1    0    0  502  503 -0.00000000000E+00 -0.00000000000E+00 -0.12476457104E+04  0.12476457104E+04  0.00000000000E+00 0.  1.
         -6    2    1    2    0  503  0.30342890289E+02 -0.67428027729E+02 -0.11555792039E+04  0.11716990581E+04  0.17901998862E+03 0.  0.
        -24    2    3    3    0    0 -0.41702036287E+02  0.10742993036E+02 -0.54580499638E+03  0.55270967685E+03  0.75699544770E+02 0.  0.
          6    2    1    2  501    0 -0.30342890289E+02  0.67428027729E+02  0.20341544441E+02  0.18835470319E+03  0.17203629231E+03 0.  0.
         24    2    5    5    0    0 -0.62738080354E+02  0.28868323903E+02  0.62837351217E+02  0.12229198533E+03  0.78976896088E+02 0.  0.
          5    1    5    5  501    0  0.32395190064E+02  0.38559703825E+02 -0.42495806776E+02  0.66062717867E+02  0.47000000000E+01 0. -1.
        -13    1    6    6    0    0 -0.50407593510E+02  0.43106801561E+02  0.74806191773E+02  0.99975437743E+02  0.00000000000E+00 0.  1.
         14    1    6    6    0    0 -0.12330486843E+02 -0.14238477658E+02 -0.11968840556E+02  0.22316547584E+02  0.00000000000E+00 0. -1.
         -5    1    3    3    0  503  0.72044926577E+02 -0.78171020764E+02 -0.60977420755E+03  0.61898938127E+03  0.47000000000E+01 0.  1.
         11    1    4    4    0    0 -0.39773784626E+02  0.39408583449E+02 -0.29518666120E+03  0.30044992152E+03  0.00000000000E+00 0. -1.
        -12    1    4    4    0    0 -0.19282516610E+01 -0.28665590413E+02 -0.25061833519E+03  0.25225975533E+03  0.00000000000E+00 0.  1.
</event>
<event>
12    1  0.8526130E-002  0.2255646E+03  0.7818608E-02  0.1129956E+00
         21   -1    0    0  501  502  0.00000000000E+00  0.00000000000E+00  0.61800563449E+03  0.61800563449E+03  0.00000000000E+00 0. -1.
         21   -1    0    0  502  503 -0.00000000000E+00 -0.00000000000E+00 -0.86138166373E+02  0.86138166373E+02  0.00000000000E+00 0. -1.
         -6    2    1    2    0  503 -0.60560188354E+02 -0.13194828706E+03  0.34343559302E+03  0.41088613482E+03  0.17263117438E+03 0.  0.
        -24    2    3    3    0    0  0.26798045734E+01 -0.79688821381E+02  0.78095324398E+02  0.13311303208E+03  0.72544538117E+02 0.  0.
          6    2    1    2  501    0  0.60560188354E+02  0.13194828706E+03  0.18843187510E+03  0.29325766604E+03  0.17150976726E+03 0.  0.
         24    2    5    5    0    0  0.89284401539E+02  0.14889722864E+03  0.15293670770E+03  0.24432563202E+03  0.78506616576E+02 0.  0.
          5    1    5    5  501    0 -0.28724213185E+02 -0.16948941585E+02  0.35495167400E+02  0.48932034014E+02  0.47000000000E+01 0. -1.
        -13    1    6    6    0    0  0.23293099478E+02  0.87190590333E+02  0.37480679892E+02  0.97721895659E+02  0.00000000000E+00 0.  1.
         14    1    6    6    0    0  0.65991302061E+02  0.61706638310E+02  0.11545602781E+03  0.14660373637E+03  0.00000000000E+00 0. -1.
         -5    1    3    3    0  503 -0.63239992927E+02 -0.52259465678E+02  0.26534026862E+03  0.27777310275E+03  0.47000000000E+01 0.  1.
         13    1    4    4    0    0 -0.28155058453E+02 -0.25300299829E+02  0.70999964650E+01  0.38512626991E+02  0.00000000000E+00 0. -1.
        -14    1    4    4    0    0  0.30834863026E+02 -0.54388521552E+02  0.70995327933E+02  0.94600405087E+02  0.00000000000E+00 0.  1.
</event>
<event>
12    1  0.8526130E-002  0.1847740E+03  0.7818608E-02  0.1163545E+00
         21   -1    0    0  503  502  0.00000000000E+00  0.00000000000E+00  0.76844556915E+02  0.76844556915E+02  0.00000000000E+00 0. -1.
         21   -1    0    0  501  503 -0.00000000000E+00 -0.00000000000E+00 -0.51251654618E+03  0.51251654618E+03  0.00000000000E+00 0. -1.
          6    2    1    2  501    0  0.15593919498E+02 -0.69211653178E+02 -0.32823576232E+03  0.37666982873E+03  0.17061072927E+03 0.  0.
         24    2    3    3    0    0 -0.14555797475E+02 -0.88893075721E+00 -0.64823049833E+02  0.10283530400E+03  0.78488282693E+02 0.  0.
         -6    2    1    2    0  502 -0.15593919498E+02  0.69211653178E+02 -0.10743622694E+03  0.21269127437E+03  0.16929740716E+03 0.  0.
        -24    2    5    5    0    0 -0.72566616253E+02  0.30068232863E+02 -0.82282161656E+02  0.13898298087E+03  0.79849248108E+02 0.  0.
          5    1    3    3  501    0  0.30149716973E+02 -0.68322722421E+02 -0.26341271249E+03  0.27383452473E+03  0.47000000000E+01 0. -1.
        -13    1    4    4    0    0  0.31215553145E+02 -0.89940655420E+01 -0.19368147848E+02  0.37821014320E+02  0.00000000000E+00 0.  1.
         14    1    4    4    0    0 -0.45771350621E+02  0.81051347848E+01 -0.45454901985E+02  0.65014289675E+02  0.00000000000E+00 0. -1.
         -5    1    5    5    0  502  0.56972696755E+02  0.39143420315E+02 -0.25154065281E+02  0.73708293493E+02  0.47000000000E+01 0.  1.
         11    1    6    6    0    0  0.10531233410E+02 -0.14318838539E+02 -0.14129802610E+02  0.22706548308E+02  0.00000000000E+00 0. -1.
        -12    1    6    6    0    0 -0.83097849663E+02  0.44387071402E+02 -0.68152359046E+02  0.11627643256E+03  0.00000000000E+00 0.  1.
</event>
<event>
12    1  0.8526130E-002  0.2060730E+03  0.7818608E-02  0.1145105E+00
         21   -1    0    0  501  502  0.00000000000E+00  0.00000000000E+00  0.69555906923E+02  0.69555906923E+02  0.00000000000E+00 0.  1.
         21   -1    0    0  502  503 -0.00000000000E+00 -0.00000000000E+00 -0.62976551734E+03  0.62976551734E+03  0.00000000000E+00 0.  1.
         -6    2    1    2    0  503 -0.43486831386E+02  0.99420418813E+02 -0.34837005219E+03  0.40378448049E+03  0.17292972343E+03 0.  0.
        -24    2    3    3    0    0 -0.37926117560E+02  0.83544505997E+01 -0.76830310539E+02  0.11728866307E+03  0.79658939423E+02 0.  0.
          6    2    1    2  501    0  0.43486831386E+02 -0.99420418813E+02 -0.21183955823E+03  0.29553694377E+03  0.17518722134E+03 0.  0.
         24    2    5    5    0    0  0.10732298632E+02 -0.18555740933E+02 -0.18682024779E+03  0.20465233869E+03  0.80754423985E+02 0.  0.
          5    1    5    5  501    0  0.32754532753E+02 -0.80864677880E+02 -0.25019310437E+02  0.90884605073E+02  0.47000000000E+01 0. -1.
        -13    1    6    6    0    0 -0.18291821171E+02 -0.38788007757E+02 -0.65594710733E+02  0.78369422249E+02  0.00000000000E+00 0.  1.
         14    1    6    6    0    0  0.29024119803E+02  0.20232266824E+02 -0.12122553706E+03  0.12628291644E+03  0.00000000000E+00 0. -1.
         -5    1    3    3    0  503 -0.55607138258E+01  0.91065968213E+02 -0.27153974165E+03  0.28649581742E+03  0.47000000000E+01 0.  1.
         13    1    4    4    0    0 -0.30446297887E+02  0.41684676415E+02 -0.60185778413E+02  0.79290082772E+02  0.00000000000E+00 0. -1.
        -14    1    4    4    0    0 -0.74798196726E+01 -0.33330225815E+02 -0.16644532126E+02  0.37998580301E+02  0.00000000000E+00 0.  1.
</event>
<event>
12    1  0.8526130E-002  0.2490285E+03  0.7818608E-02  0.1114018E+00
         21   -1    0    0  503  502  0.00000000000E+00  0.00000000000E+00  0.88056579643E+03  0.88056579643E+03  0.00000000000E+00 0.  1.
         21   -1    0    0  501  503 -0.00000000000E+00 -0.00000000000E+00 -0.13180569435E+03  0.13180569435E+03  0.00000000000E+00 0.  1.
          6    2    1    2  501    0  0.17998302427E+03 -0.92849743879E+01  0.28714203741E+02  0.25067852034E+03  0.17185783453E+03 0.  0.
         24    2    3    3    0    0  0.83571809233E+02 -0.59271851511E+02 -0.16935646183E+02  0.13278106886E+03  0.82744162664E+02 0.  0.
         -6    2    1    2    0  502 -0.17998302427E+03  0.92849743879E+01  0.72004589835E+03  0.76169297044E+03  0.17096779146E+03 0.  0.
        -24    2    5    5    0    0 -0.97843631223E+02  0.71577411331E+02  0.42748753997E+03  0.45146771253E+03  0.79879888841E+02 0.  0.
          5    1    3    3  501    0  0.96411215036E+02  0.49986877123E+02  0.45649849924E+02  0.11789745149E+03  0.47000000000E+01 0. -1.
        -11    1    4    4    0    0  0.17511398048E+02  0.19249213031E+02 -0.15233106122E+02  0.30153420801E+02  0.00000000000E+00 0.  1.
         12    1    4    4    0    0  0.66060411185E+02 -0.78521064541E+02 -0.17025400608E+01  0.10262764806E+03  0.00000000000E+00 0. -1.
         -5    1    5    5    0  502 -0.82139393046E+02 -0.62292436944E+02  0.29255835837E+03  0.31022525791E+03  0.47000000000E+01 0.  1.
         11    1    6    6    0    0 -0.10591672840E+03  0.60709496518E+02  0.30952302273E+03  0.33272886548E+03  0.00000000000E+00 0. -1.
        -12    1    6    6    0    0  0.80730971813E+01  0.10867914813E+02  0.11796451725E+03  0.11873884705E+03  0.00000000000E+00 0.  1.
</event>
<event>
12    1  0.8526130E-002  0.1873046E+03  0.7818608E-02  0.1160938E+00
         21   -1    0    0  501  502  0.00000000000E+00  0.00000000000E+00  0.24601075295E+04  0.24601075295E+04  0.00000000000E+00 0.  1.
         21   -1    0    0  502  503 -0.00000000000E+00 -0.00000000000E+00 -0.14975135232E+02  0.14975135232E+02  0.00000000000E+00 0.  1.
         -6    2    1    2    0  503  0.72600211923E+02 -0.20521696095E+02  0.95055781289E+03  0.96881701520E+03  0.17133103197E+03 0.  0.
        -24    2    3    3    0    0 -0.19579109441E+01 -0.22619481330E+02  0.23625091698E+03  0.25061109353E+03  0.80473287945E+02 0.  0.
          6    2    1    2  501    0 -0.72600211923E+02  0.20521696095E+02  0.14945745814E+04  0.15062656495E+04  0.17143831797E+03 0.  0.
         24    2    5    5    0    0 -0.86361640478E+02  0.53997514683E+02  0.13790387679E+04  0.13851020348E+04  0.79910317303E+02 0.  0.
          5    1    5    5  501    0  0.13761428554E+02 -0.33475818588E+02  0.11553581348E+03  0.12116361477E+03  0.47000000000E+01 0. -1.
        -13    1    6    6    0    0 -0.60909075474E+02  0.83956335978E+01  0.10630610691E+04  0.10648376584E+04  0.00000000000E+00 0.  1.
         14    1    6    6    0    0 -0.25452565004E+02  0.45601881085E+02  0.31597769883E+03  0.32026437639E+03  0.00000000000E+00 0. -1.
         -5    1    3    3    0  503  0.74558122867E+02  0.20977852341E+01  0.71430689591E+03  0.71820592168E+03  0.47000000000E+01 0.  1.
         11    1    4    4    0    0  0.23306760408E+02 -0.10563064816E+02  0.19792674583E+02  0.32350168255E+02  0.00000000000E+00 0. -1.
        -12    1    4    4    0    0 -0.25264671352E+02 -0.12056416514E+02  0.21645824240E+03  0.21826092527E+03  0.00000000000E+00 0.  1.
</event>
<event>
12    1  0.8526130E-002  0.2758495E+03  0.7818608E-02  0.1098074E+00
         21   -1    0    0  503  502  0.00000000000E+00  0.00000000000E+00  0.15750873054E+03  0.15750873054E+03  0.00000000000E+00 0. -1.
         21   -1    0    0  501  503 -0.00000000000E+00 -0.00000000000E+00 -0.56248634665E+03  0.56248634665E+03  0.00000000000E+00 0. -1.
          6    2    1    2  501    0 -0.82998204250E+02  0.19909906560E+03 -0.33897164811E+03  0.43702943158E+03  0.17194128652E+03 0.  0.
         24    2    3    3    0    0 -0.69094297281E+02  0.12803988857E+03 -0.12429073466E+03  0.21041806852E+03  0.87517665946E+02 0.  0.
         -6    2    1    2    0  502  0.82998204250E+02 -0.19909906560E+03 -0.66005968000E+02  0.28296564561E+03  0.17083216603E+03 0.  0.
        -24    2    5    5    0    0  0.48551638068E+01 -0.15022775373E+03 -0.84577289455E+02  0.18882891593E+03  0.76883619800E+02 0.  0.
          5    1    3    3  501    0 -0.13903906969E+02  0.71059177030E+02 -0.21468091345E+03  0.22661136306E+03  0.47000000000E+01 0. -1.
        -13    1    4    4    0    0 -0.39782284467E+01  0.45476343136E+02  0.24751060351E+01  0.45717067234E+02  0.00000000000E+00 0.  1.
         14    1    4    4    0    0 -0.65116068835E+02  0.82563545436E+02 -0.12676584070E+03  0.16470100128E+03  0.00000000000E+00 0. -1.
         -5    1    5    5    0  502  0.78143040444E+02 -0.48871311877E+02  0.18571321455E+02  0.94136729681E+02  0.47000000000E+01 0.  1.
         13    1    6    6    0    0  0.39716921234E+02 -0.92457715255E+02 -0.59140760090E+02  0.11671971747E+03  0.00000000000E+00 0. -1.
        -14    1    6    6    0    0 -0.34861757428E+02 -0.57770038470E+02 -0.25436529365E+02  0.72109198456E+02  0.00000000000E+00 0.  1.
</event>
<event>
12    1  0.8526130E-002  0.2371191E+03  0.7818608E-02  0.1123295E+00
         21   -1    0    0  501  502  0.00000000000E+00  0.00000000000E+00  0.96227141774E+02  0.96227141774E+02  0.00000000000E+00 0. -1.
         21   -1    0    0  502  503 -0.00000000000E+00 -0.00000000000E+00 -0.60775177931E+03  0.60775177931E+03  0.00000000000E+00 0. -1.
         -6    2    1    2    0  503  0.95764866673E+02 -0.12558515308E+03 -0.34754656109E+03  0.41568341178E+03  0.16450394021E+03 0.  0.
        -24    2    3    3    0    0  0.11568877287E+03 -0.13402839547E+03 -0.34271867888E+03  0.39301958980E+03  0.75238302406E+02 0.  0.
          6    2    1    2  501    0 -0.95764866673E+02  0.12558515308E+03 -0.16397807644E+03  0.28829550930E+03  0.17686986958E+03 0.  0.
         24    2    5    5    0    0 -0.51578500450E+02  0.46416739041E+02 -0.16727428850E+03  0.19744933296E+03  0.78680976873E+02 0.  0.
          5    1    5    5  501    0 -0.44186366223E+02  0.79168414035E+02  0.32962120600E+01  0.90846176335E+02  0.47000000000E+01 0. -1.
        -11    1    6    6    0    0 -0.48828939832E+01  0.27504690359E+02 -0.13444606815E+03  0.13731750030E+03  0.00000000000E+00 0.  1.
         12    1    6    6    0    0 -0.46695606466E+02  0.18912048682E+02 -0.32828220347E+02  0.60131832666E+02  0.00000000000E+00 0. -1.
         -5    1    3    3    0  503 -0.19923906197E+02  0.84432423977E+01 -0.48278822084E+01  0.22663821985E+02  0.47000000000E+01 0.  1.
         13    1    4    4    0    0  0.10833531274E+03 -0.14057347505E+03 -0.29479486649E+03  0.34409512519E+03  0.00000000000E+00 0. -1.
        -14    1    4    4    0    0  0.73534601342E+01  0.65450795760E+01 -0.47923812396E+02  0.48924464608E+02  0.00000000000E+00 0.  1.
</event>
<event>
12    1  0.8526130E-002  0.1799698E+03  0.7818608E-02  0.1168436E+00
         21   -1    0    0  503  502  0.00000000000E+00  0.00000000000E+00  0.14134008892E+03  0.14134008892E+03  0.00000000000E+00 0. -1.
         21   -1    0    0  501  503 -0.00000000000E+00 -0.00000000000E+00 -0.40549255148E+03  0.40549255148E+03  0.00000000000E+00 0. -1.
          6    2    1    2  501    0  0.24741920962E+02  0.37005244764E+02 -0.31448603218E+03  0.36234043753E+03  0.17437768618E+03 0.  0.
         24    2    3    3    0    0 -0.35705169532E+01  0.70593182564E+02 -0.29616608404E+03  0.31451310009E+03  0.78790829276E+02 0.  0.
         -6    2    1    2    0  502 -0.24741920962E+02 -0.37005244764E+02  0.50333569624E+02  0.18449220288E+03  0.17182070277E+03 0.  0.
        -24    2    5    5    0    0  0.11585269756E+02 -0.67632926154E+02 -0.30772745397E+01  0.11285053953E+03  0.89539619604E+02 0.  0.
          5    1    3    3  501    0  0.28312437916E+02 -0.33587937801E+02 -0.18319948146E+02  0.47827337439E+02  0.47000000000E+01 0. -1.
        -11    1    4    4    0    0 -0.30529939064E+02  0.24992089208E+02 -0.55557360600E+02  0.68141778807E+02  0.00000000000E+00 0.  1.
         12    1    4    4    0    0  0.26959422111E+02  0.45601093357E+02 -0.24060872344E+03  0.24637132128E+03  0.00000000000E+00 0. -1.
         -5    1    5    5    0  502 -0.36327190718E+02  0.30627681391E+02  0.53410844164E+02  0.71641663347E+02  0.47000000000E+01 0.  1.
         13    1    6    6    0    0 -0.13447612088E+02  0.18620999504E+02  0.35638424432E+00  0.22971871999E+02  0.00000000000E+00 0. -1.
        -14    1    6    6    0    0  0.25032881844E+02 -0.86253925659E+02 -0.34336587840E+01  0.89878667534E+02  0.00000000000E+00 0.  1.
</event>
<event>
12    1  0.8526130E-002  0.2358730E+03  0.7818608E-02  0.1122854E+00
         21   -1    0    0  503  502  0.00000000000E+00  0.00000000000E+00  0.97153948432E+02  0.97153948432E+02  0.00000000000E+00 0.  1.
         21   -1    0    0  501  503 -0.00000000000E+00 -0.00000000000E+00 -0.69712154169E+03  0.69712154169E+03  0.00000000000E+00 0. -1.
          6    2    1    2  501    0  0.15461400133E+03  0.24974449864E+02 -0.46959859544E+03  0.52477195496E+03  0.17416529884E+03 0.  0.
         24    2    3    3    0    0  0.62520751038E+02 -0.52044798012E+02 -0.20172817855E+03  0.23119099247E+03  0.78342272546E+02 0.  0.
         -6    2    1    2    0  502 -0.15461400133E+03 -0.24974449864E+02 -0.13036899782E+03  0.26950353516E+03  0.17637139030E+03 0.  0.
        -24    2    5    5    0    0 -0.17241092101E+03 -0.36148406619E+02 -0.14849875834E+03  0.24135454092E+03  0.71888108955E+02 0.  0.
          5    1    3    3  501    0  0.92093250293E+02  0.77019247876E+02 -0.26787041689E+03  0.29358096249E+03  0.47000000000E+01 0. -1.
        -11    1    4    4    0    0  0.40970051952E+02 -0.34760368054E+02 -0.39650195368E+02  0.66775492038E+02  0.00000000000E+00 0.  1.
         12    1    4    4    0    0  0.21550699086E+02 -0.17284429958E+02 -0.16207798318E+03  0.16441550043E+03  0.00000000000E+00 0. -1.
         -5    1    5    5    0  502  0.17796919682E+02  0.11173956755E+02  0.18129760526E+02  0.28148994235E+02  0.47000000000E+01 0.  1.
         13    1    6    6    0    0 -0.13472557661E+01  0.11214291343E+02 -0.26045138661E+01  0.11591329557E+02  0.00000000000E+00 0. -1.
        -14    1    6    6    0    0 -0.17106366525E+03 -0.47362697961E+02 -0.14589424448E+03  0.22976321137E+03  0.00000000000E+00 0.  1.
</event>
<event>
12    1  0.8526130E-002  0.2290559E+03  0.7818608E-02  0.1127315E+00
         21   -1    0    0  503  502  0.00000000000E+00  0.00000000000E+00  0.39213918862E+02  0.39213918862E+02  0.00000000000E+00 0.  1.
         21   -1    0    0  501  503 -0.00000000000E+00 -0.00000000000E+00 -0.17346241684E+04  0.17346241684E+04  0.00000000000E+00 0. -1.
          6    2    1    2  501    0 -0.52452975784E+02  0.14268016254E+03 -0.12720589423E+04  0.12925171421E+04  0.17134079011E+03 0.  0.
         24    2    3    3    0    0 -0.32620153072E+02  0.17030089292E+03 -0.96853471393E+03  0.98705799125E+03  0.78469850746E+02 0.  0.
         -6    2    1    2    0  502  0.52452975784E+02 -0.14268016254E+03 -0.42335130720E+03  0.48132094518E+03  0.17127340571E+03 0.  0.
        -24    2    5    5    0    0  0.84606447211E+02 -0.87433005111E+02 -0.37220489299E+03  0.39932009265E+03  0.78212995921E+02 0.  0.
          5    1    3    3  501    0 -0.19832822713E+02 -0.27620730375E+02 -0.30352422840E+03  0.30545915084E+03  0.47000000000E+01 0. -1.
        -13    1    4    4    0    0 -0.37090483194E+02  0.25705717942E+02 -0.20021872586E+03  0.20524138487E+03  0.00000000000E+00 0.  1.
         14    1    4    4    0    0  0.44703301225E+01  0.14459517498E+03 -0.76831598807E+03  0.78181660637E+03  0.00000000000E+00 0. -1.
         -5    1    5    5    0  502 -0.32153471427E+02 -0.55247157431E+02 -0.51146414207E+02  0.82000852527E+02  0.47000000000E+01 0.  1.
         11    1    6    6    0    0  0.27396123926E+02 -0.25657502273E+02 -0.23763026081E+03  0.24057638263E+03  0.00000000000E+00 0. -1.
        -12    1    6    6    0    0  0.57210323285E+02 -0.61775502838E+02 -0.13457463219E+03  0.15874371002E+03  0.00000000000E+00 0.  1.
</event>
<event>
12    1  0.8526130E-002  0.1720419E+03  0.7818608E-02  0.1176146E+00
         21   -1    0    0  501  502  0.00000000000E+00  0.00000000000E+00  0.45715198116E+03  0.45715198116E+03  0.00000000000E+00 0. -1.
         21   -1    0    0  502  503 -0.00000000000E+00 -0.00000000000E+00 -0.65136888819E+02  0.65136888819E+02  0.00000000000E+00 0. -1.
         -6    2    1    2    0  503 -0.38901699593E+00  0.72616037685E+01  0.16292905546E+03  0.23579482837E+03  0.17029516067E+03 0.  0.
        -24    2    3    3    0    0  0.38419288863E+02 -0.20956940208E+02  0.34851071869E+02  0.98942971572E+02  0.81608083627E+02 0.  0.
          6    2    1    2  501    0  0.38901699593E+00 -0.72616037685E+01  0.22908603688E+03  0.28649404161E+03  0.17188816528E+03 0.  0.
         24    2    5    5    0    0 -0.16460604096E+02  0.60264700616E+02  0.14716466482E+03  0.17889797888E+03  0.80276164888E+02 0.  0.
          5    1    5    5  501    0  0.16849621092E+02 -0.67526304384E+02  0.81921372062E+02  0.10759606273E+03  0.47000000000E+01 0. -1.
        -11    1    6    6    0    0  0.27731244873E+02  0.40589883514E+02  0.48724579160E+02  0.69214486925E+02  0.00000000000E+00 0.  1.
         12    1    6    6    0    0 -0.44191848969E+02  0.19674817102E+02  0.98440085661E+02  0.10968349196E+03  0.00000000000E+00 0. -1.
         -5    1    3    3    0  503 -0.38808305859E+02  0.28218543976E+02  0.12807798359E+03  0.13685185679E+03  0.47000000000E+01 0.  1.
         11    1    4    4    0    0  0.16623671511E+02  0.23996065620E+01 -0.25571873045E+02  0.30594529857E+02  0.00000000000E+00 0. -1.
        -12    1    4    4    0    0  0.21795617352E+02 -0.23356546770E+02  0.60422944914E+02  0.68348441715E+02  0.00000000000E+00 0.  1.
</event>
<event>
12    1  0.8526130E-002  0.2271330E+03  0.7818608E-02  0.1129163E+00
         21   -1    0    0  503  502  0.00000000000E+00  0.00000000000E+00  0.84671289462E+03  0.84671289462E+03  0.00000000000E+00 0.  1.
         21   -1    0    0  501  503 -0.00000000000E+00 -0.00000000000E+00 -0.15197828346E+03  0.15197828346E+03  0.00000000000E+00 0. -1.
          6    2    1    2  501    0  0.19015930791E+02  0.14366178507E+03 -0.39839883410E+02  0.23060053562E+03  0.17489733161E+03 0.  0.
         24    2    3    3    0    0  0.75423939113E+02  0.77486485176E+02  0.11769789414E+02  0.12937463948E+03  0.70045295504E+02 0.  0.
         -6    2    1    2    0  502 -0.19015930791E+02 -0.14366178507E+03  0.73457449457E+03  0.76809064247E+03  0.17135703331E+03 0.  0.
        -24    2    5    5    0    0  0.10864582041E+02 -0.15814702812E+03  0.48254879265E+03  0.51384329885E+03  0.77801522059E+02 0.  0.
          5    1    3    3  501    0 -0.56408008322E+02  0.66175299898E+02 -0.51609672824E+02  0.10122589614E+03  0.47000000000E+01 0. -1.
        -11    1    4    4    0    0  0.41171579899E+02  0.83395008584E+02  0.15962884936E+02  0.94364400828E+02  0.00000000000E+00 0.  1.
         12    1    4    4    0    0  0.34252359214E+02 -0.59085234084E+01 -0.41930955225E+01  0.35010238655E+02  0.00000000000E+00 0. -1.
         -5    1    5    5    0  502 -0.29880512832E+02  0.14485243043E+02  0.25202570192E+03  0.25424734362E+03  0.47000000000E+01 0.  1.
         13    1    6    6    0    0 -0.24628035452E+02 -0.18697249639E+02  0.60598305338E+02  0.68031477157E+02  0.00000000000E+00 0. -1.
        -14    1    6    6    0    0  0.35492617493E+02 -0.13944977848E+03  0.42195048731E+03  0.44581182169E+03  0.00000000000E+00 0.  1.
</event>
<event>
12    1  0.8526130E-002  0.3955760E+03  0.7818608E-02  0.1045396E+00
         21   -1    0    0  501  502  0.00000000000E+00  0.00000000000E+00  0.11588216822E+04  0.11588216822E+04  0.00000000000E+00 0.  1.
         21   -1    0    0  502  503 -0.00000000000E+00 -0.00000000000E+00 -0.24407543482E+03  0.24407543482E+03  0.00000000000E+00 0. -1.
         -6    2    1    2    0  503 -0.13899853427E+03  0.32616101000E+03 -0.12359004650E+02  0.39492660209E+03  0.17353005234E+03 0.  0.
        -24    2    3    3    0    0 -0.95101960511E+02  0.14746054644E+03 -0.65078081404E+02  0.20345295921E+03  0.79805728369E+02 0.  0.
          6    2    1    2  501    0  0.13899853427E+03 -0.32616101000E+03  0.92710525204E+03  0.10079705149E+04  0.17543891717E+03 0.  0.
         24    2    5    5    0    0  0.15903258285E+03 -0.22086054749E+03  0.61803299799E+03  0.68080496246E+03  0.86370518472E+02 0.  0.
          5    1    5    5  501    0 -0.20034048573E+02 -0.10530046251E+03  0.30907225404E+03  0.32716555248E+03  0.47000000000E+01 0. -1.
        -13    1    6    6    0    0  0.24211020218E+02 -0.98435270419E+02  0.18316389485E+03  0.20934346978E+03  0.00000000000E+00 0.  1.
         14    1    6    6    0    0  0.13482156263E+03 -0.12242527707E+03  0.43486910314E+03  0.47146149268E+03  0.00000000000E+00 0. -1.
         -5    1    3    3    0  503 -0.43896573763E+02  0.17870046356E+03  0.52719076754E+02  0.19147364288E+03  0.47000000000E+01 0.  1.
         11    1    4    4    0    0 -0.44603218033E+02  0.20547982639E+02  0.60029834919E+01  0.49474260583E+02  0.00000000000E+00 0. -1.
        -12    1    4    4    0    0 -0.50498742478E+02  0.12691256380E+03 -0.71081064896E+02  0.15397869862E+03  0.00000000000E+00 0.  1.
</event>
<event>
12    1  0.8526130E-002  0.2251273E+03  0.7818608E-02  0.1130172E+00
         21   -1    0    0  501  502  0.00000000000E+00  0.00000000000E+00  0.41690303673E+03  0.41690303673E+03  0.00000000000E+00 0. -1.
         21   -1    0    0  502  503 -0.00000000000E+00 -0.00000000000E+00 -0.14595527955E+03  0.14595527955E+03  0.00000000000E+00 0.  1.
         -6    2    1    2    0  503 -0.36914025090E+02 -0.13965085067E+03  0.25082109491E+03  0.33683310518E+03  0.17227975432E+03 0.  0.
        -24    2    3    3    0    0  0.77900143264E+00 -0.71529426009E+02  0.44952318064E+02  0.11668466429E+03  0.80483130852E+02 0.  0.
          6    2    1    2  501    0  0.36914025090E+02  0.13965085067E+03  0.20126662270E+02  0.22602521111E+03  0.17267688953E+03 0.  0.
         24    2    5    5    0    0  0.62383328089E+02  0.76431387865E+02 -0.40918578649E+02  0.13440645041E+03  0.81592445473E+02 0.  0.
          5    1    5    5  501    0 -0.25469302999E+02  0.63219462808E+02  0.61045240918E+02  0.91618760698E+02  0.47000000000E+01 0. -1.
        -11    1    6    6    0    0  0.12829432487E+02 -0.11466213603E+02  0.11503526147E+02  0.20697814042E+02  0.00000000000E+00 0.  1.
         12    1    6    6    0    0  0.49553895602E+02  0.87897601468E+02 -0.52422104795E+02  0.11370863637E+03  0.00000000000E+00 0. -1.
         -5    1    3    3    0  503 -0.37693026522E+02 -0.68121424664E+02  0.20586877684E+03  0.22014844089E+03  0.47000000000E+01 0.  1.
         11    1    4    4    0    0  0.19731417776E+02  0.25864716522E+01  0.34011436140E+02  0.39405538588E+02  0.00000000000E+00 0. -1.
        -12    1    4    4    0    0 -0.18952416343E+02 -0.74115897661E+02  0.10940881924E+02  0.77279125698E+02  0.00000000000E+00 0.  1.
</event>
<event>
12    1  0.8526130E-002  0.2203169E+03  0.7818608E-02  0.1134036E+00
         21   -1    0    0  501  502  0.00000000000E+00  0.00000000000E+00  0.29320508929E+04  0.29320508929E+04  0.00000000000E+00 0. -1.
         21   -1    0    0  502  503 -0.00000000000E+00 -0.00000000000E+00 -0.16585433842E+02  0.16585433842E+02  0.00000000000E+00 0. -1.
         -6    2    1    2    0  503 -0.12999226219E+03 -0.24013838847E+02  0.16072319506E+04  0.16219809652E+04  0.17364635253E+03 0.  0.
        -24    2    3    3    0    0 -0.34523489812E+02  0.42502646745E+01  0.11796475929E+04  0.11829324269E+04  0.80936685326E+02 0.  0.
          6    2    1    2  501    0  0.12999226219E+03  0.24013838847E+02  0.13082335085E+04  0.13266553616E+04  0.17625232758E+03 0.  0.
         24    2    5    5    0    0  0.11966971938E+03 -0.27753160764E+02  0.11477016907E+04  0.11576023177E+04  0.87936768839E+02 0.  0.
          5    1    5    5  501    0  0.10322542812E+02  0.51766999610E+02  0.16053181775E+03  0.16905304389E+03  0.47000000000E+01 0. -1.
        -13    1    6    6    0    0  0.31808369136E+02  0.23034250411E+02  0.54528023757E+03  0.54669268015E+03  0.00000000000E+00 0.  1.
         14    1    6    6    0    0  0.87861350245E+02 -0.50787411175E+02  0.60242145316E+03  0.61090963754E+03  0.00000000000E+00 0. -1.
         -5    1    3    3    0  503 -0.95468772381E+02 -0.28264103521E+02  0.42758435766E+03  0.43904853828E+03  0.47000000000E+01 0.  1.
         11    1    4    4    0    0 -0.47980298974E+02 -0.58904704699E+00  0.36277102035E+03  0.36593068917E+03  0.00000000000E+00 0. -1.
        -12    1    4    4    0    0  0.13456809162E+02  0.48393117215E+01  0.81687657256E+03  0.81700173772E+03  0.00000000000E+00 0.  1.
</event>
<event>
12    1  0.8526130E-002  0.2380086E+03  0.7818608E-02  0.1121388E+00
         21   -1    0    0  501  502  0.00000000000E+00  0.00000000000E+00  0.16315171244E+03  0.16315171244E+03  0.00000000000E+00 0. -1.
         21   -1    0    0  502  503 -0.00000000000E+00 -0.00000000000E+00 -0.49612160927E+03  0.49612160927E+03  0.00000000000E+00 0. -1.
         -6    2    1    2    0  503 -0.16435365985E+03 -0.32166741149E+00 -0.34806190874E+03  0.42078668054E+03  0.17000620349E+03 0.  0.
        -24    2    3    3    0    0 -0.65093177932E+02 -0.46953126021E+02 -0.24906729690E+03  0.27297206903E+03  0.77701442884E+02 0.  0.
          6    2    1    2  501    0  0.16435365985E+03  0.32166741149E+00  0.15092011912E+02  0.23848664117E+03  0.17215074852E+03 0.  0.
         24    2    5    5    0    0  0.21682949643E+02  0.57890363975E+01 -0.37291688900E+02  0.86332226883E+02  0.74558165816E+02 0.  0.
          5    1    5    5  501    0  0.14267071021E+03 -0.54673689860E+01  0.52383700812E+02  0.15215441428E+03  0.47000000000E+01 0. -1.
        -11    1    6    6    0    0  0.75106905383E+01 -0.32790437744E+02 -0.28977397255E+02  0.44399468820E+02  0.00000000000E+00 0.  1.
         12    1    6    6    0    0  0.14172259105E+02  0.38579474142E+02 -0.83142916455E+01  0.41932758063E+02  0.00000000000E+00 0. -1.
         -5    1    3    3    0  503 -0.99260481921E+02  0.46631458610E+02 -0.98994611838E+02  0.14781461151E+03  0.47000000000E+01 0.  1.
         11    1    4    4    0    0 -0.74196237698E+02 -0.59985129415E+02 -0.20472271199E+03  0.22586430936E+03  0.00000000000E+00 0. -1.
        -12    1    4    4    0    0  0.91030597659E+01  0.13032003393E+02 -0.44344584911E+02  0.47107759663E+02  0.00000000000E+00 0.  1.
</event>
<event>
12    1  0.8526130E-002  0.2058530E+03  0.7818608E-02  0.1145266E+00
         21   -1    0    0  503  502  0.00000000000E+00  0.00000000000E+00  0.13773176563E+03  0.13773176563E+03  0.00000000000E+00 0. -1.
         21   -1    0    0  501  503 -0.00000000000E+00 -0.00000000000E+00 -0.52382520298E+03  0.52382520298E+03  0.00000000000E+00 0. -1.
          6    2    1    2  501    0 -0.10535238399E+03  0.32517012706E+02 -0.40636635414E+03  0.45470813454E+03  0.17166651659E+03 0.  0.
         24    2    3    3    0    0 -0.12469292033E+03 -0.14937838195E+02 -0.25305104964E+03  0.29298710371E+03  0.77686201014E+02 0.  0.
         -6    2    1    2    0  502  0.10535238399E+03 -0.32517012706E+02  0.20272916794E+02  0.20684883406E+03  0.17383603789E+03 0.  0.
        -24    2    5    5    0    0  0.43580718866E+02 -0.85610407844E+02  0.10790148258E+02  0.12471077882E+03  0.78790418625E+02 0.  0.
          5    1    3    3  501    0  0.19340536342E+02  0.47454850900E+02 -0.15331530450E+03  0.16172103083E+03  0.47000000000E+01 0. -1.
        -11    1    4    4    0    0 -0.18071672691E+02 -0.19168154832E+02 -0.11167821462E+02  0.28613349152E+02  0.00000000000E+00 0.  1.
         12    1    4    4    0    0 -0.10662124764E+03  0.42303166376E+01 -0.24188322818E+03  0.26437375456E+03  0.00000000000E+00 0. -1.
         -5    1    5    5    0  502  0.61771665126E+02  0.53093395138E+02  0.94827685365E+01  0.82138055242E+02  0.47000000000E+01 0.  1.
         13    1    6    6    0    0  0.49065134953E+02 -0.93104962030E+02  0.24590198404E+02  0.10807682120E+03  0.00000000000E+00 0. -1.
        -14    1    6    6    0    0 -0.54844160864E+01  0.74945541862E+01 -0.13800050146E+02  0.16633957626E+02  0.00000000000E+00 0.  1.
</event>
<event>
12    1  0.8526130E-002  0.2782489E+03  0.7818608E-02  0.1096998E+00
         21   -1    0    0  501  502  0.00000000000E+00  0.00000000000E+00  0.20487303964E+03  0.20487303964E+03  0.00000000000E+00 0.  1.
         21   -1    0    0  502  503 -0.00000000000E+00 -0.00000000000E+00 -0.52181409206E+03  0.52181409206E+03  0.00000000000E+00 0.  1.
         -6    2    1    2    0  503 -0.12770069644E+03  0.17536824434E+03 -0.35101312156E+03  0.44635988872E+03  0.17019239043E+03 0.  0.
        -24    2    3    3    0    0  0.84542441249E+01  0.45542325848E+02 -0.11069778835E+03  0.14112803205E+03  0.74280168268E+02 0.  0.
          6    2    1    2  501    0  0.12770069644E+03 -0.17536824434E+03  0.34072069139E+02  0.28032724298E+03  0.17424399062E+03 0.  0.
         24    2    5    5    0    0  0.14507222631E+03 -0.17266389211E+03 -0.24413638042E+01  0.23953013087E+03  0.80684278849E+02 0.  0.
          5    1    5    5  501    0 -0.17371529871E+02 -0.27043522298E+01  0.36513432944E+02  0.40797112108E+02  0.47000000000E+01 0. -1.
        -11    1    6    6    0    0  0.12076387261E+03 -0.11590503870E+03  0.29574625577E+02  0.16997808506E+03  0.00000000000E+00 0.  1.
         12    1    6    6    0    0  0.24308353699E+02 -0.56758853415E+02 -0.32015989381E+02  0.69552045812E+02  0.00000000000E+00 0. -1.
         -5    1    3    3    0  503 -0.13615494056E+03  0.12982591849E+03 -0.24031533321E+03  0.30523185667E+03  0.47000000000E+01 0.  1.
         13    1    4    4    0    0  0.35353937511E+00  0.77763391958E+01  0.10984186802E+02  0.13462867491E+02  0.00000000000E+00 0. -1.
        -14    1    4    4    0    0  0.81007047498E+01  0.37765986653E+02 -0.12168197515E+03  0.12766516456E+03  0.00000000000E+00 0.  1.
</event>
<event>
12    1  0.8526130E-002  0.1928403E+03  0.7818608E-02  0.1155927E+00
         21   -1    0    0  501  502  0.00000000000E+00  0.00000000000E+00  0.62773179026E+02  0.62773179026E+02  0.00000000000E+00 0.  1.
         21   -1    0    0  502  503 -0.00000000000E+00 -0.00000000000E+00 -0.14805864652E+04  0.14805864652E+04  0.00000000000E+00 0.  1.
         -6    2    1    2    0  503  0.61498439569E+02 -0.62046736437E+02 -0.13066096408E+04  0.13207634715E+04  0.17191724334E+03 0.  0.
        -24    2    3    3    0    0  0.29141404264E+02 -0.66001465762E+02 -0.12548769512E+04  0.12594366519E+04  0.79114491329E+02 0.  0.
          6    2    1    2  501    0 -0.61498439569E+02  0.62046736437E+02 -0.11120364535E+03  0.22259617274E+03  0.17190389700E+03 0.  0.
         24    2    5    5    0    0  0.14964720941E+02  0.30604351372E+02 -0.11035129557E+03  0.13978279825E+03  0.78748035257E+02 0.  0.
          5    1    5    5  501    0 -0.76463160511E+02  0.31442385066E+02 -0.85234978169E+00  0.82813374488E+02  0.47000000000E+01 0. -1.
        -11    1    6    6    0    0  0.14577098113E+02  0.43752117958E+02 -0.11647599213E+03  0.12527328669E+03  0.00000000000E+00 0.  1.
         12    1    6    6    0    0  0.38762282837E+00 -0.13147766586E+02  0.61246965629E+01  0.14509511558E+02  0.00000000000E+00 0. -1.
         -5    1    3    3    0  503  0.32357035306E+02  0.39547293252E+01 -0.51732689656E+02  0.61326819556E+02  0.47000000000E+01 0.  1.
         11    1    4    4    0    0  0.19506785922E+02 -0.31544613621E+02 -0.17129771289E+03  0.17526689301E+03  0.00000000000E+00 0. -1.
        -12    1    4    4    0    0  0.96346183413E+01 -0.34456852142E+02 -0.10835792383E+04  0.10841697589E+04  0.00000000000E+00 0.  1.
</event>
<event>
12    1  0.8526130E-002  0.2062730E+03  0.7818608E-02  0.1144783E+00
         21   -1    0    0  501  502  0.00000000000E+00  0.00000000000E+00  0.10852799888E+03  0.10852799888E+03  0.00000000000E+00 0.  1.
         21   -1    0    0  502  503 -0.00000000000E+00 -0.00000000000E+00 -0.50200202266E+03  0.50200202266E+03  0.00000000000E+00 0.  1.
         -6    2    1    2    0  503 -0.69016552612E+02 -0.90283128248E+02 -0.34057431965E+03  0.39758181694E+03  0.17078087181E+03 0.  0.
        -24    2    3    3    0    0 -0.54715046709E+02 -0.51156709965E+02 -0.85920854898E+02  0.13950065376E+03  0.80419486336E+02 0.  0.
          6    2    1    2  501    0  0.69016552612E+02  0.90283128248E+02 -0.52899704138E+02  0.21294820460E+03  0.17214595947E+03 0.  0.
         24    2    5    5    0    0  0.39598071222E+01  0.57856589593E+02 -0.88091312458E+02  0.13205073962E+03  0.79462277042E+02 0.  0.
          5    1    5    5  501    0  0.65056745490E+02  0.32426538656E+02  0.35191608320E+02  0.80897464973E+02  0.47000000000E+01 0. -1.
        -13    1    6    6    0    0  0.22987477789E+02  0.60518520446E+02 -0.30929508065E+02  0.71746427933E+02  0.00000000000E+00 0.  1.
         14    1    6    6    0    0 -0.19027670667E+02 -0.26619308531E+01 -0.57161804394E+02  0.60304311690E+02  0.00000000000E+00 0. -1.
         -5    1    3    3    0  503 -0.14301505902E+02 -0.39126418284E+02 -0.25465346475E+03  0.25808116318E+03  0.47000000000E+01 0.  1.
         11    1    4    4    0    0  0.86483856193E+01 -0.99498100572E+00  0.10533452171E+02  0.13665217732E+02  0.00000000000E+00 0. -1.
        -12    1    4    4    0    0 -0.63363432329E+02 -0.50161728959E+02 -0.96454307068E+02  0.12583543603E+03  0.00000000000E+00 0.  1.
</event>
<event>
12    1  0.8526130E-002  0.2251872E+03  0.7818608E-02  0.1131030E+00
         21   -1    0    0  503  502  0.00000000000E+00  0.00000000000E+00  0.73712407752E+02  0.73712407752E+02  0.00000000000E+00 0. -1.
         21   -1    0    0  501  503 -0.00000000000E+00 -0.00000000000E+00 -0.98089354473E+03  0.98089354473E+03  0.00000000000E+00 0.  1.
          6    2    1    2  501    0 -0.14532524895E+03 -0.72299779191E+01 -0.74579913192E+03  0.77756186099E+03  0.16496788153E+03 0.  0.
         24    2    3    3    0    0 -0.72779169168E+01  0.81867824399E+01 -0.29117007100E+03  0.30216264411E+03  0.80014134799E+02 0.  0.
         -6    2    1    2    0  502  0.14532524895E+03  0.72299779191E+01 -0.16138200505E+03  0.27704409148E+03  0.17186499501E+03 0.  0.
        -24    2    5    5    0    0  0.10903299640E+03  0.13176514510E+02 -0.18751284766E+03  0.23168552198E+03  0.80344870520E+02 0.  0.
          5    1    3    3  501    0 -0.13804733203E+03 -0.15416760359E+02 -0.45462906092E+03  0.47539921688E+03  0.47000000000E+01 0. -1.
        -11    1    4    4    0    0 -0.34922556672E+02  0.11873366929E+02 -0.24826231785E+03  0.25098753011E+03  0.00000000000E+00 0.  1.
         12    1    4    4    0    0  0.27644639755E+02 -0.36865844888E+01 -0.42907753150E+02  0.51175113999E+02  0.00000000000E+00 0. -1.
         -5    1    5    5    0  502  0.36292252546E+02 -0.59465365907E+01  0.26130842605E+02  0.45358569505E+02  0.47000000000E+01 0.  1.
         11    1    6    6    0    0  0.79395756738E+02  0.42016104124E+02 -0.97177551624E+02  0.13233486212E+03  0.00000000000E+00 0. -1.
        -12    1    6    6    0    0  0.29637239663E+02 -0.28839589614E+02 -0.90335296036E+02  0.99350659856E+02  0.00000000000E+00 0.  1.
</event>
<event>
12    1  0.8526130E-002  0.1737540E+03  0.7818608E-02  0.1174114E+00
         21   -1    0    0  503  502  0.00000000000E+00  0.00000000000E+00  0.97696793158E+02  0.97696793158E+02  0.00000000000E+00 0.  1.
         21   -1    0    0  501  503 -0.00000000000E+00 -0.00000000000E+00 -0.45889325964E+03  0.45889325964E+03  0.00000000000E+00 0.  1.
          6    2    1    2  501    0  0.19551958049E+02  0.11483329798E+02 -0.33993188991E+03  0.38153964044E+03  0.17176921006E+03 0.  0.
         24    2    3    3    0    0  0.41432249698E+02 -0.46737691876E+02 -0.14622288517E+03  0.17803607034E+03  0.80091616524E+02 0.  0.
         -6    2    1    2    0  502 -0.19551958049E+02 -0.11483329798E+02 -0.21264576574E+02  0.17505041236E+03  0.17226815934E+03 0.  0.
        -24    2    5    5    0    0 -0.21602909308E+02 -0.24182448181E+02  0.52247222969E+02  0.10027375369E+03  0.79205914432E+02 0.  0.
          5    1    3    3  501    0 -0.21880291650E+02  0.58221021674E+02 -0.19370900474E+03  0.20350357011E+03  0.47000000000E+01 0. -1.
        -13    1    4    4    0    0  0.39109451361E+02  0.10813843133E+02 -0.83755105160E+02  0.93066675182E+02  0.00000000000E+00 0.  1.
         14    1    4    4    0    0  0.23227983377E+01 -0.57551535009E+02 -0.62467780006E+02  0.84969395155E+02  0.00000000000E+00 0. -1.
         -5    1    5    5    0  502  0.20509512590E+01  0.12699118383E+02 -0.73511799543E+02  0.74776658663E+02  0.47000000000E+01 0.  1.
         11    1    6    6    0    0 -0.39602315501E+02 -0.30011349884E+02  0.56837240132E+01  0.50013290569E+02  0.00000000000E+00 0. -1.
        -12    1    6    6    0    0  0.17999406193E+02  0.58289017029E+01  0.46563498956E+02  0.50260463123E+02  0.00000000000E+00 0.  1.
</event>
<event>
12    1  0.8526130E-002  0.2987584E+03  0.7818608E-02  0.1085921E+00
         21   -1    0    0  501  502  0.00000000000E+00  0.00000000000E+00  0.22527722858E+03  0.22527722858E+03  0.00000000000E+00 0.  1.
         21   -1    0    0  502  503 -0.00000000000E+00 -0.00000000000E+00 -0.10504390043E+04  0.10504390043E+04  0.00000000000E+00 0.  1.
         -6    2    1    2    0  503 -0.16689101335E+03 -0.17785817739E+03 -0.91608623264E+03  0.96342819743E+03  0.17173748680E+03 0.  0.
        -24    2    3    3    0    0 -0.19027086401E+03 -0.16133634826E+03 -0.86386044783E+03  0.90368532461E+03  0.90332018773E+02 0.  0.
          6    2    1    2  501    0  0.16689101335E+03  0.17785817739E+03  0.90924456921E+02  0.31228803544E+03  0.17254106355E+03 0.  0.
         24    2    5    5    0    0  0.14359869213E+03  0.97919277246E+02  0.16220248258E+01  0.19010057961E+03  0.76985908877E+02 0.  0.
          5    1    5    5  501    0  0.23292321222E+02  0.79938900147E+02  0.89302432095E+02  0.12218745583E+03  0.47000000000E+01 0. -1.
        -13    1    6    6    0    0  0.49384113656E+02  0.20498294542E+02  0.34709358377E+02  0.63747237742E+02  0.00000000000E+00 0.  1.
         14    1    6    6    0    0  0.94214578474E+02  0.77420982704E+02 -0.33087333551E+02  0.12635334187E+03  0.00000000000E+00 0. -1.
         -5    1    3    3    0  503  0.23379850662E+02 -0.16521829133E+02 -0.52225784808E+02  0.59742872827E+02  0.47000000000E+01 0.  1.
         11    1    4    4    0    0 -0.94045138715E+02 -0.13492790065E+03 -0.57599843561E+03  0.59901938559E+03  0.00000000000E+00 0. -1.
        -12    1    4    4    0    0 -0.96225725298E+02 -0.26408447611E+02 -0.28786201223E+03  0.30466593902E+03  0.00000000000E+00 0.  1.
</event>
<event>
12    1  0.8526130E-002  0.2822120E+03  0.7818608E-02  0.1094560E+00
         21   -1    0    0  503  502  0.00000000000E+00  0.00000000000E+00  0.29313679307E+03  0.29313679307E+03  0.00000000000E+00 0.  1.
         21   -1    0    0  501  503 -0.00000000000E+00 -0.00000000000E+00 -0.65747323108E+03  0.65747323108E+03  0.00000000000E+00 0. -1.
          6    2    1    2  501    0  0.21568682888E+03 -0.57137704670E+02 -0.54656910878E+03  0.61512716187E+03  0.17279499169E+03 0.  0.
         24    2    3    3    0    0  0.21618087112E+02 -0.13298736249E+02 -0.17039529481E+03  0.18955300852E+03  0.79066987234E+02 0.  0.
         -6    2    1    2    0  502 -0.21568682888E+03  0.57137704670E+02  0.18223267078E+03  0.33548286228E+03  0.17191416212E+03 0.  0.
        -24    2    5    5    0    0 -0.17105138796E+03  0.94998564621E+02  0.17842308344E+03  0.27664095325E+03  0.80075687362E+02 0.  0.
          5    1    3    3  501    0  0.19406874177E+03 -0.43838968421E+02 -0.37617381397E+03  0.42557415335E+03  0.47000000000E+01 0. -1.
        -11    1    4    4    0    0  0.34019366376E+02  0.19251297912E+02 -0.45960287763E+02  0.60334714809E+02  0.00000000000E+00 0.  1.
         12    1    4    4    0    0 -0.12401279264E+02 -0.32550034160E+02 -0.12443500705E+03  0.12921829371E+03  0.00000000000E+00 0. -1.
         -5    1    5    5    0  502 -0.44635440920E+02 -0.37860859951E+02  0.38095873327E+01  0.58841909028E+02  0.47000000000E+01 0.  1.
         11    1    6    6    0    0 -0.26164817090E+02  0.51526168238E+02  0.31733905162E+02  0.65928631136E+02  0.00000000000E+00 0. -1.
        -12    1    6    6    0    0 -0.14488657087E+03  0.43472396383E+02  0.14668917828E+03  0.21071232211E+03  0.00000000000E+00 0.  1.
</event>
<event>
12    1  0.8526130E-002  0.1897760E+03  0.7818608E-02  0.1161008E+00
         21   -1    0    0  501  502  0.00000000000E+00  0.00000000000E+00  0.13234263736E+03  0.13234263736E+03  0.00000000000E+00 0. -1.
         21   -1    0    0  502  503 -0.00000000000E+00 -0.00000000000E+00 -0.40250469000E+03  0.40250469000E+03  0.00000000000E+00 0. -1.
         -6    2    1    2    0  503 -0.10017343999E+01 -0.79222402365E+02 -0.29298937792E+03  0.34370332663E+03  0.16128238792E+03 0.  0.
        -24    2    3    3    0    0 -0.53222422904E+02 -0.74436403780E+02 -0.16423478378E+03  0.20459997799E+03  0.80713581773E+02 0.  0.
          6    2    1    2  501    0  0.10017343999E+01  0.79222402365E+02  0.22827325283E+02  0.19114400073E+03  0.17244636769E+03 0.  0.
         24    2    5    5    0    0 -0.11506864257E+02  0.76167440790E+01  0.68058269963E+02  0.10540157427E+03  0.79291494077E+02 0.  0.
          5    1    5    5  501    0  0.12508598657E+02  0.71605658286E+02 -0.45230944680E+02  0.85742426462E+02  0.47000000000E+01 0. -1.
        -13    1    6    6    0    0  0.41565437351E+01  0.36328542728E+01 -0.17489725240E+02  0.18340255586E+02  0.00000000000E+00 0.  1.
         14    1    6    6    0    0 -0.15663407992E+02  0.39838898061E+01  0.85547995202E+02  0.87061318684E+02  0.00000000000E+00 0. -1.
         -5    1    3    3    0  503  0.52220688504E+02 -0.47859985855E+01 -0.12875459414E+03  0.13910334864E+03  0.47000000000E+01 0.  1.
         13    1    4    4    0    0 -0.17851875569E+01 -0.57860325003E+02 -0.12519904780E+03  0.13793406277E+03  0.00000000000E+00 0. -1.
        -14    1    4    4    0    0 -0.51437235347E+02 -0.16576078776E+02 -0.39035735982E+02  0.66665915215E+02  0.00000000000E+00 0.  1.
</event>
<event>
12    1  0.8526130E-002  0.2100748E+03  0.7818608E-02  0.1142189E+00
         21   -1    0    0  501  502  0.00000000000E+00  0.00000000000E+00  0.55811714565E+02  0.55811714565E+02  0.00000000000E+00 0. -1.
         21   -1    0    0  502  503 -0.00000000000E+00 -0.00000000000E+00 -0.85315250147E+03  0.85315250147E+03  0.00000000000E+00 0.  1.
         -6    2    1    2    0  503  0.55803800707E+02 -0.10378948845E+03 -0.53661422482E+03  0.57626925277E+03  0.17391119380E+03 0.  0.
        -24    2    3    3    0    0  0.98564115064E+02 -0.40037621968E+02 -0.35903351044E+03  0.38274988660E+03  0.79211855962E+02 0.  0.
          6    2    1    2  501    0 -0.55803800707E+02  0.10378948845E+03 -0.26072656209E+03  0.33269496326E+03  0.16976830185E+03 0.  0.
         24    2    5    5    0    0 -0.10089854640E+03  0.72266724228E+02 -0.15276239119E+03  0.21142842645E+03  0.77218101841E+02 0.  0.
          5    1    5    5  501    0  0.45094745689E+02  0.31522764226E+02 -0.10796417090E+03  0.12126653682E+03  0.47000000000E+01 0. -1.
        -11    1    6    6    0    0 -0.72004300354E+02  0.16247316601E+02 -0.11870528348E+03  0.13978390069E+03  0.00000000000E+00 0.  1.
         12    1    6    6    0    0 -0.28894246043E+02  0.56019407627E+02 -0.34057107710E+02  0.71644525756E+02  0.00000000000E+00 0. -1.
         -5    1    3    3    0  503 -0.42760314357E+02 -0.63751866485E+02 -0.17758071438E+03  0.19351936617E+03  0.47000000000E+01 0.  1.
         13    1    4    4    0    0  0.20279342688E+01  0.15429022065E+02 -0.94019556363E+02  0.95298710473E+02  0.00000000000E+00 0. -1.
        -14    1    4    4    0    0  0.96536180796E+02 -0.55466644033E+02 -0.26501395408E+03  0.28745117613E+03  0.00000000000E+00 0.  1.
</event>
<event>
12    1  0.8526130E-002  0.1982764E+03  0.7818608E-02  0.1151950E+00
         21   -1    0    0  503  502  0.00000000000E+00  0.00000000000E+00  0.54170764919E+03  0.54170764919E+03  0.00000000000E+00 0.  1.
         21   -1    0    0  501  503 -0.00000000000E+00 -0.00000000000E+00 -0.26085591723E+03  0.26085591723E+03  0.00000000000E+00 0.  1.
          6    2    1    2  501    0 -0.63488659545E+02  0.73403448653E+02 -0.20129690349E+03  0.28254905225E+03  0.17290068654E+03 0.  0.
         24    2    3    3    0    0 -0.10771730441E+03  0.35107114516E+02 -0.13158857460E+03  0.19142208944E+03  0.80568828958E+02 0.  0.
         -6    2    1    2    0  502  0.63488659545E+02 -0.73403448653E+02  0.48214863545E+03  0.52001451417E+03  0.16890503876E+03 0.  0.
        -24    2    5    5    0    0 -0.11545122898E+02 -0.65858531445E+02  0.37335846128E+03  0.38755929049E+03  0.79592882916E+02 0.  0.
          5    1    3    3  501    0  0.44228644864E+02  0.38296334137E+02 -0.69708328890E+02  0.91126962813E+02  0.47000000000E+01 0. -1.
        -13    1    4    4    0    0 -0.34400793639E+02  0.41618188816E+01 -0.99945633762E+02  0.10578215846E+03  0.00000000000E+00 0.  1.
         14    1    4    4    0    0 -0.73316510771E+02  0.30945295634E+02 -0.31642940839E+02  0.85639930981E+02  0.00000000000E+00 0. -1.
         -5    1    5    5    0  502  0.75033782444E+02 -0.75449172079E+01  0.10879017416E+03  0.13245522367E+03  0.47000000000E+01 0.  1.
         11    1    6    6    0    0  0.10955184499E+02  0.79219013367E+01  0.12053910357E+02  0.18112684591E+02  0.00000000000E+00 0. -1.
        -12    1    6    6    0    0 -0.22500307398E+02 -0.73780432782E+02  0.36130455092E+03  0.36944660590E+03  0.00000000000E+00 0.  1.
</event>
<event>
12    1  0.8526130E-002  0.2342075E+03  0.7818608E-02  0.1124401E+00
         21   -1    0    0  501  502  0.00000000000E+00  0.00000000000E+00  0.14601910990E+04  0.14601910990E+04  0.00000000000E+00 0. -1.
         21   -1    0    0  502  503 -0.00000000000E+00 -0.00000000000E+00 -0.20874723867E+04  0.20874723867E+04  0.00000000000E+00 0. -1.
         -6    2    1    2    0  503 -0.53979815999E+02  0.14819156921E+03 -0.20716623640E+04  0.20844171456E+04  0.16773587817E+03 0.  0.
        -24    2    3    3    0    0 -0.70503137726E+02  0.13950213953E+03 -0.20385151175E+04  0.20460849620E+04  0.80549662753E+02 0.  0.
          6    2    1    2  501    0  0.53979815999E+02 -0.14819156921E+03  0.14443810763E+04  0.14632463401E+04  0.17314328282E+03 0.  0.
         24    2    5    5    0    0  0.72562414220E+02 -0.16529846762E+03  0.13763688852E+04  0.13905434717E+04  0.81430652546E+02 0.  0.
          5    1    5    5  501    0 -0.18582598221E+02  0.17106898406E+02  0.68012191158E+02  0.72702868415E+02  0.47000000000E+01 0. -1.
        -11    1    6    6    0    0 -0.13509223373E+02 -0.10685203714E+02  0.63190117755E+02  0.65495524094E+02  0.00000000000E+00 0.  1.
         12    1    6    6    0    0  0.86071637592E+02 -0.15461326390E+03  0.13131787674E+04  0.13250479476E+04  0.00000000000E+00 0. -1.
         -5    1    3    3    0  503  0.16523321727E+02  0.86894296789E+01 -0.33147246501E+02  0.38332183601E+02  0.47000000000E+01 0.  1.
         13    1    4    4    0    0 -0.79552973459E+02  0.10101551865E+03 -0.12541394196E+04  0.12607134862E+04  0.00000000000E+00 0. -1.
        -14    1    4    4    0    0  0.90498357323E+01  0.38486620886E+02 -0.78437569792E+03  0.78537147580E+03  0.00000000000E+00 0.  1.
</event>
<event>
12    1  0.8526130E-002  0.2258473E+03  0.7818608E-02  0.1129963E+00
         21   -1    0    0  501  502  0.00000000000E+00  0.00000000000E+00  0.41431328307E+02  0.41431328307E+02  0.00000000000E+00 0.  1.
         21   -1    0    0  502  503 -0.00000000000E+00 -0.00000000000E+00 -0.12425796308E+04  0.12425796308E+04  0.00000000000E+00 0.  1.
         -6    2    1    2    0  503  0.11108608514E+03 -0.92654617108E+02 -0.68418933031E+03  0.71987126811E+03  0.17080575677E+03 0.  0.
        -24    2    3    3    0    0  0.96864117379E+01 -0.13684141715E+02 -0.16419831555E+03  0.18421188456E+03  0.81803724092E+02 0.  0.
          6    2    1    2  501    0 -0.11108608514E+03  0.92654617108E+02 -0.51695897216E+03  0.56413969098E+03  0.17344167798E+03 0.  0.
         24    2    5    5    0    0 -0.35162127926E+02  0.94915320024E+02 -0.43002643555E+03  0.44860219067E+03  0.77948040314E+02 0.  0.
          5    1    5    5  501    0 -0.75923957212E+02 -0.22607029164E+01 -0.86932536611E+02  0.11553750031E+03  0.47000000000E+01 0. -1.
        -13    1    6    6    0    0 -0.39529852073E+02  0.18012222094E+02 -0.89665354977E+02  0.99633956224E+02  0.00000000000E+00 0.  1.
         14    1    6    6    0    0  0.43677241464E+01  0.76903097930E+02 -0.34036108057E+03  0.34896823445E+03  0.00000000000E+00 0. -1.
         -5    1    3    3    0  503  0.10139967340E+03 -0.78970475393E+02 -0.51999101476E+03  0.53565938355E+03  0.47000000000E+01 0.  1.
         13    1    4    4    0    0 -0.98092490848E+01 -0.40021931909E+02 -0.46938514723E+02  0.62459591463E+02  0.00000000000E+00 0. -1.
        -14    1    4    4    0    0  0.19495660823E+02  0.26337790194E+02 -0.11725980083E+03  0.12175229310E+03  0.00000000000E+00 0.  1.
</event>
<event>
12    1  0.8526130E-002  0.2656647E+03  0.7818608E-02  0.1103985E+00
         21   -1    0    0  501  502  0.00000000000E+00  0.00000000000E+00  0.71712809089E+02  0.71712809089E+02  0.00000000000E+00 0. -1.
         21   -1    0    0  502  503 -0.00000000000E+00 -0.00000000000E+00 -0.10096325509E+04  0.10096325509E+04  0.00000000000E+00 0.  1.
         -6    2    1    2    0  503  0.16946926206E+03 -0.11050401370E+03 -0.56173759149E+03  0.62081224496E+03  0.17008160973E+03 0.  0.
        -24    2    3    3    0    0  0.19481470637E+03 -0.84603904896E+02 -0.46250514328E+03  0.51506549105E+03  0.79188774293E+02 0.  0.
          6    2    1    2  501    0 -0.16946926206E+03  0.11050401370E+03 -0.37618215029E+03  0.46053311500E+03  0.17218238002E+03 0.  0.
         24    2    5    5    0    0 -0.12706273922E+03  0.61215351082E+02 -0.35773655813E+03  0.39278346325E+03  0.80069626425E+02 0.  0.
          5    1    5    5  501    0 -0.42406522838E+02  0.49288662616E+02 -0.18445592159E+02  0.67749651746E+02  0.47000000000E+01 0. -1.
        -11    1    6    6    0    0 -0.93061619603E+02  0.43293075693E+02 -0.15149100046E+03  0.18298709973E+03  0.00000000000E+00 0.  1.
         12    1    6    6    0    0 -0.34001119620E+02  0.17922275388E+02 -0.20624555767E+03  0.20979636352E+03  0.00000000000E+00 0. -1.
         -5    1    3    3    0  503 -0.25345444307E+02 -0.25900108801E+02 -0.99232448213E+02  0.10574675390E+03  0.47000000000E+01 0.  1.
         11    1    4    4    0    0  0.13959860592E+03 -0.96581092424E+02 -0.36019465348E+03  0.39819074146E+03  0.00000000000E+00 0. -1.
        -12    1    4    4    0    0  0.55216100449E+02  0.11977187527E+02 -0.10231048979E+03  0.11687474959E+03  0.00000000000E+00 0.  1.
</event>
<event>
12    1  0.8526130E-002  0.2124902E+03  0.7818608E-02  0.1139763E+00
         21   -1    0    0  501  502  0.00000000000E+00  0.00000000000E+00  0.24845376078E+04  0.24845376078E+04  0.00000000000E+00 0. -1.
         21   -1    0    0  502  503 -0.00000000000E+00 -0.00000000000E+00 -0.43056193758E+02  0.43056193758E+02  0.00000000000E+00 0. -1.
         -6    2    1    2    0  503  0.31138112523E+02 -0.11909968534E+03  0.25774155706E+03  0.33354005808E+03  0.17223223569E+03 0.  0.
        -24    2    3    3    0    0  0.71731598679E+02 -0.63401834928E+02  0.93976339893E+02  0.15580087272E+03  0.79228432777E+02 0.  0.
          6    2    1    2  501    0 -0.31138112523E+02  0.11909968534E+03  0.21837398570E+04  0.21940537435E+04  0.17319858308E+03 0.  0.
         24    2    5    5    0    0 -0.56407705823E+02  0.49409899843E+02  0.71968790065E+03  0.72811873831E+03  0.81136029274E+02 0.  0.
          5    1    5    5  501    0  0.25269593300E+02  0.69689785499E+02  0.14640519563E+04  0.14659350052E+04  0.47000000000E+01 0. -1.
        -13    1    6    6    0    0  0.79293115562E+01 -0.15600857399E+02  0.77580463973E+02  0.79529800223E+02  0.00000000000E+00 0.  1.
         14    1    6    6    0    0 -0.64337017379E+02  0.65010757242E+02  0.64210743668E+03  0.64858893808E+03  0.00000000000E+00 0. -1.
         -5    1    3    3    0  503 -0.40593486155E+02 -0.55697850414E+02  0.16376521717E+03  0.17773918536E+03  0.47000000000E+01 0.  1.
         13    1    4    4    0    0  0.47829335654E+01 -0.49239178207E+02  0.15860902146E+02  0.51951336276E+02  0.00000000000E+00 0. -1.
        -14    1    4    4    0    0  0.66948665113E+02 -0.14162656721E+02  0.78115437747E+02  0.10384953645E+03  0.00000000000E+00 0.  1.
</event>
<event>
12    1  0.8526130E-002  0.1868848E+03  0.7818608E-02  0.1164565E+00
         21   -1    0    0  501  502  0.00000000000E+00  0.00000000000E+00  0.10967788340E+04  0.10967788340E+04  0.00000000000E+00 0.  1.
         21   -1    0    0  502  503 -0.00000000000E+00 -0.00000000000E+00 -0.37858286335E+02  0.37858286335E+02  0.00000000000E+00 0. -1.
         -6    2    1    2    0  503 -0.65699918291E+02 -0.32506076849E+02  0.77916657877E+03  0.79820256301E+03  0.15701480769E+03 0.  0.
        -24    2    3    3    0    0 -0.70005758141E+02 -0.72926135759E+02  0.61611513976E+03  0.63009490946E+03  0.84868734175E+02 0.  0.
          6    2    1    2  501    0  0.65699918291E+02  0.32506076849E+02  0.27975396889E+03  0.33643455732E+03  0.17190928989E+03 0.  0.
         24    2    5    5    0    0  0.87084204094E+02  0.74644487229E+02  0.20893218109E+03  0.25116587059E+03  0.79222346455E+02 0.  0.
          5    1    5    5  501    0 -0.21384285803E+02 -0.42138410380E+02  0.70821787805E+02  0.85268686730E+02  0.47000000000E+01 0. -1.
        -11    1    6    6    0    0  0.49781046000E+02 -0.34935885872E+01  0.52930416109E+02  0.72746042171E+02  0.00000000000E+00 0.  1.
         12    1    6    6    0    0  0.37303158095E+02  0.78138075816E+02  0.15600176498E+03  0.17841982842E+03  0.00000000000E+00 0. -1.
         -5    1    3    3    0  503  0.43058398495E+01  0.40420058910E+02  0.16305143901E+03  0.16810765356E+03  0.47000000000E+01 0.  1.
         13    1    4    4    0    0 -0.33339371123E+02 -0.52649086449E+02  0.15467949969E+03  0.16676086950E+03  0.00000000000E+00 0. -1.
        -14    1    4    4    0    0 -0.36666387018E+02 -0.20277049310E+02  0.46143564006E+03  0.46333403996E+03  0.00000000000E+00 0.  1.
</event>
<event>
12    1  0.8526130E-002  0.2044022E+03  0.7818608E-02  0.1146356E+00
         21   -1    0    0  503  502  0.00000000000E+00  0.00000000000E+00  0.70367028416E+03  0.70367028416E+03  0.00000000000E+00 0.  1.
         21   -1    0    0  501  503 -0.00000000000E+00 -0.00000000000E+00 -0.59006250628E+02  0.59006250628E+02  0.00000000000E+00 0. -1.
          6    2    1    2  501    0 -0.10442952249E+03 -0.30870375557E+02  0.31570599955E+03  0.37609908284E+03  0.17297900654E+03 0.  0.
         24    2    3    3    0    0 -0.70016992157E+01 -0.29678945913E+01  0.22807215209E+03  0.24203749098E+03  0.80668508657E+02 0.  0.
         -6    2    1    2    0  502  0.10442952249E+03  0.30870375557E+02  0.32895803398E+03  0.38657745195E+03  0.17137745763E+03 0.  0.
        -24    2    5    5    0    0  0.27237380822E+02 -0.19986717846E+02  0.25161269829E+03  0.26595630274E+03  0.79261978413E+02 0.  0.
          5    1    3    3  501    0 -0.97427823269E+02 -0.27902480965E+02  0.87633847461E+02  0.13406159186E+03  0.47000000000E+01 0. -1.
        -11    1    4    4    0    0 -0.41672784704E+02  0.72112491718E+01  0.92103655438E+02  0.10134942745E+03  0.00000000000E+00 0.  1.
         12    1    4    4    0    0  0.34671085488E+02 -0.10179143763E+02  0.13596849665E+03  0.14068806353E+03  0.00000000000E+00 0. -1.
         -5    1    5    5    0  502  0.77192141663E+02  0.50857093403E+02  0.77345335685E+02  0.12062114921E+03  0.47000000000E+01 0.  1.
         11    1    6    6    0    0  0.12272355136E+02 -0.42836651719E+02  0.74959370441E+02  0.87203765102E+02  0.00000000000E+00 0. -1.
        -12    1    6    6    0    0  0.14965025686E+02  0.22849933873E+02  0.17665332785E+03  0.17875253764E+03  0.00000000000E+00 0.  1.
</event>
<event>
12    1  0.8526130E-002  0.1798955E+03  0.7818608E-02  0.1168047E+00
         21   -1    0    0  501  502  0.00000000000E+00  0.00000000000E+00  0.10501989517E+04  0.10501989517E+04  0.00000000000E+00 0. -1.
         21   -1    0    0  502  503 -0.00000000000E+00 -0.00000000000E+00 -0.45239833902E+02  0.45239833902E+02  0.00000000000E+00 0.  1.
         -6    2    1    2    0  503  0.50093333056E+02 -0.14286320789E+02  0.19268380232E+03  0.26360851689E+03  0.17218873809E+03 0.  0.
        -24    2    3    3    0    0 -0.32233656170E+02  0.20093211330E+02  0.14012286375E+03  0.15995318588E+03  0.67140591285E+02 0.  0.
          6    2    1    2  501    0 -0.50093333056E+02  0.14286320789E+02  0.81227531545E+03  0.83183026868E+03  0.17157204556E+03 0.  0.
         24    2    5    5    0    0  0.10843752412E+02  0.19816249299E+02  0.19290821048E+03  0.20943038981E+03  0.78340537414E+02 0.  0.
          5    1    5    5  501    0 -0.60937085467E+02 -0.55299285096E+01  0.61936710497E+03  0.62239987886E+03  0.47000000000E+01 0. -1.
        -13    1    6    6    0    0  0.32029665841E+02  0.40489604669E+02  0.11370838790E+03  0.12487956221E+03  0.00000000000E+00 0.  1.
         14    1    6    6    0    0 -0.21185913430E+02 -0.20673355370E+02  0.79199822584E+02  0.84550827598E+02  0.00000000000E+00 0. -1.
         -5    1    3    3    0  503  0.82326989226E+02 -0.34379532119E+02  0.52560938570E+02  0.10365533101E+03  0.47000000000E+01 0.  1.
         11    1    4    4    0    0 -0.12624893186E+01 -0.20565399931E+02  0.71362958367E+02  0.74277866020E+02  0.00000000000E+00 0. -1.
        -12    1    4    4    0    0 -0.30971166852E+02  0.40658611261E+02  0.68759905379E+02  0.85675319862E+02  0.00000000000E+00 0.  1.
</event>
<event>
12    1  0.8526130E-002  0.1849561E+03  0.7818608E-02  0.1163280E+00
         21   -1    0    0  503  502  0.00000000000E+00  0.00000000000E+00  0.13405597385E+04  0.13405597385E+04  0.00000000000E+00 0. -1.
         21   -1    0    0  501  503 -0.00000000000E+00 -0.00000000000E+00 -0.25723080251E+02  0.25723080251E+02  0.00000000000E+00 0. -1.
          6    2    1    2  501    0  0.36338207242E+02 -0.56666516209E+02  0.58312952562E+03  0.61175878578E+03  0.17227074320E+03 0.  0.
         24    2    3    3    0    0 -0.12259655189E+01 -0.99580556056E+02  0.38552464902E+03  0.40603455496E+03  0.79479649474E+02 0.  0.
         -6    2    1    2    0  502 -0.36338207242E+02  0.56666516209E+02  0.73170713267E+03  0.75452403301E+03  0.17140486874E+03 0.  0.
        -24    2    5    5    0    0 -0.23153508829E+02 -0.35206289419E+02  0.35301589383E+03  0.36459635631E+03  0.80837577591E+02 0.  0.
          5    1    3    3  501    0  0.37564172761E+02  0.42914039847E+02  0.19760487660E+03  0.20572423082E+03  0.47000000000E+01 0. -1.
        -11    1    4    4    0    0  0.24651330726E+02 -0.54106857491E+02  0.10494190836E+03  0.12061527376E+03  0.00000000000E+00 0.  1.
         12    1    4    4    0    0 -0.25877296245E+02 -0.45473698565E+02  0.28058274066E+03  0.28541928119E+03  0.00000000000E+00 0. -1.
         -5    1    5    5    0  502 -0.13184698413E+02  0.91872805628E+02  0.37869123884E+03  0.38992767670E+03  0.47000000000E+01 0.  1.
         13    1    6    6    0    0 -0.48491854334E+02 -0.16474643870E+02  0.13634660460E+03  0.14564776144E+03  0.00000000000E+00 0. -1.
        -14    1    6    6    0    0  0.25338345505E+02 -0.18731645548E+02  0.21666928923E+03  0.21894859487E+03  0.00000000000E+00 0.  1.
</event>
<event>
12    1  0.8526130E-002  0.3498883E+03  0.7818608E-02  0.1062694E+00
         21   -1    0    0  503  502  0.00000000000E+00  0.00000000000E+00  0.41124501733E+03  0.41124501733E+03  0.00000000000E+00 0. -1.
         21   -1    0    0  501  503 -0.00000000000E+00 -0.00000000000E+00 -0.11946579951E+04  0.11946579951E+04  0.00000000000E+00 0. -1.
          6    2    1    2  501    0  0.16639503934E+03  0.25536547794E+03 -0.10876136829E+04  0.11425083600E+04  0.17182256282E+03 0.  0.
         24    2    3    3    0    0  0.11027536182E+02  0.10484485290E+03 -0.46442103358E+03  0.48282154968E+03  0.79471395292E+02 0.  0.
         -6    2    1    2    0  502 -0.16639503934E+03 -0.25536547794E+03  0.30420070510E+03  0.46339465243E+03  0.17116570473E+03 0.  0.
        -24    2    5    5    0    0 -0.14388288709E+03 -0.27421685422E+03  0.27694242727E+03  0.42305515446E+03  0.79883586276E+02 0.  0.
          5    1    3    3  501    0  0.15536750316E+03  0.15052062504E+03 -0.62319264929E+03  0.65968681033E+03  0.47000000000E+01 0. -1.
        -11    1    4    4    0    0 -0.28750697653E+02  0.58159812221E+02 -0.16736700933E+03  0.17950176096E+03  0.00000000000E+00 0.  1.
         12    1    4    4    0    0  0.39778233835E+02  0.46685040677E+02 -0.29705402424E+03  0.30331978872E+03  0.00000000000E+00 0. -1.
         -5    1    5    5    0  502 -0.22512152254E+02  0.18851376273E+02  0.27258277823E+02  0.40339497969E+02  0.47000000000E+01 0.  1.
         13    1    6    6    0    0 -0.13458351659E+03 -0.22753182377E+03  0.26427187630E+03  0.37379550341E+03  0.00000000000E+00 0. -1.
        -14    1    6    6    0    0 -0.92993704950E+01 -0.46685030448E+02  0.12670550975E+02  0.49259651050E+02  0.00000000000E+00 0.  1.
</event>
<event>
12    1  0.8526130E-002  0.1810066E+03  0.7818608E-02  0.1167107E+00
         21   -1    0    0  501  502  0.00000000000E+00  0.00000000000E+00  0.18084052869E+03  0.18084052869E+03  0.00000000000E+00 0. -1.
         21   -1    0    0  502  503 -0.00000000000E+00 -0.00000000000E+00 -0.19551282644E+03  0.19551282644E+03  0.00000000000E+00 0. -1.
         -6    2    1    2    0  503 -0.47144306986E+02 -0.18948246903E+02 -0.60262834780E+02  0.18969357332E+03  0.17254106978E+03 0.  0.
        -24    2    3    3    0    0 -0.54103458020E+02 -0.32193975751E+02  0.23224825980E+02  0.10474559739E+03  0.80427677986E+02 0.  0.
          6    2    1    2  501    0  0.47144306986E+02  0.18948246903E+02  0.45590537026E+02  0.18665978180E+03  0.17372897091E+03 0.  0.
         24    2    5    5    0    0  0.31772296126E+02 -0.57297151370E+02  0.24390103106E+02  0.10590578578E+03  0.79553227312E+02 0.  0.
          5    1    5    5  501    0  0.15372010860E+02  0.76245398273E+02  0.21200433920E+02  0.80753996026E+02  0.47000000000E+01 0. -1.
        -11    1    6    6    0    0  0.49672837078E+02 -0.17043938952E+02  0.31564359497E+02  0.61271489200E+02  0.00000000000E+00 0.  1.
         12    1    6    6    0    0 -0.17900540952E+02 -0.40253212418E+02 -0.71742563906E+01  0.44634296579E+02  0.00000000000E+00 0. -1.
         -5    1    3    3    0  503  0.69591510345E+01  0.13245728848E+02 -0.83487660760E+02  0.84947975933E+02  0.47000000000E+01 0.  1.
         11    1    4    4    0    0  0.11205080708E+02 -0.34533905443E+02  0.13196437453E+02  0.38630174996E+02  0.00000000000E+00 0. -1.
        -12    1    4    4    0    0 -0.65308538728E+02  0.23399296912E+01  0.10028388527E+02  0.66115422393E+02  0.00000000000E+00 0.  1.
</event>
<event>
12    1  0.8526130E-002  0.1956989E+03  0.7818608E-02  0.1154656E+00
         21   -1    0    0  501  502  0.00000000000E+00  0.00000000000E+00  0.20899652333E+03  0.20899652333E+03  0.00000000000E+00 0. -1.
         21   -1    0    0  502  503 -0.00000000000E+00 -0.00000000000E+00 -0.19111731316E+03  0.19111731316E+03  0.00000000000E+00 0. -1.
         -6    2    1    2    0  503 -0.78546058543E+02  0.33266147747E+02 -0.43521696675E+02  0.19500864868E+03  0.16987676439E+03 0.  0.
        -24    2    3    3    0    0 -0.11376258485E+03  0.39072060130E+02 -0.59003567916E+01  0.14293785496E+03  0.76992626772E+02 0.  0.
          6    2    1    2  501    0  0.78546058543E+02 -0.33266147747E+02  0.61400906845E+02  0.20510518781E+03  0.17613048234E+03 0.  0.
         24    2    5    5    0    0 -0.28331726337E+02 -0.40602775427E+01  0.41899566609E+02  0.92507514542E+02  0.77349169315E+02 0.  0.
          5    1    5    5  501    0  0.10687778488E+03 -0.29205870204E+02  0.19501340236E+02  0.11259767327E+03  0.47000000000E+01 0. -1.
        -13    1    6    6    0    0 -0.29147153651E+02  0.27571884536E+02  0.15071895974E+00  0.40122164686E+02  0.00000000000E+00 0.  1.
         14    1    6    6    0    0  0.81542731438E+00 -0.31632162079E+02  0.41748847649E+02  0.52385349856E+02  0.00000000000E+00 0. -1.
         -5    1    3    3    0  503  0.35216526303E+02 -0.58059123827E+01 -0.37621339884E+02  0.52070793714E+02  0.47000000000E+01 0.  1.
         11    1    4    4    0    0 -0.10817641937E+03  0.19725612492E+02 -0.27562433402E+02  0.11336192143E+03  0.00000000000E+00 0. -1.
        -12    1    4    4    0    0 -0.55861654736E+01  0.19346447638E+02  0.21662076610E+02  0.29575933527E+02  0.00000000000E+00 0.  1.
</event>
<event>
12    1  0.8526130E-002  0.2118860E+03  0.7818608E-02  0.1140261E+00
         21   -1    0    0  503  502  0.00000000000E+00  0.00000000000E+00  0.51307002221E+02  0.51307002221E+02  0.00000000000E+00 0. -1.
         21   -1    0    0  501  503 -0.00000000000E+00 -0.00000000000E+00 -0.95965358578E+03  0.95965358578E+03  0.00000000000E+00 0. -1.
          6    2    1    2  501    0  0.97711524236E+02 -0.73680399025E+02 -0.60847437534E+03  0.64431105110E+03  0.17297202653E+03 0.  0.
         24    2    3    3    0    0  0.10947427362E+03 -0.33780065927E+01 -0.47107110100E+03  0.48944808440E+03  0.75202510735E+02 0.  0.
         -6    2    1    2    0  502 -0.97711524236E+02  0.73680399025E+02 -0.29987220822E+03  0.36664953690E+03  0.17184934820E+03 0.  0.
        -24    2    5    5    0    0 -0.48662309888E+02  0.84297545080E+02 -0.12826425754E+03  0.18779225313E+03  0.96644265554E+02 0.  0.
          5    1    3    3  501    0 -0.11762749380E+02 -0.70302392432E+02 -0.13740327434E+03  0.15486296670E+03  0.47000000000E+01 0. -1.
        -11    1    4    4    0    0  0.37568162282E+02  0.34010258784E+01 -0.52242392774E+02  0.64437577523E+02  0.00000000000E+00 0.  1.
         12    1    4    4    0    0  0.71906111335E+02 -0.67790324711E+01 -0.41882870822E+03  0.42501050688E+03  0.00000000000E+00 0. -1.
         -5    1    5    5    0  502 -0.49049214348E+02 -0.10617146055E+02 -0.17160795069E+03  0.17885728377E+03  0.47000000000E+01 0.  1.
         11    1    6    6    0    0  0.14391977557E+02  0.65005799861E+02 -0.40191877169E+02  0.77770624428E+02  0.00000000000E+00 0. -1.
        -12    1    6    6    0    0 -0.63054287445E+02  0.19291745219E+02 -0.88072380367E+02  0.11002162870E+03  0.00000000000E+00 0.  1.
</event>
<event>
12    1  0.8526130E-002  0.2075075E+03  0.7818608E-02  0.1143875E+00
         21   -1    0    0  501  502  0.00000000000E+00  0.00000000000E+00  0.11422036136E+04  0.11422036136E+04  0.00000000000E+00 0. -1.
         21   -1    0    0  502  503 -0.00000000000E+00 -0.00000000000E+00 -0.39497930998E+02  0.39497930998E+02  0.00000000000E+00 0. -1.
         -6    2    1    2    0  503  0.63730889859E+02 -0.96610695896E+02  0.41755871299E+03  0.46627744513E+03  0.17223276158E+03 0.  0.
        -24    2    3    3    0    0  0.50061453364E+02 -0.51984587628E+02  0.10840696639E+03  0.15358712636E+03  0.81414916055E+02 0.  0.
          6    2    1    2  501    0 -0.63730889859E+02  0.96610695896E+02  0.68514696957E+03  0.71542409942E+03  0.17032327862E+03 0.  0.
         24    2    5    5    0    0 -0.27914552911E+02  0.47296769067E+02  0.16241412066E+03  0.18912913013E+03  0.79845316996E+02 0.  0.
          5    1    5    5  501    0 -0.35816336948E+02  0.49313926829E+02  0.52273284891E+03  0.52629496929E+03  0.47000000000E+01 0. -1.
        -13    1    6    6    0    0 -0.14792585186E+02 -0.20169871411E+02  0.24374145550E+02  0.34924822984E+02  0.00000000000E+00 0.  1.
         14    1    6    6    0    0 -0.13121967725E+02  0.67466640478E+02  0.13803997511E+03  0.15420430715E+03  0.00000000000E+00 0. -1.
         -5    1    3    3    0  503  0.13669436494E+02 -0.44626108268E+02  0.30915174659E+03  0.31269031877E+03  0.47000000000E+01 0.  1.
         11    1    4    4    0    0  0.13153289986E+02 -0.63225034921E+02  0.90175597119E+02  0.11091461758E+03  0.00000000000E+00 0. -1.
        -12    1    4    4    0    0  0.36908163379E+02  0.11240447294E+02  0.18231369276E+02  0.42672508773E+02  0.00000000000E+00 0.  1.
</event>
<event>
12    1  0.8526130E-002  0.1729585E+03  0.7818608E-02  0.1174835E+00
         21   -1    0    0  501  502  0.00000000000E+00  0.00000000000E+00  0.37546928464E+02  0.37546928464E+02  0.00000000000E+00 0.  1.
         21   -1    0    0  502  503 -0.00000000000E+00 -0.00000000000E+00 -0.80176140621E+03  0.80176140621E+03  0.00000000000E+00 0.  1.
         -6    2    1    2    0  503  0.13436785868E+02 -0.23637224863E+02 -0.34681378378E+03  0.38754925746E+03  0.17080796446E+03 0.  0.
        -24    2    3    3    0    0 -0.46421041537E+01 -0.69203159666E+01 -0.35296388041E+03  0.36173811653E+03  0.78749756635E+02 0.  0.
          6    2    1    2  501    0 -0.13436785868E+02  0.23637224863E+02 -0.41740069396E+03  0.45175907721E+03  0.17065655250E+03 0.  0.
         24    2    5    5    0    0  0.56592220985E+02  0.41685823186E+00 -0.26119942010E+03  0.27894653373E+03  0.79894795669E+02 0.  0.
          5    1    5    5  501    0 -0.70029006852E+02  0.23220366631E+02 -0.15620127386E+03  0.17281254348E+03  0.47000000000E+01 0. -1.
        -11    1    6    6    0    0  0.61274895189E+02  0.26570143188E+02 -0.14343226971E+03  0.15821947188E+03  0.00000000000E+00 0.  1.
         12    1    6    6    0    0 -0.46826742043E+01 -0.26153284956E+02 -0.11776715039E+03  0.12072706185E+03  0.00000000000E+00 0. -1.
         -5    1    3    3    0  503  0.18078890021E+02 -0.16716908896E+02  0.61500966323E+01  0.25811140928E+02  0.47000000000E+01 0.  1.
         11    1    4    4    0    0  0.17138296869E+02  0.21069913614E+02 -0.51756785946E+02  0.58450212752E+02  0.00000000000E+00 0. -1.
        -12    1    4    4    0    0 -0.21780401023E+02 -0.27990229580E+02 -0.30120709447E+03  0.30328790378E+03  0.00000000000E+00 0.  1.
</event>
<event>
12    1  0.8526130E-002  0.1744567E+03  0.7818608E-02  0.1174220E+00
         21   -1    0    0  501  502  0.00000000000E+00  0.00000000000E+00  0.15796976008E+04  0.15796976008E+04  0.00000000000E+00 0.  1.
         21   -1    0    0  502  503 -0.00000000000E+00 -0.00000000000E+00 -0.26646905326E+02  0.26646905326E+02  0.00000000000E+00 0.  1.
         -6    2    1    2    0  503  0.10867998407E+02 -0.21230026165E+01  0.34826650425E+03  0.38951855409E+03  0.17410492663E+03 0.  0.
        -24    2    3    3    0    0  0.57963433532E+02 -0.25786239135E+02  0.13526053508E+03  0.17003834617E+03  0.81196903029E+02 0.  0.
          6    2    1    2  501    0 -0.10867998407E+02  0.21230026165E+01  0.12047841912E+04  0.12168259520E+04  0.17040489891E+03 0.  0.
         24    2    5    5    0    0  0.35107498022E+02 -0.74551766666E+01  0.37446969561E+03  0.38517113216E+03  0.82711136122E+02 0.  0.
          5    1    5    5  501    0 -0.45975496429E+02  0.95781792831E+01  0.83031449561E+03  0.83165481987E+03  0.47000000000E+01 0. -1.
        -11    1    6    6    0    0  0.22960306248E+02 -0.25417917003E+02  0.53860486494E+02  0.63829445973E+02  0.00000000000E+00 0.  1.
         12    1    6    6    0    0  0.12147191774E+02  0.17962740337E+02  0.32060920912E+03  0.32134168618E+03  0.00000000000E+00 0. -1.
         -5    1    3    3    0  503 -0.47095435125E+02  0.23663236518E+02  0.21300596916E+03  0.21948020793E+03  0.47000000000E+01 0.  1.
         13    1    4    4    0    0 -0.11388619754E+02 -0.19264475868E+02  0.59455043170E+01  0.23155338735E+02  0.00000000000E+00 0. -1.
        -14    1    4    4    0    0  0.69352053286E+02 -0.65217632671E+01  0.12931503076E+03  0.14688300743E+03  0.00000000000E+00 0.  1.
</event>
<event>
12    1  0.8526130E-002  0.1740284E+03  0.7818608E-02  0.1174048E+00
         21   -1    0    0  503  502  0.00000000000E+00  0.00000000000E+00  0.53796867237E+03  0.53796867237E+03  0.00000000000E+00 0. -1.
         21   -1    0    0  501  503 -0.00000000000E+00 -0.00000000000E+00 -0.17616636289E+03  0.17616636289E+03  0.00000000000E+00 0. -1.
          6    2    1    2  501    0 -0.28281363866E+01 -0.18636086175E+02 -0.11394411885E+03  0.20801233664E+03  0.17300453147E+03 0.  0.
         24    2    3    3    0    0  0.20320766143E+00 -0.62304122270E+02 -0.12652126062E+03  0.16222630254E+03  0.80174178529E+02 0.  0.
         -6    2    1    2    0  502  0.28281363866E+01  0.18636086175E+02  0.47574642832E+03  0.50612269862E+03  0.17166892535E+03 0.  0.
        -24    2    5    5    0    0 -0.63056527886E+02  0.29948671173E+02  0.26965478917E+03  0.28940948422E+03  0.78556321324E+02 0.  0.
          5    1    3    3  501    0 -0.30313440480E+01  0.43668036095E+02  0.12577141770E+02  0.45786034096E+02  0.47000000000E+01 0. -1.
        -11    1    4    4    0    0 -0.18428722262E+02 -0.31216937911E+02 -0.64701212328E+01  0.36823599574E+02  0.00000000000E+00 0.  1.
         12    1    4    4    0    0  0.18631929924E+02 -0.31087184358E+02 -0.12005113938E+03  0.12540270297E+03  0.00000000000E+00 0. -1.
         -5    1    5    5    0  502  0.65884664273E+02 -0.11312584998E+02  0.20609163916E+03  0.21671321440E+03  0.47000000000E+01 0.  1.
         13    1    6    6    0    0 -0.79503750763E+02  0.36308284370E+02  0.22078882902E+03  0.23745914369E+03  0.00000000000E+00 0. -1.
        -14    1    6    6    0    0  0.16447222877E+02 -0.63596131971E+01  0.48865960148E+02  0.51950340533E+02  0.00000000000E+00 0.  1.
</event>
<event>
12    1  0.8526130E-002  0.2785767E+03  0.7818608E-02  0.1096826E+00
         21   -1    0    0  503  502  0.00000000000E+00  0.00000000000E+00  0.27270078406E+02  0.27270078406E+02  0.00000000000E+00 0. -1.
         21   -1    0    0  501  503 -0.00000000000E+00 -0.00000000000E+00 -0.30318394997E+04  0.30318394997E+04  0.00000000000E+00 0.  1.
          6    2    1    2  501    0  0.11078284754E+03 -0.18842946106E+03 -0.19136051324E+04  0.19337759899E+04  0.17270343092E+03 0.  0.
         24    2    3    3    0    0  0.34680848832E+02 -0.29003455319E+02 -0.42929856430E+03  0.43898629105E+03  0.79798149886E+02 0.  0.
         -6    2    1    2    0  502 -0.11078284754E+03  0.18842946106E+03 -0.10909642889E+04  0.11253335882E+04  0.16850550175E+03 0.  0.
        -24    2    5    5    0    0 -0.74615345553E+02  0.19200407559E+03 -0.10357621843E+04  0.10590747894E+04  0.80019325007E+02 0.  0.
          5    1    3    3  501    0  0.76101998706E+02 -0.15942600574E+03 -0.14843065681E+04  0.14947896988E+04  0.47000000000E+01 0. -1.
        -11    1    4    4    0    0  0.51169963365E+02 -0.30626743271E+02 -0.19055901396E+03  0.19967248272E+03  0.00000000000E+00 0.  1.
         12    1    4    4    0    0 -0.16489114533E+02  0.16232879516E+01 -0.23873955033E+03  0.23931380832E+03  0.00000000000E+00 0. -1.
         -5    1    5    5    0  502 -0.36167501985E+02 -0.35746145241E+01 -0.55202104582E+02  0.66258798805E+02  0.47000000000E+01 0.  1.
         11    1    6    6    0    0 -0.12272881406E+02  0.13444169514E+03 -0.68700695406E+03  0.70014551912E+03  0.00000000000E+00 0. -1.
        -12    1    6    6    0    0 -0.62342464147E+02  0.57562380450E+02 -0.34875523023E+03  0.35892927032E+03  0.00000000000E+00 0.  1.
</event>
<event>
12    1  0.8526130E-002  0.1753367E+03  0.7818608E-02  0.1172991E+00
         21   -1    0    0  501  502  0.00000000000E+00  0.00000000000E+00  0.48957916379E+03  0.48957916379E+03  0.00000000000E+00 0.  1.
         21   -1    0    0  502  503 -0.00000000000E+00 -0.00000000000E+00 -0.34793226081E+03  0.34793226081E+03  0.00000000000E+00 0.  1.
         -6    2    1    2    0  503 -0.17548813766E+02  0.15905298752E+02 -0.30890992559E+03  0.35404022763E+03  0.17134235105E+03 0.  0.
        -24    2    3    3    0    0  0.19260268254E+02 -0.40222265472E+02 -0.10165663700E+03  0.13613835152E+03  0.78808567645E+02 0.  0.
          6    2    1    2  501    0  0.17548813766E+02 -0.15905298752E+02  0.45055682857E+03  0.48347119697E+03  0.17372968409E+03 0.  0.
         24    2    5    5    0    0 -0.55704373352E+02  0.11805962684E+02  0.25354495185E+03  0.27141056177E+03  0.78334490900E+02 0.  0.
          5    1    5    5  501    0  0.73253187118E+02 -0.27711261436E+02  0.19701187672E+03  0.21206063520E+03  0.47000000000E+01 0. -1.
        -13    1    6    6    0    0 -0.30868554898E+01 -0.15330399379E+02  0.15961907336E+03  0.16038328592E+03  0.00000000000E+00 0.  1.
         14    1    6    6    0    0 -0.52617517863E+02  0.27136362063E+02  0.93925878489E+02  0.11102727585E+03  0.00000000000E+00 0. -1.
         -5    1    3    3    0  503 -0.36809082020E+02  0.56127564224E+02 -0.20725328859E+03  0.21790187612E+03  0.47000000000E+01 0.  1.
         13    1    4    4    0    0  0.43405688675E+02 -0.37052473746E+02 -0.95114894840E+02  0.11092241811E+03  0.00000000000E+00 0. -1.
        -14    1    4    4    0    0 -0.24145420421E+02 -0.31697917262E+01 -0.65417421637E+01  0.25215933404E+02  0.00000000000E+00 0.  1.
</event>
<event>
12    1  0.8526130E-002  0.1743126E+03  0.7818608E-02  0.1173449E+00
         21   -1    0    0  501  502  0.00000000000E+00  0.00000000000E+00  0.22036870945E+03  0.22036870945E+03  0.00000000000E+00 0.  1.
         21   -1    0    0  502  503 -0.00000000000E+00 -0.00000000000E+00 -0.18635480798E+03  0.18635480798E+03  0.00000000000E+00 0.  1.
         -6    2    1    2    0  503 -0.24096528511E+02 -0.15303153155E+02 -0.86790985804E+02  0.19472435669E+03  0.17195950305E+03 0.  0.
        -24    2    3    3    0    0 -0.68364072688E+02 -0.52952114598E+02 -0.68572140322E+02  0.13364182158E+03  0.75368595388E+02 0.  0.
          6    2    1    2  501    0  0.24096528511E+02  0.15303153155E+02  0.12080488728E+03  0.21199916073E+03  0.17185748218E+03 0.  0.
         24    2    5    5    0    0 -0.21982731963E+01  0.26300403615E+02  0.14941099576E+03  0.17134506430E+03  0.79617471519E+02 0.  0.
          5    1    5    5  501    0  0.26294801707E+02 -0.10997250461E+02 -0.28606108482E+02  0.40654096435E+02  0.47000000000E+01 0. -1.
        -13    1    6    6    0    0 -0.55343410221E+01 -0.96941413538E+01  0.12968464764E+03  0.13016417764E+03  0.00000000000E+00 0.  1.
         14    1    6    6    0    0  0.33360678258E+01  0.35994544969E+02  0.19726348119E+02  0.41180886661E+02  0.00000000000E+00 0. -1.
         -5    1    3    3    0  503  0.44267544177E+02  0.37648961444E+02 -0.18218845482E+02  0.61082535114E+02  0.47000000000E+01 0.  1.
         13    1    4    4    0    0  0.75598170437E+01 -0.10740616825E+02  0.10001739541E+02  0.16508981718E+02  0.00000000000E+00 0. -1.
        -14    1    4    4    0    0 -0.75923889731E+02 -0.42211497773E+02 -0.78573879863E+02  0.11713283986E+03  0.00000000000E+00 0.  1.
</event>
<event>
12    1  0.8526130E-002  0.1941586E+03  0.7818608E-02  0.1154927E+00
         21   -1    0    0  501  502  0.00000000000E+00  0.00000000000E+00  0.74551519089E+03  0.74551519089E+03  0.00000000000E+00 0. -1.
         21   -1    0    0  502  503 -0.00000000000E+00 -0.00000000000E+00 -0.73941870175E+02  0.73941870175E+02  0.00000000000E+00 0. -1.
         -6    2    1    2    0  503  0.73042854911E+02 -0.51040672355E+02  0.10489600149E+03  0.22068245874E+03  0.17250265963E+03 0.  0.
        -24    2    3    3    0    0 -0.10849320217E+01  0.36247870909E+01  0.10062513784E+03  0.12835926811E+03  0.79601301404E+02 0.  0.
          6    2    1    2  501    0 -0.73042854911E+02  0.51040672355E+02  0.56667731923E+03  0.59877460233E+03  0.17166080326E+03 0.  0.
         24    2    5    5    0    0 -0.10661325409E+03  0.58373156285E+02  0.34699856772E+03  0.37637500501E+03  0.80475630316E+02 0.  0.
          5    1    5    5  501    0  0.33570399178E+02 -0.73324839296E+01  0.21967875151E+03  0.22239959732E+03  0.47000000000E+01 0. -1.
        -11    1    6    6    0    0 -0.42794181879E+02  0.26224262660E+01  0.42750357327E+02  0.60545950928E+02  0.00000000000E+00 0.  1.
         12    1    6    6    0    0 -0.63819072211E+02  0.55750730019E+02  0.30424821039E+03  0.31582905408E+03  0.00000000000E+00 0. -1.
         -5    1    3    3    0  503  0.74127786933E+02 -0.54665459446E+02  0.42708636473E+01  0.92323190631E+02  0.47000000000E+01 0.  1.
         11    1    4    4    0    0 -0.37528936577E+02 -0.11600203629E+02  0.40486132887E+02  0.56410218586E+02  0.00000000000E+00 0. -1.
        -12    1    4    4    0    0  0.36444004555E+02  0.15224990720E+02  0.60139004951E+02  0.71949049521E+02  0.00000000000E+00 0.  1.
</event>
<event>
12    1  0.8526130E-002  0.1745339E+03  0.7818608E-02  0.1173326E+00
         21   -1    0    0  501  502  0.00000000000E+00  0.00000000000E+00  0.41064085103E+03  0.41064085103E+03  0.00000000000E+00 0. -1.
         21   -1    0    0  502  503 -0.00000000000E+00 -0.00000000000E+00 -0.78223534044E+02  0.78223534044E+02  0.00000000000E+00 0. -1.
         -6    2    1    2    0  503 -0.20459251964E+02  0.30333938467E+02  0.10898575389E+03  0.20534409403E+03  0.17014574220E+03 0.  0.
        -24    2    3    3    0    0  0.13430143430E+02  0.38781661961E+02  0.13474944904E+03  0.16168961957E+03  0.79383455478E+02 0.  0.
          6    2    1    2  501    0  0.20459251964E+02 -0.30333938467E+02  0.22343156310E+03  0.28352029104E+03  0.17065568620E+03 0.  0.
         24    2    5    5    0    0  0.51029729396E+02 -0.51521219615E+02  0.22121099740E+03  0.24596398818E+03  0.79407233660E+02 0.  0.
          5    1    5    5  501    0 -0.30570477432E+02  0.21187281148E+02  0.22205656959E+01  0.37556302864E+02  0.47000000000E+01 0. -1.
        -11    1    6    6    0    0  0.22574986925E+02 -0.37220592307E+02  0.20622233693E+03  0.21076682561E+03  0.00000000000E+00 0.  1.
         12    1    6    6    0    0  0.28454742471E+02 -0.14300627309E+02  0.14988660466E+02  0.35197162572E+02  0.00000000000E+00 0. -1.
         -5    1    3    3    0  503 -0.33889395394E+02 -0.84477234934E+01 -0.25763695151E+02  0.43654474458E+02  0.47000000000E+01 0.  1.
         13    1    4    4    0    0  0.16592542476E+02 -0.10081364196E+02  0.12062339775E+01  0.19452541487E+02  0.00000000000E+00 0. -1.
        -14    1    4    4    0    0 -0.31623990463E+01  0.48863026157E+02  0.13354321506E+03  0.14223707808E+03  0.00000000000E+00 0.  1.
</event>
<event>
12    1  0.8526130E-002  0.2223799E+03  0.7818608E-02  0.1132139E+00
         21   -1    0    0  501  502  0.00000000000E+00  0.00000000000E+00  0.60483344198E+03  0.60483344198E+03  0.00000000000E+00 0. -1.
         21   -1    0    0  502  503 -0.00000000000E+00 -0.00000000000E+00 -0.22627159359E+03  0.22627159359E+03  0.00000000000E+00 0. -1.
         -6    2    1    2    0  503  0.12161193960E+01 -0.14111525596E+03 -0.14286780342E+03  0.26423492736E+03  0.17173786179E+03 0.  0.
        -24    2    3    3    0    0  0.15269832819E+02 -0.14441625292E+03 -0.54563019571E+02  0.17463454627E+03  0.80192766155E+02 0.  0.
          6    2    1    2  501    0 -0.12161193960E+01  0.14111525596E+03  0.52142965181E+03  0.56687010821E+03  0.17186577143E+03 0.  0.
         24    2    5    5    0    0  0.38129678934E+02  0.15066494540E+03  0.35729412965E+03  0.39774929918E+03  0.79947556101E+02 0.  0.
          5    1    5    5  501    0 -0.39345798330E+02 -0.95496894373E+01  0.16413552215E+03  0.16912080903E+03  0.47000000000E+01 0. -1.
        -13    1    6    6    0    0 -0.67033700753E+01  0.50591730008E+02  0.49874599806E+02  0.71357788793E+02  0.00000000000E+00 0.  1.
         14    1    6    6    0    0  0.44833049009E+02  0.10007321539E+03  0.30741952985E+03  0.32639151039E+03  0.00000000000E+00 0. -1.
         -5    1    3    3    0  503 -0.14053713423E+02  0.33009969593E+01 -0.88304783849E+02  0.89600381096E+02  0.47000000000E+01 0.  1.
         11    1    4    4    0    0  0.20433348940E+02 -0.45781446052E+02 -0.56901559915E+02  0.75836996725E+02  0.00000000000E+00 0. -1.
        -12    1    4    4    0    0 -0.51635161209E+01 -0.98634806870E+02  0.23385403442E+01  0.98797549544E+02  0.00000000000E+00 0.  1.
</event>
<event>
12    1  0.8526130E-002  0.2018516E+03  0.7818608E-02  0.1148399E+00
         21   -1    0    0  501  502  0.00000000000E+00  0.00000000000E+00  0.33165860766E+03  0.33165860766E+03  0.00000000000E+00 0.  1.
         21   -1    0    0  502  503 -0.00000000000E+00 -0.00000000000E+00 -0.13497124463E+03  0.13497124463E+03  0.00000000000E+00 0. -1.
         -6    2    1    2    0  503 -0.99151379630E+02 -0.28453340592E+02  0.26433529229E+02  0.20256461268E+03  0.17231686560E+03 0.  0.
        -24    2    3    3    0    0 -0.23977799111E+02 -0.72538602690E+02 -0.97670147367E+00  0.11108790368E+03  0.80639845408E+02 0.  0.
          6    2    1    2  501    0  0.99151379630E+02  0.28453340592E+02  0.17025383381E+03  0.26406523961E+03  0.17350358547E+03 0.  0.
         24    2    5    5    0    0  0.94266211660E+02  0.77146031313E+02  0.15527771350E+03  0.21267246604E+03  0.79251376604E+02 0.  0.
          5    1    5    5  501    0  0.48851679698E+01 -0.48692690722E+02  0.14976120303E+02  0.51392773569E+02  0.47000000000E+01 0. -1.
        -11    1    6    6    0    0  0.37904046429E+02 -0.12077270209E+02  0.43359743789E+02  0.58844239929E+02  0.00000000000E+00 0.  1.
         12    1    6    6    0    0  0.56362165231E+02  0.89223301523E+02  0.11191796971E+03  0.15382822611E+03  0.00000000000E+00 0. -1.
         -5    1    3    3    0  503 -0.75173580520E+02  0.44085262099E+02  0.27410230703E+02  0.91476709001E+02  0.47000000000E+01 0.  1.
         11    1    4    4    0    0  0.11137499662E+02 -0.74802373645E+01 -0.29056796367E+02  0.32004613181E+02  0.00000000000E+00 0. -1.
        -12    1    4    4    0    0 -0.35115298772E+02 -0.65058365326E+02  0.28080094893E+02  0.79083290498E+02  0.00000000000E+00 0.  1.
</event>
<event>
12    1  0.8526130E-002  0.2485976E+03  0.7818608E-02  0.1114815E+00
         21   -1    0    0  501  502  0.00000000000E+00  0.00000000000E+00  0.13910766229E+03  0.13910766229E+03  0.00000000000E+00 0. -1.
         21   -1    0    0  502  503 -0.00000000000E+00 -0.00000000000E+00 -0.82882696255E+03  0.82882696255E+03  0.00000000000E+00 0.  1.
         -6    2    1    2    0  503 -0.20772866661E+02  0.17583817129E+03 -0.67888141778E+03  0.72296662335E+03  0.17449981262E+03 0.  0.
        -24    2    3    3    0    0  0.13995522944E+02  0.71322778284E+02 -0.14590258755E+03  0.17870489242E+03  0.73246570942E+02 0.  0.
          6    2    1    2  501    0  0.20772866661E+02 -0.17583817129E+03 -0.10837882480E+02  0.24496800149E+03  0.16894166918E+03 0.  0.
         24    2    5    5    0    0  0.61603194877E+02 -0.71795333324E+02  0.27288939530E+02  0.12678267080E+03  0.79872622892E+02 0.  0.
          5    1    5    5  501    0 -0.40830328216E+02 -0.10404283797E+03 -0.38126822010E+02  0.11818533070E+03  0.47000000000E+01 0. -1.
        -13    1    6    6    0    0  0.49731501189E+02  0.12059708217E+01  0.13532503327E+02  0.51553905986E+02  0.00000000000E+00 0.  1.
         14    1    6    6    0    0  0.11871693688E+02 -0.73001304145E+02  0.13756436203E+02  0.75228764811E+02  0.00000000000E+00 0. -1.
         -5    1    3    3    0  503 -0.34768389605E+02  0.10451539301E+03 -0.53297883023E+03  0.54426173094E+03  0.47000000000E+01 0.  1.
         11    1    4    4    0    0  0.26337347397E+02  0.78902260169E+02 -0.14043984678E+03  0.16322552831E+03  0.00000000000E+00 0. -1.
        -12    1    4    4    0    0 -0.12341824453E+02 -0.75794818849E+01 -0.54627407715E+01  0.15479364109E+02  0.00000000000E+00 0.  1.
</event>
<event>
12    1  0.8526130E-002  0.2138422E+03  0.7818608E-02  0.1138796E+00
         21   -1    0    0  503  502  0.00000000000E+00  0.00000000000E+00  0.49009636940E+03  0.49009636940E+03  0.00000000000E+00 0.  1.
         21   -1    0    0  501  503 -0.00000000000E+00 -0.00000000000E+00 -0.11868695829E+03  0.11868695829E+03  0.00000000000E+00 0. -1.
          6    2    1    2  501    0 -0.11939403697E+03  0.42659503785E+02  0.43886371897E+02  0.21829912327E+03  0.17220256750E+03 0.  0.
         24    2    3    3    0    0 -0.19954847055E+02  0.31386956774E+02  0.72937352967E+02  0.11398578611E+03  0.79306777780E+02 0.  0.
         -6    2    1    2    0  502  0.11939403697E+03 -0.42659503785E+02  0.32752303921E+03  0.39048420442E+03  0.17068041293E+03 0.  0.
        -24    2    5    5    0    0  0.10326385616E+03 -0.41831207473E+01  0.10140348369E+03  0.16049994806E+03  0.69257810634E+02 0.  0.
          5    1    3    3  501    0 -0.99439189919E+02  0.11272547011E+02 -0.29050981070E+02  0.10431333716E+03  0.47000000000E+01 0. -1.
        -11    1    4    4    0    0 -0.47386124934E+02  0.25603542800E+02  0.27197182391E+02  0.60337989444E+02  0.00000000000E+00 0.  1.
         12    1    4    4    0    0  0.27431277879E+02  0.57834139739E+01  0.45740170576E+02  0.53647796671E+02  0.00000000000E+00 0. -1.
         -5    1    5    5    0  502  0.16130180818E+02 -0.38476383037E+02  0.22611955552E+03  0.22998425636E+03  0.47000000000E+01 0.  1.
         11    1    6    6    0    0  0.12844524311E+02  0.18986927092E+02  0.47426362991E+02  0.52675849416E+02  0.00000000000E+00 0. -1.
        -12    1    6    6    0    0  0.90419331846E+02 -0.23170047840E+02  0.53977120699E+02  0.10782409864E+03  0.00000000000E+00 0.  1.
</event>
<event>
12    1  0.8526130E-002  0.2076019E+03  0.7818608E-02  0.1143575E+00
         21   -1    0    0  501  502  0.00000000000E+00  0.00000000000E+00  0.16043840004E+03  0.16043840004E+03  0.00000000000E+00 0.  1.
         21   -1    0    0  502  503 -0.00000000000E+00 -0.00000000000E+00 -0.27103781102E+03  0.27103781102E+03  0.00000000000E+00 0.  1.
         -6    2    1    2    0  503 -0.11434987288E+03  0.16122516189E+02 -0.78014209174E+02  0.22133258332E+03  0.17194786026E+03 0.  0.
        -24    2    3    3    0    0  0.47817950987E+01  0.32332015641E+02 -0.44793772561E+02  0.96509550200E+02  0.78989786807E+02 0.  0.
          6    2    1    2  501    0  0.11434987288E+03 -0.16122516189E+02 -0.32585201804E+02  0.21014362774E+03  0.17251875245E+03 0.  0.
         24    2    5    5    0    0  0.11753023317E+03 -0.34576558855E+02  0.25300089571E+02  0.14912343977E+03  0.81171495154E+02 0.  0.
          5    1    5    5  501    0 -0.31803602913E+01  0.18454042666E+02 -0.57885291375E+02  0.61020187970E+02  0.47000000000E+01 0. -1.
        -11    1    6    6    0    0  0.64485695522E+02  0.13569631885E+01 -0.23434242356E+02  0.68625141099E+02  0.00000000000E+00 0.  1.
         12    1    6    6    0    0  0.53044537649E+02 -0.35933522043E+02  0.48734331927E+02  0.80498298673E+02  0.00000000000E+00 0. -1.
         -5    1    3    3    0  503 -0.11913166798E+03 -0.16209499451E+02 -0.33220436614E+02  0.12482303312E+03  0.47000000000E+01 0.  1.
         11    1    4    4    0    0 -0.29780956668E+02  0.19550386741E+02  0.34617931755E+01  0.35792555285E+02  0.00000000000E+00 0. -1.
        -12    1    4    4    0    0  0.34562751767E+02  0.12781628900E+02 -0.48255565736E+02  0.60716994915E+02  0.00000000000E+00 0.  1.
</event>
<event>
12    1  0.8526130E-002  0.2269465E+03  0.7818608E-02  0.1128895E+00
         21   -1    0    0  503  502  0.00000000000E+00  0.00000000000E+00  0.21253308913E+03  0.21253308913E+03  0.00000000000E+00 0. -1.
         21   -1    0    0  501  503 -0.00000000000E+00 -0.00000000000E+00 -0.66652563827E+03  0.66652563827E+03  0.00000000000E+00 0. -1.
          6    2    1    2  501    0 -0.14872426503E+03 -0.45415742846E+01 -0.57776087133E+03  0.62055667029E+03  0.17071445076E+03 0.  0.
         24    2    3    3    0    0 -0.46334623582E+02 -0.60525933169E+02 -0.29806334699E+03  0.31745490151E+03  0.78266019102E+02 0.  0.
         -6    2    1    2    0  502  0.14872426503E+03  0.45415742846E+01  0.12376832219E+03  0.25850205710E+03  0.17136272361E+03 0.  0.
        -24    2    5    5    0    0  0.12650290663E+03  0.40203603883E+02  0.42902981465E+02  0.16725041353E+03  0.92264401889E+02 0.  0.
          5    1    3    3  501    0 -0.10238964145E+03  0.55984358884E+02 -0.27969752434E+03  0.30310176878E+03  0.47000000000E+01 0. -1.
        -11    1    4    4    0    0 -0.58260951104E+02 -0.22782133261E+02 -0.12325989076E+03  0.13822577433E+03  0.00000000000E+00 0.  1.
         12    1    4    4    0    0  0.11926327521E+02 -0.37743799908E+02 -0.17480345623E+03  0.17922912717E+03  0.00000000000E+00 0. -1.
         -5    1    5    5    0  502  0.22221358402E+02 -0.35662029599E+02  0.80865340724E+02  0.91251643573E+02  0.47000000000E+01 0.  1.
         13    1    6    6    0    0  0.49232934220E+02  0.50335461171E+02  0.53732135639E+02  0.88570214313E+02  0.00000000000E+00 0. -1.
        -14    1    6    6    0    0  0.77269972412E+02 -0.10131857288E+02 -0.10829154173E+02  0.78680199217E+02  0.00000000000E+00 0.  1.
</event>
<event>
12    1  0.8526130E-002  0.1909206E+03  0.7818608E-02  0.1157666E+00
         21   -1    0    0  503  502  0.00000000000E+00  0.00000000000E+00  0.14076819842E+03  0.14076819842E+03  0.00000000000E+00 0. -1.
         21   -1    0    0  501  503 -0.00000000000E+00 -0.00000000000E+00 -0.10241010249E+04  0.10241010249E+04  0.00000000000E+00 0. -1.
          6    2    1    2  501    0  0.71503992308E+02 -0.41936367357E+02 -0.94513369988E+03  0.96419529931E+03  0.17182370251E+03 0.  0.
         24    2    3    3    0    0  0.54592292137E+02 -0.57925870090E+02 -0.92806853181E+03  0.93495526235E+03  0.80587952396E+02 0.  0.
         -6    2    1    2    0  502 -0.71503992308E+02  0.41936367357E+02  0.61800873401E+02  0.20067392400E+03  0.17198603431E+03 0.  0.
        -24    2    5    5    0    0 -0.23441933285E+02  0.60996723287E+02  0.95784039580E+02  0.13862390974E+03  0.75972900604E+02 0.  0.
          5    1    3    3  501    0  0.16911700170E+02  0.15989502732E+02 -0.17065168066E+02  0.29240036959E+02  0.47000000000E+01 0. -1.
        -13    1    4    4    0    0 -0.12249111264E+02 -0.35390374706E+02 -0.19986970410E+03  0.20334802179E+03  0.00000000000E+00 0.  1.
         14    1    4    4    0    0  0.66841403402E+02 -0.22535495383E+02 -0.72819882772E+03  0.73160724057E+03  0.00000000000E+00 0. -1.
         -5    1    5    5    0  502 -0.48062059023E+02 -0.19060355930E+02 -0.33983166178E+02  0.62050014256E+02  0.47000000000E+01 0.  1.
         13    1    6    6    0    0 -0.45690706071E+02  0.27388468062E+02  0.78268964773E+02  0.94677344971E+02  0.00000000000E+00 0. -1.
        -14    1    6    6    0    0  0.22248772786E+02  0.33608255225E+02  0.17515074807E+02  0.43946564772E+02  0.00000000000E+00 0.  1.
</event>
<event>
12    1  0.8526130E-002  0.1764465E+03  0.7818608E-02  0.1171604E+00
         21   -1    0    0  501  502  0.00000000000E+00  0.00000000000E+00  0.54107918145E+03  0.54107918145E+03  0.00000000000E+00 0.  1.
         21   -1    0    0  502  503 -0.00000000000E+00 -0.00000000000E+00 -0.69144149449E+02  0.69144149449E+02  0.00000000000E+00 0.  1.
         -6    2    1    2    0  503 -0.21077943508E+01  0.37177154170E+02  0.36388077138E+03  0.40440398884E+03  0.17247256833E+03 0.  0.
        -24    2    3    3    0    0 -0.16280613603E+01 -0.44318003696E+02  0.23469096140E+03  0.25158452705E+03  0.79045498639E+02 0.  0.
          6    2    1    2  501    0  0.21077943508E+01 -0.37177154170E+02  0.10805426063E+03  0.20581934206E+03  0.17117036758E+03 0.  0.
         24    2    5    5    0    0 -0.11737072871E+02  0.20373032532E+02  0.26245346315E+02  0.10473278114E+03  0.98627166174E+02 0.  0.
          5    1    5    5  501    0  0.13844867222E+02 -0.57550186702E+02  0.81808914311E+02  0.10108656092E+03  0.47000000000E+01 0. -1.
        -11    1    6    6    0    0  0.39806241760E+02 -0.10644932046E+02  0.11907776730E+02  0.42891101734E+02  0.00000000000E+00 0.  1.
         12    1    6    6    0    0 -0.51543314631E+02  0.31017964578E+02  0.14337569586E+02  0.61841679403E+02  0.00000000000E+00 0. -1.
         -5    1    3    3    0  503 -0.47973299045E+00  0.81495157867E+02  0.12918980998E+03  0.15281946179E+03  0.47000000000E+01 0.  1.
         13    1    4    4    0    0 -0.30935246983E+02 -0.11113826845E+02  0.39288154823E+02  0.51225635793E+02  0.00000000000E+00 0. -1.
        -14    1    4    4    0    0  0.29307185622E+02 -0.33204176851E+02  0.19540280657E+03  0.20035889126E+03  0.00000000000E+00 0.  1.
</event>
<event>
12    1  0.8526130E-002  0.1767283E+03  0.7818608E-02  0.1171278E+00
         21   -1    0    0  501  502  0.00000000000E+00  0.00000000000E+00  0.24914312427E+03  0.24914312427E+03  0.00000000000E+00 0. -1.
         21   -1    0    0  502  503 -0.00000000000E+00 -0.00000000000E+00 -0.15171543021E+03  0.15171543021E+03  0.00000000000E+00 0. -1.
         -6    2    1    2    0  503 -0.70739916049E+01  0.40559104022E+02 -0.36156470986E+02  0.17932383025E+03  0.17074736725E+03 0.  0.
        -24    2    3    3    0    0 -0.47363121854E+02 -0.25838173223E+01  0.21444434811E+02  0.96713419117E+02  0.81508773940E+02 0.  0.
          6    2    1    2  501    0  0.70739916049E+01 -0.40559104022E+02  0.13358416504E+03  0.22153472423E+03  0.17186571098E+03 0.  0.
         24    2    5    5    0    0  0.28563138917E+02  0.32099733164E+01  0.51423328897E+01  0.84068692676E+02  0.78834920354E+02 0.  0.
          5    1    5    5  501    0 -0.21489147312E+02 -0.43769077338E+02  0.12844183216E+03  0.13746603155E+03  0.47000000000E+01 0. -1.
        -13    1    6    6    0    0  0.29845915201E+01 -0.18210010771E+02 -0.30247591259E+02  0.35432034316E+02  0.00000000000E+00 0.  1.
         14    1    6    6    0    0  0.25578547397E+02  0.21419984087E+02  0.35389924148E+02  0.48636658360E+02  0.00000000000E+00 0. -1.
         -5    1    3    3    0  503  0.40289130249E+02  0.43142921344E+02 -0.57600905797E+02  0.82610411129E+02  0.47000000000E+01 0.  1.
         11    1    4    4    0    0 -0.29908900837E+02  0.11072578692E+02 -0.28056964016E+02  0.42477494959E+02  0.00000000000E+00 0. -1.
        -12    1    4    4    0    0 -0.17454221017E+02 -0.13656396014E+02  0.49501398827E+02  0.54235924158E+02  0.00000000000E+00 0.  1.
</event>
<event>
12    1  0.8526130E-002  0.2091252E+03  0.7818608E-02  0.1144173E+00
         21   -1    0    0  501  502  0.00000000000E+00  0.00000000000E+00  0.39578935920E+02  0.39578935920E+02  0.00000000000E+00 0.  1.
         21   -1    0    0  502  503 -0.00000000000E+00 -0.00000000000E+00 -0.33866712150E+04  0.33866712150E+04  0.00000000000E+00 0. -1.
         -6    2    1    2    0  503 -0.64925809981E+01 -0.10414687479E+03 -0.30826293900E+04  0.30890944492E+04  0.17032860755E+03 0.  0.
        -24    2    3    3    0    0 -0.14815505368E+02 -0.90289541686E+02 -0.30495253248E+04  0.30519559801E+04  0.80367265338E+02 0.  0.
          6    2    1    2  501    0  0.64925809981E+01  0.10414687479E+03 -0.26446288905E+03  0.33715570174E+03  0.18123085387E+03 0.  0.
         24    2    5    5    0    0 -0.19769258093E+02  0.31346934907E+02 -0.24008313787E+03  0.25587853577E+03  0.80376974867E+02 0.  0.
          5    1    5    5  501    0  0.26261839091E+02  0.72799939884E+02 -0.24379751184E+02  0.81277165965E+02  0.47000000000E+01 0. -1.
        -13    1    6    6    0    0  0.26669818243E+02  0.24845625568E+02 -0.63930620645E+02  0.73591497954E+02  0.00000000000E+00 0.  1.
         14    1    6    6    0    0 -0.46439076336E+02  0.65013093386E+01 -0.17615251722E+03  0.18228703782E+03  0.00000000000E+00 0. -1.
         -5    1    3    3    0  503  0.83229243700E+01 -0.13857333104E+02 -0.33104065219E+02  0.37138469070E+02  0.47000000000E+01 0.  1.
         11    1    4    4    0    0  0.17216689711E+02 -0.68839214977E+02 -0.12461791454E+04  0.12481977866E+04  0.00000000000E+00 0. -1.
        -12    1    4    4    0    0 -0.32032195079E+02 -0.21450326710E+02 -0.18033461794E+04  0.18037581935E+04  0.00000000000E+00 0.  1.
</event>
<event>
12    1  0.8526130E-002  0.1818513E+03  0.7818608E-02  0.1166397E+00
         21   -1    0    0  501  502  0.00000000000E+00  0.00000000000E+00  0.13728176950E+03  0.13728176950E+03  0.00000000000E+00 0. -1.
         21   -1    0    0  502  503 -0.00000000000E+00 -0.00000000000E+00 -0.25611881882E+03  0.25611881882E+03  0.00000000000E+00 0. -1.
         -6    2    1    2    0  503  0.52124700633E+02 -0.15129947129E+02 -0.85499605432E+01  0.18205215950E+03  0.17356263203E+03 0.  0.
        -24    2    3    3    0    0 -0.36021753208E+02 -0.31296273879E+02  0.89665767750E+01  0.90618760100E+02  0.76513637479E+02 0.  0.
          6    2    1    2  501    0 -0.52124700633E+02  0.15129947129E+02 -0.11028708878E+03  0.21134842883E+03  0.17192735879E+03 0.  0.
         24    2    5    5    0    0 -0.89461162166E+02 -0.26369865321E+02 -0.83479404989E+02  0.14924377761E+03  0.81278685789E+02 0.  0.
          5    1    5    5  501    0  0.37336461532E+02  0.41499812450E+02 -0.26807683794E+02  0.62104651223E+02  0.47000000000E+01 0. -1.
        -13    1    6    6    0    0 -0.51809145576E+02  0.16864400278E+02 -0.89508466769E+01  0.55215153883E+02  0.00000000000E+00 0.  1.
         14    1    6    6    0    0 -0.37652016589E+02 -0.43234265599E+02 -0.74528558312E+02  0.94028623723E+02  0.00000000000E+00 0. -1.
         -5    1    3    3    0  503  0.88146453841E+02  0.16166326750E+02 -0.17516537318E+02  0.91433399395E+02  0.47000000000E+01 0.  1.
         13    1    4    4    0    0 -0.51361581118E+02  0.41691524520E+01  0.47706567797E+01  0.51750874517E+02  0.00000000000E+00 0. -1.
        -14    1    4    4    0    0  0.15339827910E+02 -0.35465426331E+02  0.41959199953E+01  0.38867885584E+02  0.00000000000E+00 0.  1.
</event>
<event>
12    1  0.8526130E-002  0.2037129E+03  0.7818608E-02  0.1147151E+00
         21   -1    0    0  503  502  0.00000000000E+00  0.00000000000E+00  0.84217538905E+03  0.84217538905E+03  0.00000000000E+00 0. -1.
         21   -1    0    0  501  503 -0.00000000000E+00 -0.00000000000E+00 -0.62460428255E+02  0.62460428255E+02  0.00000000000E+00 0. -1.
          6    2    1    2  501    0  0.74849311298E+02 -0.73641659998E+02  0.17928538875E+03  0.27137094697E+03  0.17456639640E+03 0.  0.
         24    2    3    3    0    0  0.19081869752E+02 -0.27581521239E+01  0.15644399609E+03  0.17821356163E+03  0.83148207916E+02 0.  0.
         -6    2    1    2    0  502 -0.74849311298E+02  0.73641659998E+02  0.60042957205E+03  0.63326487033E+03  0.17170676026E+03 0.  0.
        -24    2    5    5    0    0  0.16806504578E+02  0.57907499057E+02  0.21750704049E+03  0.23918352393E+03  0.79143593650E+02 0.  0.
          5    1    3    3  501    0  0.55767441546E+02 -0.70883507874E+02  0.22841392654E+02  0.93157385341E+02  0.47000000000E+01 0. -1.
        -13    1    4    4    0    0 -0.26216171162E+02 -0.48441676979E+01  0.17090091210E+02  0.31667409250E+02  0.00000000000E+00 0.  1.
         14    1    4    4    0    0  0.45298040914E+02  0.20860155741E+01  0.13935390488E+03  0.14654615238E+03  0.00000000000E+00 0. -1.
         -5    1    5    5    0  502 -0.91655815875E+02  0.15734160941E+02  0.38292253156E+03  0.39408134640E+03  0.47000000000E+01 0.  1.
         13    1    6    6    0    0 -0.29250046756E+02  0.12057495991E+02  0.46483611537E+02  0.56228770094E+02  0.00000000000E+00 0. -1.
        -14    1    6    6    0    0  0.46056551334E+02  0.45850003067E+02  0.17102342895E+03  0.18295475384E+03  0.00000000000E+00 0.  1.
</event>
<event>
12    1  0.8526130E-002  0.2149452E+03  0.7818608E-02  0.1137732E+00
         21   -1    0    0  503  502  0.00000000000E+00  0.00000000000E+00  0.20471804828E+03  0.20471804828E+03  0.00000000000E+00 0.  1.
         21   -1    0    0  501  503 -0.00000000000E+00 -0.00000000000E+00 -0.28274112805E+03  0.28274112805E+03  0.00000000000E+00 0. -1.
          6    2    1    2  501    0 -0.10309821414E+03 -0.80154428847E+02 -0.14861493465E+03  0.26121891965E+03  0.17057242144E+03 0.  0.
         24    2    3    3    0    0 -0.62743095527E+02 -0.45049844467E+01 -0.16509448794E+02  0.10365838071E+03  0.80718690963E+02 0.  0.
         -6    2    1    2    0  502  0.10309821414E+03  0.80154428847E+02  0.70591854881E+02  0.22624025668E+03  0.17072630010E+03 0.  0.
        -24    2    5    5    0    0 -0.10780798411E+01 -0.14381898810E+02  0.33120293673E+02  0.80583037929E+02  0.72032429360E+02 0.  0.
          5    1    3    3  501    0 -0.40355118616E+02 -0.75649444400E+02 -0.13210548586E+03  0.15756053894E+03  0.47000000000E+01 0. -1.
        -11    1    4    4    0    0 -0.78842578708E+02 -0.16892159578E+02 -0.19931344186E+02  0.83058748808E+02  0.00000000000E+00 0.  1.
         12    1    4    4    0    0  0.16099483180E+02  0.12387175132E+02  0.34218953924E+01  0.20599631902E+02  0.00000000000E+00 0. -1.
         -5    1    5    5    0  502  0.10417629398E+03  0.94536327657E+02  0.37471561208E+02  0.14565721875E+03  0.47000000000E+01 0.  1.
         11    1    6    6    0    0  0.17205924768E+02 -0.22113782833E+02 -0.12612996160E+02  0.30727038752E+02  0.00000000000E+00 0. -1.
        -12    1    6    6    0    0 -0.18284004609E+02  0.77318840238E+01  0.45733289833E+02  0.49855999178E+02  0.00000000000E+00 0.  1.
</event>
<event>
12    1  0.8526130E-002  0.3661314E+03  0.7818608E-02  0.1056216E+00
         21   -1    0    0  503  502  0.00000000000E+00  0.00000000000E+00  0.36416994676E+03  0.36416994676E+03  0.00000000000E+00 0.  1.
         21   -1    0    0  501  503 -0.00000000000E+00 -0.00000000000E+00 -0.43034540792E+03  0.43034540792E+03  0.00000000000E+00 0.  1.
          6    2    1    2  501    0 -0.24020416565E+03  0.21568032798E+03 -0.18458013928E+03  0.40971431464E+03  0.17198821684E+03 0.  0.
         24    2    3    3    0    0 -0.16580113197E+03  0.19536485881E+03 -0.81092106146E+02  0.28056171997E+03  0.80507798468E+02 0.  0.
         -6    2    1    2    0  502  0.24020416565E+03 -0.21568032798E+03  0.11840467811E+03  0.38480104005E+03  0.17273137396E+03 0.  0.
        -24    2    5    5    0    0  0.17037800413E+03 -0.21687304308E+03  0.12887183091E+03  0.31402839922E+03  0.77092837616E+02 0.  0.
          5    1    3    3  501    0 -0.74403033680E+02  0.20315469174E+02 -0.10348803313E+03  0.12915259467E+03  0.47000000000E+01 0. -1.
        -13    1    4    4    0    0 -0.11193003307E+03  0.78851925795E+02 -0.63755265384E+02  0.15103209053E+03  0.00000000000E+00 0.  1.
         14    1    4    4    0    0 -0.53871098894E+02  0.11651293301E+03 -0.17336840762E+02  0.12952962944E+03  0.00000000000E+00 0. -1.
         -5    1    5    5    0  502  0.69826161518E+02  0.11927150951E+01 -0.10467152799E+02  0.70772640825E+02  0.47000000000E+01 0.  1.
         11    1    6    6    0    0  0.62707998484E+02 -0.49455890595E+02  0.59571925735E+01  0.80085369024E+02  0.00000000000E+00 0. -1.
        -12    1    6    6    0    0  0.10767000565E+03 -0.16741715248E+03  0.12291463834E+03  0.23394303020E+03  0.00000000000E+00 0.  1.
</event>
<event>
12    1  0.8526130E-002  0.1849361E+03  0.7818608E-02  0.1163236E+00
         21   -1    0    0  501  502  0.00000000000E+00  0.00000000000E+00  0.74626498005E+02  0.74626498005E+02  0.00000000000E+00 0. -1.
         21   -1    0    0  502  503 -0.00000000000E+00 -0.00000000000E+00 -0.48870184403E+03  0.48870184403E+03  0.00000000000E+00 0. -1.
         -6    2    1    2    0  503 -0.66390458181E+02 -0.10028686321E+02 -0.27853161595E+03  0.33403926399E+03  0.17173846778E+03 0.  0.
        -24    2    3    3    0    0 -0.10697689366E+03 -0.13443004121E+02 -0.16039980526E+03  0.20899474788E+03  0.79535759116E+02 0.  0.
          6    2    1    2  501    0  0.66390458181E+02  0.10028686321E+02 -0.13554373007E+03  0.22928907804E+03  0.17231689140E+03 0.  0.
         24    2    5    5    0    0 -0.12833244999E+02  0.33774576235E+02 -0.19099647756E+02  0.86384995737E+02  0.76106220291E+02 0.  0.
          5    1    5    5  501    0  0.79223703181E+02 -0.23745889913E+02 -0.11644408232E+03  0.14290408231E+03  0.47000000000E+01 0. -1.
        -13    1    6    6    0    0 -0.14141793402E+02  0.94549840176E+01  0.28343001209E+02  0.33056206088E+02  0.00000000000E+00 0.  1.
         14    1    6    6    0    0  0.13085484033E+01  0.24319592217E+02 -0.47442648965E+02  0.53328789648E+02  0.00000000000E+00 0. -1.
         -5    1    3    3    0  503  0.40586435479E+02  0.34143177994E+01 -0.11813181069E+03  0.12504451611E+03  0.47000000000E+01 0.  1.
         11    1    4    4    0    0 -0.69146325025E+02  0.13443921716E+02 -0.42452652447E+02  0.82244641134E+02  0.00000000000E+00 0. -1.
        -12    1    4    4    0    0 -0.37830568636E+02 -0.26886925837E+02 -0.11794715281E+03  0.12675010675E+03  0.00000000000E+00 0.  1.
</event>
<event>
12    1  0.8526130E-002  0.1736322E+03  0.7818608E-02  0.1175034E+00
         21   -1    0    0  503  502  0.00000000000E+00  0.00000000000E+00  0.28175528636E+03  0.28175528636E+03  0.00000000000E+00 0. -1.
         21   -1    0    0  501  503 -0.00000000000E+00 -0.00000000000E+00 -0.23720005111E+03  0.23720005111E+03  0.00000000000E+00 0. -1.
          6    2    1    2  501    0  0.63401875066E+01 -0.18912470132E+02 -0.17147518742E+03  0.24403255520E+03  0.17248266171E+03 0.  0.
         24    2    3    3    0    0 -0.72647423229E+01 -0.35723148077E+02 -0.54560518493E+02  0.12504170337E+03  0.10644086440E+03 0.  0.
         -6    2    1    2    0  502 -0.63401875066E+01  0.18912470132E+02  0.21603042267E+03  0.27492278228E+03  0.16886537002E+03 0.  0.
        -24    2    5    5    0    0  0.24209301169E+02  0.33627400159E+02  0.22210550377E+03  0.24015502373E+03  0.81404473534E+02 0.  0.
          5    1    3    3  501    0  0.13604929830E+02  0.16810677945E+02 -0.11691466893E+03  0.11899085183E+03  0.47000000000E+01 0. -1.
        -11    1    4    4    0    0  0.33026862622E+02  0.19712531644E+02 -0.38980829072E+02  0.54761871713E+02  0.00000000000E+00 0.  1.
         12    1    4    4    0    0 -0.40291604945E+02 -0.55435679721E+02 -0.15579689421E+02  0.70279831656E+02  0.00000000000E+00 0. -1.
         -5    1    5    5    0  502 -0.30549488676E+02 -0.14714930027E+02 -0.60750811050E+01  0.34767758548E+02  0.47000000000E+01 0.  1.
         11    1    6    6    0    0  0.64050729557E+01  0.45568485136E+02  0.55139404092E+02  0.71818282358E+02  0.00000000000E+00 0. -1.
        -12    1    6    6    0    0  0.17804228213E+02 -0.11941084977E+02  0.16696609968E+03  0.16833674137E+03  0.00000000000E+00 0.  1.
</event>
<event>
12    1  0.8526130E-002  0.2246665E+03  0.7818608E-02  0.1130883E+00
         21   -1    0    0  501  502  0.00000000000E+00  0.00000000000E+00  0.23524115308E+03  0.23524115308E+03  0.00000000000E+00 0.  1.
         21   -1    0    0  502  503 -0.00000000000E+00 -0.00000000000E+00 -0.23133863962E+03  0.23133863962E+03  0.00000000000E+00 0. -1.
         -6    2    1    2    0  503 -0.73460915841E+02 -0.12360714419E+03 -0.64943534180E+02  0.23386471727E+03  0.17262621788E+03 0.  0.
        -24    2    3    3    0    0 -0.77013678049E+02 -0.15604613602E+03 -0.53830470476E+02  0.19907246964E+03  0.80315785773E+02 0.  0.
          6    2    1    2  501    0  0.73460915841E+02  0.12360714419E+03  0.68846047640E+02  0.23271507544E+03  0.16953258038E+03 0.  0.
         24    2    5    5    0    0  0.54052818462E+02  0.15676081007E+03  0.54702778345E+02  0.19150874254E+03  0.78660954430E+02 0.  0.
          5    1    5    5  501    0  0.19408097378E+02 -0.33153665879E+02  0.14143269294E+02  0.41206332904E+02  0.47000000000E+01 0. -1.
        -11    1    6    6    0    0  0.17087017050E+02  0.13520182298E+02  0.36432753663E+02  0.42451231084E+02  0.00000000000E+00 0.  1.
         12    1    6    6    0    0  0.36965801413E+02  0.14324062777E+03  0.18270024682E+02  0.14905751145E+03  0.00000000000E+00 0. -1.
         -5    1    3    3    0  503  0.35527622080E+01  0.32438991826E+02 -0.11113063703E+02  0.34792247626E+02  0.47000000000E+01 0.  1.
         11    1    4    4    0    0 -0.86177424353E+02 -0.88762208616E+02 -0.32888292478E+02  0.12801139765E+03  0.00000000000E+00 0. -1.
        -12    1    4    4    0    0  0.91637463039E+01 -0.67283927402E+02 -0.20942177999E+02  0.71061071989E+02  0.00000000000E+00 0.  1.
</event>
<event>
12    1  0.8526130E-002  0.1918816E+03  0.7818608E-02  0.1157669E+00
         21   -1    0    0  501  502  0.00000000000E+00  0.00000000000E+00  0.74999840625E+02  0.74999840625E+02  0.00000000000E+00 0.  1.
         21   -1    0    0  502  503 -0.00000000000E+00 -0.00000000000E+00 -0.70036560257E+03  0.70036560257E+03  0.00000000000E+00 0.  1.
         -6    2    1    2    0  503 -0.60082336958E+02 -0.42022706381E+02 -0.53198227439E+03  0.56552958092E+03  0.17732109732E+03 0.  0.
        -24    2    3    3    0    0 -0.45963056468E+02 -0.14247412542E+02 -0.52465842574E+03  0.53317915915E+03  0.81841069937E+02 0.  0.
          6    2    1    2  501    0  0.60082336958E+02  0.42022706381E+02 -0.93383487554E+02  0.20983586228E+03  0.17301681504E+03 0.  0.
         24    2    5    5    0    0  0.74560407498E+02 -0.16272141683E+02 -0.98350413320E+02  0.14938204364E+03  0.82572115144E+02 0.  0.
          5    1    5    5  501    0 -0.14478070541E+02  0.58294848064E+02  0.49669257658E+01  0.60453818646E+02  0.47000000000E+01 0. -1.
        -11    1    6    6    0    0  0.74330036534E+02  0.76495420877E+01 -0.36691774107E+02  0.83245156690E+02  0.00000000000E+00 0.  1.
         12    1    6    6    0    0  0.23037096427E+00 -0.23921683771E+02 -0.61658639213E+02  0.66136886945E+02  0.00000000000E+00 0. -1.
         -5    1    3    3    0  503 -0.14119280490E+02 -0.27775293839E+02 -0.73238486551E+01  0.32350421767E+02  0.47000000000E+01 0.  1.
         13    1    4    4    0    0 -0.14595226991E+02 -0.31288777921E+01 -0.11245697209E+02  0.18688933433E+02  0.00000000000E+00 0. -1.
        -14    1    4    4    0    0 -0.31367829477E+02 -0.11118534750E+02 -0.51341272853E+03  0.51449022572E+03  0.00000000000E+00 0.  1.
</event>
<event>
12    1  0.8526130E-002  0.2098642E+03  0.7818608E-02  0.1142483E+00
         21   -1    0    0  501  502  0.00000000000E+00  0.00000000000E+00  0.70561506626E+03  0.70561506626E+03  0.00000000000E+00 0.  1.
         21   -1    0    0  502  503 -0.00000000000E+00 -0.00000000000E+00 -0.62683083417E+02  0.62683083417E+02  0.00000000000E+00 0.  1.
         -6    2    1    2    0  503 -0.11091606012E+03  0.25829560808E+02  0.38318915394E+03  0.43689462877E+03  0.17627663017E+03 0.  0.
        -24    2    3    3    0    0 -0.53081608050E+02 -0.42197124417E+02  0.28886866640E+03  0.30692964072E+03  0.78501232482E+02 0.  0.
          6    2    1    2  501    0  0.11091606012E+03 -0.25829560808E+02  0.25974282891E+03  0.33140352091E+03  0.17144217072E+03 0.  0.
         24    2    5    5    0    0  0.48231352654E+02  0.33302325400E+01  0.42062602234E+02  0.10296001108E+03  0.80586273943E+02 0.  0.
          5    1    5    5  501    0  0.62684707468E+02 -0.29159793348E+02  0.21768022667E+03  0.22844350983E+03  0.47000000000E+01 0. -1.
        -13    1    6    6    0    0  0.55152418782E+02 -0.25015729442E+02  0.13331759520E+02  0.62010578363E+02  0.00000000000E+00 0.  1.
         14    1    6    6    0    0 -0.69210661286E+01  0.28345961982E+02  0.28730842714E+02  0.40949432720E+02  0.00000000000E+00 0. -1.
         -5    1    3    3    0  503 -0.57834452072E+02  0.68026685225E+02  0.94320487538E+02  0.12996498805E+03  0.47000000000E+01 0.  1.
         11    1    4    4    0    0 -0.17253876923E+02  0.20109818819E+02  0.12832075880E+03  0.13102792916E+03  0.00000000000E+00 0. -1.
        -12    1    4    4    0    0 -0.35827731126E+02 -0.62306943236E+02  0.16054790760E+03  0.17590171156E+03  0.00000000000E+00 0.  1.
</event>
<event>
12    1  0.8526130E-002  0.2039905E+03  0.7818608E-02  0.1146510E+00
         21   -1    0    0  501  502  0.00000000000E+00  0.00000000000E+00  0.28780863648E+02  0.28780863648E+02  0.00000000000E+00 0.  1.
         21   -1    0    0  502  503 -0.00000000000E+00 -0.00000000000E+00 -0.17272612103E+04  0.17272612103E+04  0.00000000000E+00 0.  1.
         -6    2    1    2    0  503 -0.34568823008E+02 -0.10318566408E+03 -0.49197865936E+03  0.53241694295E+03  0.17199568331E+03 0.  0.
        -24    2    3    3    0    0  0.66034865337E+01  0.15776607008E+02 -0.20020664684E+03  0.21461169078E+03  0.75385469543E+02 0.  0.
          6    2    1    2  501    0  0.34568823008E+02  0.10318566408E+03 -0.12065016873E+04  0.12236251310E+04  0.17253943021E+03 0.  0.
         24    2    5    5    0    0 -0.31815485759E+02  0.17379348806E+02 -0.36654934001E+03  0.37668260881E+03  0.78848603142E+02 0.  0.
          5    1    5    5  501    0  0.66384308767E+02  0.85806315270E+02 -0.83995234726E+03  0.84694252217E+03  0.47000000000E+01 0. -1.
        -13    1    6    6    0    0  0.17672668939E+01  0.39573294812E+02 -0.25570944927E+03  0.25875952415E+03  0.00000000000E+00 0.  1.
         14    1    6    6    0    0 -0.33582752653E+02 -0.22193946005E+02 -0.11083989074E+03  0.11792308466E+03  0.00000000000E+00 0. -1.
         -5    1    3    3    0  503 -0.41172309542E+02 -0.11896227108E+03 -0.29177201253E+03  0.31780525217E+03  0.47000000000E+01 0.  1.
         11    1    4    4    0    0  0.25328135890E+02  0.12813672226E+02 -0.19177381383E+03  0.19386309688E+03  0.00000000000E+00 0. -1.
        -12    1    4    4    0    0 -0.18724649357E+02  0.29629347822E+01 -0.84328330095E+01  0.20748593895E+02  0.00000000000E+00 0.  1.
</event>
<event>
12    1  0.8526130E-002  0.1981846E+03  0.7818608E-02  0.1151574E+00
         21   -1    0    0  503  502  0.00000000000E+00  0.00000000000E+00  0.35002925782E+03  0.35002925782E+03  0.00000000000E+00 0. -1.
         21   -1    0    0  501  503 -0.00000000000E+00 -0.00000000000E+00 -0.34449378262E+03  0.34449378262E+03  0.00000000000E+00 0. -1.
          6    2    1    2  501    0  0.71284810126E+02  0.64554802166E+02 -0.28286240556E+03  0.34459379603E+03  0.17171166864E+03 0.  0.
         24    2    3    3    0    0  0.14307047613E+02 -0.15985245792E+02 -0.63697544016E+02  0.10420142660E+03  0.79626255075E+02 0.  0.
         -6    2    1    2    0  502 -0.71284810126E+02 -0.64554802166E+02  0.28839788075E+03  0.34992924441E+03  0.17328673299E+03 0.  0.
        -24    2    5    5    0    0  0.20935741997E+02 -0.62465333274E+02  0.18021938211E+03  0.20768412610E+03  0.79457204779E+02 0.  0.
          5    1    3    3  501    0  0.56977762513E+02  0.80540047958E+02 -0.21916486154E+03  0.24039236943E+03  0.47000000000E+01 0. -1.
        -11    1    4    4    0    0 -0.24656196801E+02  0.15758290765E+02 -0.10682074419E+02  0.31150577562E+02  0.00000000000E+00 0.  1.
         12    1    4    4    0    0  0.38963244415E+02 -0.31743536557E+02 -0.53015469596E+02  0.73050849037E+02  0.00000000000E+00 0. -1.
         -5    1    5    5    0  502 -0.92220552123E+02 -0.20894688919E+01  0.10817849864E+03  0.14224511830E+03  0.47000000000E+01 0.  1.
         11    1    6    6    0    0  0.14585786548E+02  0.15128028562E+02  0.67477187680E+02  0.70673709926E+02  0.00000000000E+00 0. -1.
        -12    1    6    6    0    0  0.63499554488E+01 -0.77593361836E+02  0.11274219443E+03  0.13701041618E+03  0.00000000000E+00 0.  1.
</event>
<event>
12    1  0.8526130E-002  0.2558002E+03  0.7818608E-02  0.1109858E+00
         21   -1    0    0  501  502  0.00000000000E+00  0.00000000000E+00  0.44745162040E+03  0.44745162040E+03  0.00000000000E+00 0. -1.
         21   -1    0    0  502  503 -0.00000000000E+00 -0.00000000000E+00 -0.16042710449E+03  0.16042710449E+03  0.00000000000E+00 0. -1.
         -6    2    1    2    0  503 -0.14909269998E+03  0.11508782947E+03  0.50907766448E+02  0.25976256551E+03  0.17149678737E+03 0.  0.
        -24    2    3    3    0    0 -0.15429587674E+01  0.82931655465E+02  0.50437530003E+01  0.10186847636E+03  0.58921191710E+02 0.  0.
          6    2    1    2  501    0  0.14909269998E+03 -0.11508782947E+03  0.23611674947E+03  0.34811615938E+03  0.17308928147E+03 0.  0.
         24    2    5    5    0    0  0.17674169559E+03 -0.82174877437E+02  0.21286966085E+03  0.29902189802E+03  0.78168187523E+02 0.  0.
          5    1    5    5  501    0 -0.27648995606E+02 -0.32912952033E+02  0.23247088617E+02  0.49094261362E+02  0.47000000000E+01 0. -1.
        -13    1    6    6    0    0  0.14454511407E+03 -0.96875731602E+02  0.16799439953E+03  0.24186838497E+03  0.00000000000E+00 0.  1.
         14    1    6    6    0    0  0.32196581517E+02  0.14700854165E+02  0.44875261323E+02  0.57153513046E+02  0.00000000000E+00 0. -1.
         -5    1    3    3    0  503 -0.14754974121E+03  0.32156174005E+02  0.45864013448E+02  0.15789408915E+03  0.47000000000E+01 0.  1.
         13    1    4    4    0    0 -0.24368354418E+02  0.51534961111E+02  0.19792431515E+02  0.60344090506E+02  0.00000000000E+00 0. -1.
        -14    1    4    4    0    0  0.22825395650E+02  0.31396694354E+02 -0.14748678514E+02  0.41524385858E+02  0.00000000000E+00 0.  1.
</event>
<event>
12    1  0.8526130E-002  0.2042000E+03  0.7818608E-02  0.1146626E+00
         21   -1    0    0  501  502  0.00000000000E+00  0.00000000000E+00  0.99600655236E+02  0.99600655236E+02  0.00000000000E+00 0. -1.
         21   -1    0    0  502  503 -0.00000000000E+00 -0.00000000000E+00 -0.41485962271E+03  0.41485962271E+03  0.00000000000E+00 0. -1.
         -6    2    1    2    0  503  0.50775642762E+02  0.94286454498E+02 -0.15945518234E+03  0.25908220563E+03  0.17386642200E+03 0.  0.
        -24    2    3    3    0    0  0.21461468769E+02  0.88533188989E+02 -0.18408445256E+03  0.22008077216E+03  0.79055299673E+02 0.  0.
          6    2    1    2  501    0 -0.50775642762E+02 -0.94286454498E+02 -0.15580378513E+03  0.25537807232E+03  0.17168296060E+03 0.  0.
         24    2    5    5    0    0 -0.45225632986E+02 -0.15240834748E+02 -0.14949842459E+03  0.17574855404E+03  0.79121010924E+02 0.  0.
          5    1    5    5  501    0 -0.55500097755E+01 -0.79045619750E+02 -0.63053605466E+01  0.79629518281E+02  0.47000000000E+01 0. -1.
        -13    1    6    6    0    0 -0.13317927017E+02  0.23885515650E+02 -0.13133763756E+02  0.30337778236E+02  0.00000000000E+00 0.  1.
         14    1    6    6    0    0 -0.31907705969E+02 -0.39126350398E+02 -0.13636466083E+03  0.14541077580E+03  0.00000000000E+00 0. -1.
         -5    1    3    3    0  503  0.29314173992E+02  0.57532655088E+01  0.24629270219E+02  0.39001433466E+02  0.47000000000E+01 0.  1.
         11    1    4    4    0    0  0.49250556774E+02  0.50088032041E+02 -0.13271413975E+03  0.15015815391E+03  0.00000000000E+00 0. -1.
        -12    1    4    4    0    0 -0.27789088004E+02  0.38445156948E+02 -0.51370312813E+02  0.69922618253E+02  0.00000000000E+00 0.  1.
</event>
<event>
12    1  0.8526130E-002  0.1986092E+03  0.7818608E-02  0.1151103E+00
         21   -1    0    0  501  502  0.00000000000E+00  0.00000000000E+00  0.33146102847E+03  0.33146102847E+03  0.00000000000E+00 0. -1.
         21   -1    0    0  502  503 -0.00000000000E+00 -0.00000000000E+00 -0.28804472129E+03  0.28804472129E+03  0.00000000000E+00 0.  1.
         -6    2    1    2    0  503 -0.72942446957E+02 -0.66675458661E+02 -0.21596554730E+03  0.29281847966E+03  0.17127558803E+03 0.  0.
        -24    2    3    3    0    0 -0.54241916336E+02  0.29201256685E+02 -0.11859265605E+03  0.15481259449E+03  0.78152558911E+02 0.  0.
          6    2    1    2  501    0  0.72942446957E+02  0.66675458661E+02  0.25938185448E+03  0.32668727010E+03  0.17227712749E+03 0.  0.
         24    2    5    5    0    0  0.28154706937E+02  0.73461442856E+02  0.70222809481E+02  0.13212307621E+03  0.79598952174E+02 0.  0.
          5    1    5    5  501    0  0.44787740019E+02 -0.67859841945E+01  0.18915904500E+03  0.19456419388E+03  0.47000000000E+01 0. -1.
        -13    1    6    6    0    0  0.40522490378E+02  0.27918126519E+02  0.21038769172E+01  0.49253632484E+02  0.00000000000E+00 0.  1.
         14    1    6    6    0    0 -0.12367783441E+02  0.45543316336E+02  0.68118932564E+02  0.82869443728E+02  0.00000000000E+00 0. -1.
         -5    1    3    3    0  503 -0.18700530621E+02 -0.95876715346E+02 -0.97372891248E+02  0.13800588517E+03  0.47000000000E+01 0.  1.
         13    1    4    4    0    0  0.10862948311E+01 -0.36916220198E+01  0.10161335415E+02  0.10865580841E+02  0.00000000000E+00 0. -1.
        -14    1    4    4    0    0 -0.55328211167E+02  0.32892878705E+02 -0.12875399147E+03  0.14394701365E+03  0.00000000000E+00 0.  1.
</event>
<event>
12    1  0.8526130E-002  0.2112192E+03  0.7818608E-02  0.1140663E+00
         21   -1    0    0  503  502  0.00000000000E+00  0.00000000000E+00  0.44219619666E+03  0.44219619666E+03  0.00000000000E+00 0.  1.
         21   -1    0    0  501  503 -0.00000000000E+00 -0.00000000000E+00 -0.10804674793E+03  0.10804674793E+03  0.00000000000E+00 0. -1.
          6    2    1    2  501    0  0.91033056215E+02 -0.83537732341E+02  0.95454810444E+02  0.23151314989E+03  0.17094194245E+03 0.  0.
         24    2    3    3    0    0  0.10691211221E+03 -0.85464614715E+02  0.26688347195E+02  0.16075459025E+03  0.79971059169E+02 0.  0.
         -6    2    1    2    0  502 -0.91033056215E+02  0.83537732341E+02  0.23869463828E+03  0.31872979470E+03  0.17131252621E+03 0.  0.
        -24    2    5    5    0    0 -0.13022039656E+03  0.80028353778E+02  0.19084787724E+03  0.25660599955E+03  0.77857804165E+02 0.  0.
          5    1    3    3  501    0 -0.15879055995E+02  0.19268823745E+01  0.68766463250E+02  0.70758559644E+02  0.47000000000E+01 0. -1.
        -11    1    4    4    0    0  0.27736420250E+02 -0.59661590287E+02 -0.15217655192E+02  0.67530670020E+02  0.00000000000E+00 0.  1.
         12    1    4    4    0    0  0.79175691959E+02 -0.25803024429E+02  0.41906002386E+02  0.93223920229E+02  0.00000000000E+00 0. -1.
         -5    1    5    5    0  502  0.39187340346E+02  0.35093785630E+01  0.47846761038E+02  0.62123795145E+02  0.47000000000E+01 0.  1.
         11    1    6    6    0    0 -0.48242391688E+01  0.38358942352E+02  0.33703630646E+02  0.51289535586E+02  0.00000000000E+00 0. -1.
        -12    1    6    6    0    0 -0.12539615739E+03  0.41669411426E+02  0.15714424660E+03  0.20531646397E+03  0.00000000000E+00 0.  1.
</event>
<event>
12    1  0.8526130E-002  0.2743430E+03  0.7818608E-02  0.1099494E+00
         21   -1    0    0  503  502  0.00000000000E+00  0.00000000000E+00  0.53376586299E+02  0.53376586299E+02  0.00000000000E+00 0. -1.
         21   -1    0    0  501  503 -0.00000000000E+00 -0.00000000000E+00 -0.20835717814E+04  0.20835717814E+04  0.00000000000E+00 0.  1.
          6    2    1    2  501    0 -0.20694316450E+03  0.37132876793E+01 -0.16393766131E+04  0.16621731967E+04  0.18006886055E+03 0.  0.
         24    2    3    3    0    0 -0.19996204837E+03 -0.28328449251E+02 -0.15745307909E+04  0.15893550702E+04  0.78198504003E+02 0.  0.
         -6    2    1    2    0  502  0.20694316450E+03 -0.37132876793E+01 -0.39081858201E+03  0.47477517097E+03  0.17272242786E+03 0.  0.
        -24    2    5    5    0    0  0.65209524085E+02 -0.45397010955E+02 -0.98070362602E+02  0.14682766362E+03  0.75015972616E+02 0.  0.
          5    1    3    3  501    0 -0.69811161295E+01  0.32041736931E+02 -0.64845822201E+02  0.72818126486E+02  0.47000000000E+01 0. -1.
        -13    1    4    4    0    0 -0.79516278507E+02 -0.64647748703E+01 -0.92170876887E+03  0.92515495268E+03  0.00000000000E+00 0.  1.
         14    1    4    4    0    0 -0.12044576986E+03 -0.21863674381E+02 -0.65282202198E+03  0.66420011752E+03  0.00000000000E+00 0. -1.
         -5    1    5    5    0  502  0.14173364041E+03  0.41683723275E+02 -0.29274821940E+03  0.32794750735E+03  0.47000000000E+01 0.  1.
         13    1    6    6    0    0  0.67456837563E+02 -0.28833064267E+02 -0.34447680001E+02  0.81045747492E+02  0.00000000000E+00 0. -1.
        -14    1    6    6    0    0 -0.22473134789E+01 -0.16563946687E+02 -0.63622682601E+02  0.65781916125E+02  0.00000000000E+00 0.  1.
</event>
<event>
12    1  0.8526130E-002  0.1727288E+03  0.7818608E-02  0.1175222E+00
         21   -1    0    0  503  502  0.00000000000E+00  0.00000000000E+00  0.22416991043E+03  0.22416991043E+03  0.00000000000E+00 0.  1.
         21   -1    0    0  501  503 -0.00000000000E+00 -0.00000000000E+00 -0.79020271127E+03  0.79020271127E+03  0.00000000000E+00 0.  1.
          6    2    1    2  501    0  0.29809186443E+01  0.95365932559E+01 -0.74562133480E+03  0.76519940315E+03  0.17169484320E+03 0.  0.
         24    2    3    3    0    0  0.17508441280E+02 -0.19265014304E+02 -0.71553361206E+03  0.72083790439E+03  0.83314153258E+02 0.  0.
         -6    2    1    2    0  502 -0.29809186443E+01 -0.95365932559E+01  0.17958853397E+03  0.24917321855E+03  0.17243960921E+03 0.  0.
        -24    2    5    5    0    0  0.58728422259E+02  0.94083907744E+01  0.14197296018E+03  0.17431350599E+03  0.81800559581E+02 0.  0.
          5    1    3    3  501    0 -0.14527522635E+02  0.28801607560E+02 -0.30087722744E+02  0.44361498756E+02  0.47000000000E+01 0. -1.
        -11    1    4    4    0    0  0.51178249515E+02 -0.13862493669E+02 -0.45670723169E+03  0.45977481165E+03  0.00000000000E+00 0.  1.
         12    1    4    4    0    0 -0.33669808236E+02 -0.54025206345E+01 -0.25882638037E+03  0.26106309274E+03  0.00000000000E+00 0. -1.
         -5    1    5    5    0  502 -0.61709340903E+02 -0.18944984030E+02  0.37615573784E+02  0.74859712568E+02  0.47000000000E+01 0.  1.
         13    1    6    6    0    0  0.76869385341E+01 -0.31053076827E+02  0.71615904089E+02  0.78436090691E+02  0.00000000000E+00 0. -1.
        -14    1    6    6    0    0  0.51041483725E+02  0.40461467601E+02  0.70357056094E+02  0.95877415294E+02  0.00000000000E+00 0.  1.
</event>
<event>
12    1  0.8526130E-002  0.1767539E+03  0.7818608E-02  0.1171491E+00
         21   -1    0    0  503  502  0.00000000000E+00  0.00000000000E+00  0.20262153762E+03  0.20262153762E+03  0.00000000000E+00 0. -1.
         21   -1    0    0  501  503 -0.00000000000E+00 -0.00000000000E+00 -0.15293687567E+03  0.15293687567E+03  0.00000000000E+00 0. -1.
          6    2    1    2  501    0 -0.38450551213E+01  0.37251408158E+02  0.14299447026E+02  0.17529732168E+03  0.17065235113E+03 0.  0.
         24    2    3    3    0    0 -0.52828638385E+02 -0.41214403914E+01 -0.25680114434E+02  0.99590258862E+02  0.80317495469E+02 0.  0.
         -6    2    1    2    0  502  0.38450551213E+01 -0.37251408158E+02  0.35385214925E+02  0.18026109160E+03  0.17274112380E+03 0.  0.
        -24    2    5    5    0    0 -0.14232917589E+02 -0.69442095225E+02 -0.25275822205E+02  0.10909294665E+03  0.78978625511E+02 0.  0.
          5    1    3    3  501    0  0.48983583264E+02  0.41372848550E+02  0.39979561460E+02  0.75707062821E+02  0.47000000000E+01 0. -1.
        -11    1    4    4    0    0 -0.37122846021E+02 -0.22815514093E+02  0.19884503900E+02  0.47896209405E+02  0.00000000000E+00 0.  1.
         12    1    4    4    0    0 -0.15705792364E+02  0.18694073701E+02 -0.45564618334E+02  0.51694049457E+02  0.00000000000E+00 0. -1.
         -5    1    5    5    0  502  0.18077972710E+02  0.32190687067E+02  0.60661037130E+02  0.71168144958E+02  0.47000000000E+01 0.  1.
         13    1    6    6    0    0 -0.24894376254E+02 -0.27323436753E+02  0.23477775160E+02  0.43789337647E+02  0.00000000000E+00 0. -1.
        -14    1    6    6    0    0  0.10661458665E+02 -0.42118658472E+02 -0.48753597365E+02  0.65303609000E+02  0.00000000000E+00 0.  1.
</event>
<event>
12    1  0.8526130E-002  0.1783641E+03  0.7818608E-02  0.1169428E+00
         21   -1    0    0  503  502  0.00000000000E+00  0.00000000000E+00  0.15990190115E+03  0.15990190115E+03  0.00000000000E+00 0. -1.
         21   -1    0    0  501  503 -0.00000000000E+00 -0.00000000000E+00 -0.30683799063E+03  0.30683799063E+03  0.00000000000E+00 0.  1.
          6    2    1    2  501    0  0.11164286392E+02  0.45195521666E+02 -0.21192066815E+03  0.27690642502E+03  0.17204511663E+03 0.  0.
         24    2    3    3    0    0  0.32682519538E+02  0.70581251976E+02 -0.21577112170E+03  0.24307765540E+03  0.80496642052E+02 0.  0.
         -6    2    1    2    0  502 -0.11164286392E+02 -0.45195521666E+02  0.64984578679E+02  0.18983346676E+03  0.17218151226E+03 0.  0.
        -24    2    5    5    0    0 -0.37817123872E+02  0.31765309082E+02  0.12461169860E+02  0.92806966825E+02  0.77580168974E+02 0.  0.
          5    1    3    3  501    0 -0.21518233146E+02 -0.25385730310E+02  0.38504535510E+01  0.33828769615E+02  0.47000000000E+01 0. -1.
        -13    1    4    4    0    0  0.47159910809E+02  0.16706300038E+02 -0.63064538621E+02  0.80500271304E+02  0.00000000000E+00 0.  1.
         14    1    4    4    0    0 -0.14477391270E+02  0.53874951938E+02 -0.15270658308E+03  0.16257738410E+03  0.00000000000E+00 0. -1.
         -5    1    5    5    0  502  0.26652837480E+02 -0.76960830748E+02  0.52523408819E+02  0.97026499932E+02  0.47000000000E+01 0.  1.
         11    1    6    6    0    0 -0.58565111289E+02  0.88173272505E+01 -0.59446866068E+00  0.59228126030E+02  0.00000000000E+00 0. -1.
        -12    1    6    6    0    0  0.20747987416E+02  0.22947981831E+02  0.13055638521E+02  0.33578840795E+02  0.00000000000E+00 0.  1.
</event>
<event>
12    1  0.8526130E-002  0.1745277E+03  0.7818608E-02  0.1173392E+00
         21   -1    0    0  501  502  0.00000000000E+00  0.00000000000E+00  0.21685430935E+04  0.21685430935E+04  0.00000000000E+00 0.  1.
         21   -1    0    0  502  503 -0.00000000000E+00 -0.00000000000E+00 -0.16135968128E+03  0.16135968128E+03  0.00000000000E+00 0.  1.
         -6    2    1    2    0  503  0.18611563882E+02  0.19747939023E+02 -0.10954071053E+03  0.20605604634E+03  0.17240520748E+03 0.  0.
        -24    2    3    3    0    0  0.19917322065E+02  0.55679936459E+02 -0.13039946122E+03  0.16422315349E+03  0.80425553222E+02 0.  0.
          6    2    1    2  501    0 -0.18611563882E+02 -0.19747939023E+02  0.21167241228E+04  0.21238467285E+04  0.17166112743E+03 0.  0.
         24    2    5    5    0    0 -0.37999561602E+02  0.49297022870E+02  0.11927248665E+04  0.11970566677E+04  0.80485372997E+02 0.  0.
          5    1    5    5  501    0  0.19387997720E+02 -0.69044961893E+02  0.92399925626E+03  0.92679006080E+03  0.47000000000E+01 0. -1.
        -13    1    6    6    0    0 -0.76477579916E+01  0.29098157277E+02  0.10238104893E+04  0.10242524635E+04  0.00000000000E+00 0.  1.
         14    1    6    6    0    0 -0.30351803610E+02  0.20198865593E+02  0.16891437722E+03  0.17280420419E+03  0.00000000000E+00 0. -1.
         -5    1    3    3    0  503 -0.13057581836E+01 -0.35931997436E+02  0.20858750696E+02  0.41832892857E+02  0.47000000000E+01 0.  1.
         11    1    4    4    0    0 -0.19147788402E+02  0.37092075790E+02 -0.21308081866E+02  0.46866771171E+02  0.00000000000E+00 0. -1.
        -12    1    4    4    0    0  0.39065110468E+02  0.18587860669E+02 -0.10909137936E+03  0.11735638232E+03  0.00000000000E+00 0.  1.
</event>
<event>
12    1  0.8526130E-002  0.2089697E+03  0.7818608E-02  0.1142432E+00
         21   -1    0    0  503  502  0.00000000000E+00  0.00000000000E+00  0.67693291632E+03  0.67693291632E+03  0.00000000000E+00 0. -1.
         21   -1    0    0  501  503 -0.00000000000E+00 -0.00000000000E+00 -0.78836179778E+02  0.78836179778E+02  0.00000000000E+00 0. -1.
          6    2    1    2  501    0 -0.67811107590E+02 -0.97424867116E+02  0.46069622236E+03  0.50587484015E+03  0.17198370143E+03 0.  0.
         24    2    3    3    0    0 -0.10536440090E+03 -0.34301495292E+02  0.30403734483E+03  0.33278843451E+03  0.77660707792E+02 0.  0.
         -6    2    1    2    0  502  0.67811107590E+02  0.97424867116E+02  0.13740051418E+03  0.24989425594E+03  0.17169241920E+03 0.  0.
        -24    2    5    5    0    0  0.97169504650E+02  0.11610118556E+03  0.95992674603E+02  0.19560411387E+03  0.78262237780E+02 0.  0.
          5    1    3    3  501    0  0.37553293314E+02 -0.63123371824E+02  0.15665887754E+03  0.17308640565E+03  0.47000000000E+01 0. -1.
        -11    1    4    4    0    0 -0.69215514081E+02 -0.26108406077E+02  0.94566889293E+02  0.12006386970E+03  0.00000000000E+00 0.  1.
         12    1    4    4    0    0 -0.36148886822E+02 -0.81930892154E+01  0.20947045553E+03  0.21272456480E+03  0.00000000000E+00 0. -1.
         -5    1    5    5    0  502 -0.29358397059E+02 -0.18676318440E+02  0.41407839573E+02  0.54290142075E+02  0.47000000000E+01 0.  1.
         11    1    6    6    0    0 -0.40070467415E+01  0.33404191035E+02  0.30967241909E+00  0.33645093243E+02  0.00000000000E+00 0. -1.
        -12    1    6    6    0    0  0.10117655139E+03  0.82696994521E+02  0.95683002184E+02  0.16195902062E+03  0.00000000000E+00 0.  1.
</event>
<event>
12    1  0.8526130E-002  0.1754214E+03  0.7818608E-02  0.1172528E+00
         21   -1    0    0  503  502  0.00000000000E+00  0.00000000000E+00  0.29900663001E+02  0.29900663001E+02  0.00000000000E+00 0.  1.
         21   -1    0    0  501  503 -0.00000000000E+00 -0.00000000000E+00 -0.11794567080E+04  0.11794567080E+04  0.00000000000E+00 0.  1.
          6    2    1    2  501    0  0.13857204351E+02  0.27889208438E+02 -0.79551509942E+03  0.81462687549E+03  0.17263499878E+03 0.  0.
         24    2    3    3    0    0  0.10174699546E+02  0.82501850497E+02 -0.61953403126E+03  0.63026980926E+03  0.80669304823E+02 0.  0.
         -6    2    1    2    0  502 -0.13857204351E+02 -0.27889208438E+02 -0.35404094559E+03  0.39473049553E+03  0.17174790503E+03 0.  0.
        -24    2    5    5    0    0  0.58291326561E+02 -0.10975684039E+02 -0.17264870790E+03  0.19872867994E+03  0.78531315386E+02 0.  0.
          5    1    3    3  501    0  0.36825048054E+01 -0.54612642059E+02 -0.17598106816E+03  0.18435706622E+03  0.47000000000E+01 0. -1.
        -13    1    4    4    0    0 -0.49620469802E+01  0.36574274235E+02 -0.74972572556E+02  0.83565459861E+02  0.00000000000E+00 0.  1.
         14    1    4    4    0    0  0.15136746526E+02  0.45927576262E+02 -0.54456145870E+03  0.54670434940E+03  0.00000000000E+00 0. -1.
         -5    1    5    5    0  502 -0.72148530913E+02 -0.16913524399E+02 -0.18139223769E+03  0.19600181559E+03  0.47000000000E+01 0.  1.
         11    1    6    6    0    0  0.63903382249E+02 -0.35187676002E+02 -0.13789043324E+03  0.15599867430E+03  0.00000000000E+00 0. -1.
        -12    1    6    6    0    0 -0.56120556877E+01  0.24211991963E+02 -0.34758274662E+02  0.42730005632E+02  0.00000000000E+00 0.  1.
</event>
<event>
12    1  0.8526130E-002  0.1903802E+03  0.7818608E-02  0.1158802E+00
         21   -1    0    0  503  502  0.00000000000E+00  0.00000000000E+00  0.14945084519E+03  0.14945084519E+03  0.00000000000E+00 0. -1.
         21   -1    0    0  501  503 -0.00000000000E+00 -0.00000000000E+00 -0.53053773038E+03  0.53053773038E+03  0.00000000000E+00 0.  1.
          6    2    1    2  501    0  0.55507813905E+02  0.46653508208E+02 -0.44202259725E+03  0.48009413257E+03  0.17276785701E+03 0.  0.
         24    2    3    3    0    0  0.97798506606E+02  0.86980247643E+01 -0.29766982910E+03  0.32488803383E+03  0.85467560180E+02 0.  0.
         -6    2    1    2    0  502 -0.55507813905E+02 -0.46653508208E+02  0.60935712056E+02  0.19989444299E+03  0.17603113390E+03 0.  0.
        -24    2    5    5    0    0 -0.82125743337E+01 -0.98973148977E+01  0.99620209456E+02  0.12843509950E+03  0.80037400215E+02 0.  0.
          5    1    3    3  501    0 -0.42290692700E+02  0.37955483444E+02 -0.14435276816E+03  0.15520609874E+03  0.47000000000E+01 0. -1.
        -11    1    4    4    0    0  0.26696026055E+01 -0.23983065375E+02 -0.10274449806E+03  0.10554025812E+03  0.00000000000E+00 0.  1.
         12    1    4    4    0    0  0.95128904000E+02  0.32681090139E+02 -0.19492533104E+03  0.21934777571E+03  0.00000000000E+00 0. -1.
         -5    1    5    5    0  502 -0.47295239572E+02 -0.36756193311E+02 -0.38684497401E+02  0.71459343490E+02  0.47000000000E+01 0.  1.
         13    1    6    6    0    0  0.12325333822E+02 -0.18235342597E+02  0.10360215879E+03  0.10591434690E+03  0.00000000000E+00 0. -1.
        -14    1    6    6    0    0 -0.20537908156E+02  0.83380276994E+01 -0.39819493336E+01  0.22520752603E+02  0.00000000000E+00 0.  1.
</event>
<event>
12    1  0.8526130E-002  0.1936028E+03  0.7818608E-02  0.1155424E+00
         21   -1    0    0  501  502  0.00000000000E+00  0.00000000000E+00  0.23807737101E+03  0.23807737101E+03  0.00000000000E+00 0.  1.
         21   -1    0    0  502  503 -0.00000000000E+00 -0.00000000000E+00 -0.15698789701E+03  0.15698789701E+03  0.00000000000E+00 0.  1.
         -6    2    1    2    0  503 -0.80084219940E+02 -0.37725270969E+02  0.33626842211E+02  0.19572948523E+03  0.17129678490E+03 0.  0.
        -24    2    3    3    0    0 -0.13319956239E+02  0.36566389982E+02 -0.35292842382E+01  0.89055282505E+02  0.80024155006E+02 0.  0.
          6    2    1    2  501    0  0.80084219940E+02  0.37725270969E+02  0.47462631794E+02  0.19933578279E+03  0.17217832189E+03 0.  0.
         24    2    5    5    0    0  0.40674354531E+02  0.85129191051E+02  0.10401816873E+01  0.12202211644E+03  0.77375271478E+02 0.  0.
          5    1    5    5  501    0  0.39409865409E+02 -0.47403920082E+02  0.46422450106E+02  0.77313666351E+02  0.47000000000E+01 0. -1.
        -11    1    6    6    0    0  0.63673796949E+02  0.64221218972E+02  0.55880108213E+01  0.90608737156E+02  0.00000000000E+00 0.  1.
         12    1    6    6    0    0 -0.22999442418E+02  0.20907972079E+02 -0.45478291341E+01  0.31413379281E+02  0.00000000000E+00 0. -1.
         -5    1    3    3    0  503 -0.66764263702E+02 -0.74291660951E+02  0.37156126450E+02  0.10667420273E+03  0.47000000000E+01 0.  1.
         13    1    4    4    0    0 -0.60159634257E+01  0.40052381821E+02  0.32624230157E+02  0.52006975482E+02  0.00000000000E+00 0. -1.
        -14    1    4    4    0    0 -0.73039928129E+01 -0.34859918392E+01 -0.36153514395E+02  0.37048307023E+02  0.00000000000E+00 0.  1.
</event>
<event>
12    1  0.8526130E-002  0.1834035E+03  0.7818608E-02  0.1164844E+00
         21   -1    0    0  503  502  0.00000000000E+00  0.00000000000E+00  0.16126755651E+04  0.16126755651E+04  0.00000000000E+00 0. -1.
         21   -1    0    0  501  503 -0.00000000000E+00 -0.00000000000E+00 -0.32792683476E+02  0.32792683476E+02  0.00000000000E+00 0. -1.
          6    2    1    2  501    0 -0.56504319783E+02 -0.20215093495E+02  0.28898010526E+03  0.34160214937E+03  0.17199168311E+03 0.  0.
         24    2    3    3    0    0 -0.55199800505E+02 -0.65643768438E+02  0.12381409955E+03  0.17023305729E+03  0.79329945396E+02 0.  0.
         -6    2    1    2    0  502  0.56504319783E+02  0.20215093495E+02  0.12909027764E+04  0.13038660992E+04  0.17330735263E+03 0.  0.
        -24    2    5    5    0    0 -0.20083770484E+02  0.54932427124E+02  0.71224317697E+03  0.71910969625E+03  0.80046753317E+02 0.  0.
          5    1    3    3  501    0 -0.13045192787E+01  0.45428674943E+02  0.16516600571E+03  0.17136909208E+03  0.47000000000E+01 0. -1.
        -13    1    4    4    0    0 -0.33538768411E+02 -0.30396911123E+02  0.12051032883E+03  0.12873057347E+03  0.00000000000E+00 0.  1.
         14    1    4    4    0    0 -0.21661032093E+02 -0.35246857314E+02  0.33037707189E+01  0.41502483816E+02  0.00000000000E+00 0. -1.
         -5    1    5    5    0  502  0.76588090267E+02 -0.34717333629E+02  0.57865959942E+03  0.58475640298E+03  0.47000000000E+01 0.  1.
         13    1    6    6    0    0  0.38843777287E+00  0.28475730913E+02  0.62537239267E+03  0.62602048500E+03  0.00000000000E+00 0. -1.
        -14    1    6    6    0    0 -0.20472208257E+02  0.26456696211E+02  0.86870784306E+02  0.93089211250E+02  0.00000000000E+00 0.  1.
</event>
<event>
12    1  0.8526130E-002  0.2132693E+03  0.7818608E-02  0.1139161E+00
         21   -1    0    0  503  502  0.00000000000E+00  0.00000000000E+00  0.36150385044E+03  0.36150385044E+03  0.00000000000E+00 0. -1.
         21   -1    0    0  501  503 -0.00000000000E+00 -0.00000000000E+00 -0.26833803840E+03  0.26833803840E+03  0.00000000000E+00 0. -1.
          6    2    1    2  501    0  0.11600037587E+03 -0.41945465478E+02 -0.18335171440E+03  0.28063461525E+03  0.17298100134E+03 0.  0.
         24    2    3    3    0    0  0.76765657138E+02 -0.36897006285E+02 -0.20443187808E+03  0.23556452101E+03  0.80273878663E+02 0.  0.
         -6    2    1    2    0  502 -0.11600037587E+03  0.41945465478E+02  0.27651752644E+03  0.34920727359E+03  0.17397778083E+03 0.  0.
        -24    2    5    5    0    0 -0.11015422807E+03 -0.35059888498E+02  0.18950926325E+03  0.23277476160E+03  0.70051260061E+02 0.  0.
          5    1    3    3  501    0  0.39234718728E+02 -0.50484591927E+01  0.21080163676E+02  0.45070094236E+02  0.47000000000E+01 0. -1.
        -13    1    4    4    0    0  0.28941818614E+02  0.13949571706E+02 -0.12836132289E+03  0.13232100600E+03  0.00000000000E+00 0.  1.
         14    1    4    4    0    0  0.47823838524E+02 -0.50846577992E+02 -0.76070555192E+02  0.10324351501E+03  0.00000000000E+00 0. -1.
         -5    1    5    5    0  502 -0.58461477951E+01  0.77005353976E+02  0.87008263184E+02  0.11643251199E+03  0.47000000000E+01 0.  1.
         11    1    6    6    0    0 -0.53732444372E+02  0.16158774296E+02  0.57432235012E+02  0.80291613407E+02  0.00000000000E+00 0. -1.
        -12    1    6    6    0    0 -0.56421783698E+02 -0.51218662795E+02  0.13207702824E+03  0.15248314820E+03  0.00000000000E+00 0.  1.
</event>
<event>
12    1  0.8526130E-002  0.2690650E+03  0.7818608E-02  0.1101821E+00
         21   -1    0    0  503  502  0.00000000000E+00  0.00000000000E+00  0.11209279814E+03  0.11209279814E+03  0.00000000000E+00 0. -1.
         21   -1    0    0  501  503 -0.00000000000E+00 -0.00000000000E+00 -0.65693523251E+03  0.65693523251E+03  0.00000000000E+00 0. -1.
          6    2    1    2  501    0 -0.16505706954E+03 -0.12497309872E+03 -0.32252942389E+03  0.42000218996E+03  0.17179784251E+03 0.  0.
         24    2    3    3    0    0 -0.11349811190E+03 -0.91712767860E+02 -0.11278000151E+03  0.20141242371E+03  0.80960376059E+02 0.  0.
         -6    2    1    2    0  502  0.16505706954E+03  0.12497309872E+03 -0.22231301048E+03  0.34902584068E+03  0.17185415685E+03 0.  0.
        -24    2    5    5    0    0  0.18594311977E+03  0.12422571897E+03 -0.22533582782E+03  0.32739223037E+03  0.80016024433E+02 0.  0.
          5    1    3    3  501    0 -0.51558957641E+02 -0.33260330863E+02 -0.20974942237E+03  0.21858976625E+03  0.47000000000E+01 0. -1.
        -13    1    4    4    0    0 -0.10140928497E+02 -0.53272708826E+02 -0.21781605496E+02  0.58440211108E+02  0.00000000000E+00 0.  1.
         14    1    4    4    0    0 -0.10335718341E+03 -0.38440059035E+02 -0.90998396016E+02  0.14297221261E+03  0.00000000000E+00 0. -1.
         -5    1    5    5    0  502 -0.20886050226E+02  0.74737975462E+00  0.30228173421E+01  0.21633610314E+02  0.47000000000E+01 0.  1.
         11    1    6    6    0    0  0.12854395696E+03  0.56447233431E+02 -0.94412175273E+02  0.16918480391E+03  0.00000000000E+00 0. -1.
        -12    1    6    6    0    0  0.57399162810E+02  0.67778485538E+02 -0.13092365254E+03  0.15820742647E+03  0.00000000000E+00 0.  1.
</event>
<event>
12    1  0.8526130E-002  0.2021424E+03  0.7818608E-02  0.1148025E+00
         21   -1    0    0  503  502  0.00000000000E+00  0.00000000000E+00  0.24574834946E+03  0.24574834946E+03  0.00000000000E+00 0. -1.
         21   -1    0    0  501  503 -0.00000000000E+00 -0.00000000000E+00 -0.16705531243E+03  0.16705531243E+03  0.00000000000E+00 0. -1.
          6    2    1    2  501    0  0.62783396227E+02 -0.85607391482E+02  0.22634395223E+02  0.20340563964E+03  0.17202080710E+03 0.  0.
         24    2    3    3    0    0 -0.34019475667E+02 -0.33427847274E+02  0.13357395377E+02  0.92944544381E+02  0.78648093562E+02 0.  0.
         -6    2    1    2    0  502 -0.62783396227E+02  0.85607391482E+02  0.56058641809E+02  0.20939802224E+03  0.17156508992E+03 0.  0.
        -24    2    5    5    0    0 -0.43306560666E+02  0.10098081374E+03 -0.14550492727E+02  0.13440849554E+03  0.76035149066E+02 0.  0.
          5    1    3    3  501    0  0.96802871894E+02 -0.52179544208E+02  0.92769998457E+01  0.11046109526E+03  0.47000000000E+01 0. -1.
        -13    1    4    4    0    0 -0.42714791132E+02 -0.14137061684E+01  0.33351266175E+02  0.54211243318E+02  0.00000000000E+00 0.  1.
         14    1    4    4    0    0  0.86953154648E+01 -0.32014141105E+02 -0.19993870798E+02  0.38733301063E+02  0.00000000000E+00 0. -1.
         -5    1    5    5    0  502 -0.19476835561E+02 -0.15373422259E+02  0.70609134536E+02  0.74989526705E+02  0.47000000000E+01 0.  1.
         11    1    6    6    0    0 -0.32504321890E+02  0.11230668345E+03 -0.72560546498E+01  0.11714082302E+03  0.00000000000E+00 0. -1.
        -12    1    6    6    0    0 -0.10802238775E+02 -0.11325869709E+02 -0.72944380774E+01  0.17267672515E+02  0.00000000000E+00 0.  1.
</event>
<event>
12    1  0.8526130E-002  0.1962627E+03  0.7818608E-02  0.1158169E+00
         21   -1    0    0  503  502  0.00000000000E+00  0.00000000000E+00  0.13467041017E+03  0.13467041017E+03  0.00000000000E+00 0.  1.
         21   -1    0    0  501  503 -0.00000000000E+00 -0.00000000000E+00 -0.26531182856E+03  0.26531182856E+03  0.00000000000E+00 0.  1.
          6    2    1    2  501    0  0.10614864498E+00 -0.32276439427E+02 -0.10288045467E+03  0.20176588449E+03  0.17053827835E+03 0.  0.
         24    2    3    3    0    0 -0.58266737702E+02 -0.38677673879E+02 -0.91601151807E+02  0.14178520147E+03  0.82591144589E+02 0.  0.
         -6    2    1    2    0  502 -0.10614864498E+00  0.32276439427E+02 -0.27760963722E+02  0.19821635423E+03  0.19359047541E+03 0.  0.
        -24    2    5    5    0    0  0.39747392361E+02  0.28110540787E+02 -0.86096324842E+02  0.12728847679E+03  0.80123164368E+02 0.  0.
          5    1    3    3  501    0  0.58372886347E+02  0.64012344521E+01 -0.11279302864E+02  0.59980683024E+02  0.47000000000E+01 0. -1.
        -11    1    4    4    0    0 -0.84374792024E+01  0.13250680929E+02  0.89902013766E+01  0.18099594503E+02  0.00000000000E+00 0.  1.
         12    1    4    4    0    0 -0.49829258499E+02 -0.51928354808E+02 -0.10059135318E+03  0.12368560697E+03  0.00000000000E+00 0. -1.
         -5    1    5    5    0  502 -0.39853541006E+02  0.41658986397E+01  0.58335361120E+02  0.70927877447E+02  0.47000000000E+01 0.  1.
         13    1    6    6    0    0  0.36624266230E+02  0.55198241030E+02 -0.65065621024E+02  0.92853205270E+02  0.00000000000E+00 0. -1.
        -14    1    6    6    0    0  0.31231261309E+01 -0.27087700243E+02 -0.21030703818E+02  0.34435271516E+02  0.00000000000E+00 0.  1.
</event>
<event>
12    1  0.8526130E-002  0.1727447E+03  0.7818608E-02  0.1175084E+00
         21   -1    0    0  501  502  0.00000000000E+00  0.00000000000E+00  0.15507639621E+04  0.15507639621E+04  0.00000000000E+00 0.  1.
         21   -1    0    0  502  503 -0.00000000000E+00 -0.00000000000E+00 -0.24324557335E+02  0.24324557335E+02  0.00000000000E+00 0.  1.
         -6    2    1    2    0  503  0.13680128352E+02 -0.50970913136E+00  0.40171819339E+03  0.43717880526E+03  0.17193136756E+03 0.  0.
        -24    2    3    3    0    0  0.26763880880E+02 -0.16497221907E+02  0.40685012195E+03  0.41537945124E+03  0.77618316978E+02 0.  0.
          6    2    1    2  501    0 -0.13680128352E+02  0.50970913136E+00  0.11247212114E+04  0.11379097142E+04  0.17220136059E+03 0.  0.
         24    2    5    5    0    0 -0.19502390342E+02  0.60060538262E+02  0.49972286899E+03  0.51003614572E+03  0.80164285459E+02 0.  0.
          5    1    5    5  501    0  0.58222619894E+01 -0.59550829130E+02  0.62499834243E+03  0.62787356850E+03  0.47000000000E+01 0. -1.
        -11    1    6    6    0    0 -0.72518109045E+01 -0.16071470469E+02  0.19164790564E+03  0.19245726971E+03  0.00000000000E+00 0.  1.
         12    1    6    6    0    0 -0.12250579437E+02  0.76132008731E+02  0.30807496334E+03  0.31757887601E+03  0.00000000000E+00 0. -1.
         -5    1    3    3    0  503 -0.13083752528E+02  0.15987512776E+02 -0.51319285578E+01  0.21799354020E+02  0.47000000000E+01 0.  1.
         13    1    4    4    0    0 -0.31061310171E+01  0.14669725092E+02  0.29660175858E+03  0.29698055842E+03  0.00000000000E+00 0. -1.
        -14    1    4    4    0    0  0.29870011897E+02 -0.31166946999E+02  0.11024836337E+03  0.11839889282E+03  0.00000000000E+00 0.  1.
</event>
<event>
12    1  0.8526130E-002  0.2191754E+03  0.7818608E-02  0.1134516E+00
         21   -1    0    0  501  502  0.00000000000E+00  0.00000000000E+00  0.21937754499E+03  0.21937754499E+03  0.00000000000E+00 0.  1.
         21   -1    0    0  502  503 -0.00000000000E+00 -0.00000000000E+00 -0.41801055916E+03  0.41801055916E+03  0.00000000000E+00 0.  1.
         -6    2    1    2    0  503 -0.59121944568E+02 -0.12133919874E+03 -0.31926613819E+03  0.38720778267E+03  0.17256996984E+03 0.  0.
        -24    2    3    3    0    0  0.33113189681E+02 -0.76110286562E+02 -0.18558894333E+03  0.21855234425E+03  0.80203567482E+02 0.  0.
          6    2    1    2  501    0  0.59121944568E+02  0.12133919874E+03  0.12063312402E+03  0.25018032148E+03  0.17268247497E+03 0.  0.
         24    2    5    5    0    0  0.93206006659E+02  0.12775691361E+03  0.12339925203E+03  0.21507117998E+03  0.77582526397E+02 0.  0.
          5    1    5    5  501    0 -0.34084062091E+02 -0.64177148705E+01 -0.27661280035E+01  0.35109141501E+02  0.47000000000E+01 0. -1.
        -11    1    6    6    0    0  0.89435767530E+02  0.73388259990E+02  0.56405738666E+02  0.12870975321E+03  0.00000000000E+00 0.  1.
         12    1    6    6    0    0  0.37702391294E+01  0.54368653622E+02  0.66993513361E+02  0.86361426761E+02  0.00000000000E+00 0. -1.
         -5    1    3    3    0  503 -0.92235134249E+02 -0.45228912180E+02 -0.13367719485E+03  0.16865543843E+03  0.47000000000E+01 0.  1.
         11    1    4    4    0    0  0.49456603110E+01 -0.22245323554E+02  0.49320119324E+00  0.22793797914E+02  0.00000000000E+00 0. -1.
        -12    1    4    4    0    0  0.28167529370E+02 -0.53864963008E+02 -0.18608214453E+03  0.19575854633E+03  0.00000000000E+00 0.  1.
</event>
<event>
12    1  0.8526130E-002  0.1799218E+03  0.7818608E-02  0.1168118E+00
         21   -1    0    0  501  502  0.00000000000E+00  0.00000000000E+00  0.24251131690E+02  0.24251131690E+02  0.00000000000E+00 0.  1.
         21   -1    0    0  502  503 -0.00000000000E+00 -0.00000000000E+00 -0.14471485313E+04  0.14471485313E+04  0.00000000000E+00 0. -1.
         -6    2    1    2    0  503 -0.38691952490E+01 -0.59108791143E+02 -0.92115389527E+03  0.93837209693E+03  0.16884570962E+03 0.  0.
        -24    2    3    3    0    0 -0.35345895713E+02 -0.78574711205E+02 -0.44088830485E+03  0.45665970134E+03  0.82050398500E+02 0.  0.
          6    2    1    2  501    0  0.38691952490E+01  0.59108791143E+02 -0.50174350431E+03  0.53302756603E+03  0.16989120687E+03 0.  0.
         24    2    5    5    0    0  0.20578019609E+02  0.11565227207E+02 -0.10523663516E+03  0.13330345797E+03  0.78344451978E+02 0.  0.
          5    1    5    5  501    0 -0.16708824360E+02  0.47543563935E+02 -0.39650686915E+03  0.39972410806E+03  0.47000000000E+01 0. -1.
        -13    1    6    6    0    0 -0.18175450298E+02  0.30350561262E+02 -0.29001615761E+02  0.45744915337E+02  0.00000000000E+00 0.  1.
         14    1    6    6    0    0  0.38753469907E+02 -0.18785334055E+02 -0.76235019398E+02  0.87558542633E+02  0.00000000000E+00 0. -1.
         -5    1    3    3    0  503  0.31476700464E+02  0.19465920062E+02 -0.48026559042E+03  0.48171239559E+03  0.47000000000E+01 0.  1.
         13    1    4    4    0    0 -0.12865833857E+02  0.16536478098E+02 -0.90780561297E+02  0.93167027956E+02  0.00000000000E+00 0. -1.
        -14    1    4    4    0    0 -0.22480061856E+02 -0.95111189302E+02 -0.35010774355E+03  0.36349267339E+03  0.00000000000E+00 0.  1.
</event>
<event>
12    1  0.8526130E-002  0.1878169E+03  0.7818608E-02  0.1160782E+00
         21   -1    0    0  503  502  0.00000000000E+00  0.00000000000E+00  0.59510611895E+03  0.59510611895E+03  0.00000000000E+00 0. -1.
         21   -1    0    0  501  503 -0.00000000000E+00 -0.00000000000E+00 -0.18146392817E+03  0.18146392817E+03  0.00000000000E+00 0. -1.
          6    2    1    2  501    0 -0.74811740147E+02 -0.27429326510E+01 -0.11213489483E+03  0.21874513249E+03  0.17225236778E+03 0.  0.
         24    2    3    3    0    0 -0.63559778590E+02 -0.59195467534E+02 -0.36808696136E+02  0.12382610624E+03  0.80212690052E+02 0.  0.
         -6    2    1    2    0  502  0.74811740147E+02  0.27429326510E+01  0.52577708561E+03  0.55782491463E+03  0.17065395245E+03 0.  0.
        -24    2    5    5    0    0  0.42361841299E+02 -0.48723970313E+02  0.18613112848E+03  0.21274042609E+03  0.80281635650E+02 0.  0.
          5    1    3    3  501    0 -0.11251961556E+02  0.56452534883E+02 -0.75326198692E+02  0.94919026244E+02  0.47000000000E+01 0. -1.
        -13    1    4    4    0    0 -0.75983725683E+02 -0.39961428965E+02 -0.68571744077E+01  0.86124695729E+02  0.00000000000E+00 0.  1.
         14    1    4    4    0    0  0.12423947092E+02 -0.19234038569E+02 -0.29951521728E+02  0.37701410516E+02  0.00000000000E+00 0. -1.
         -5    1    5    5    0  502  0.32449898848E+02  0.51466902964E+02  0.33964595713E+03  0.34508448854E+03  0.47000000000E+01 0.  1.
         11    1    6    6    0    0  0.28763411372E+02 -0.11408953947E+02  0.16475881287E+03  0.16763938821E+03  0.00000000000E+00 0. -1.
        -12    1    6    6    0    0  0.13598429926E+02 -0.37315016366E+02  0.21372315615E+02  0.45101037877E+02  0.00000000000E+00 0.  1.
</event>
<event>
12    1  0.8526130E-002  0.2449351E+03  0.7818608E-02  0.1116782E+00
         21   -1    0    0  503  502  0.00000000000E+00  0.00000000000E+00  0.59878571052E+02  0.59878571052E+02  0.00000000000E+00 0. -1.
         21   -1    0    0  501  503 -0.00000000000E+00 -0.00000000000E+00 -0.16821186306E+04  0.16821186306E+04  0.00000000000E+00 0. -1.
          6    2    1    2  501    0 -0.17233559059E+03  0.16134495762E+02 -0.13687848934E+04  0.13905269790E+04  0.17330123264E+03 0.  0.
         24    2    3    3    0    0 -0.17741668788E+03  0.33605716268E+02 -0.91218094871E+03  0.93353648305E+03  0.82524279422E+02 0.  0.
         -6    2    1    2    0  502  0.17233559059E+03 -0.16134495762E+02 -0.25345516612E+03  0.35147022261E+03  0.17126563697E+03 0.  0.
        -24    2    5    5    0    0  0.10769072013E+03 -0.48079540798E+02 -0.80963216911E+02  0.16445415987E+03  0.81124563240E+02 0.  0.
          5    1    3    3  501    0  0.50810972905E+01 -0.17471220506E+02 -0.45660394470E+03  0.45699049597E+03  0.47000000000E+01 0. -1.
        -11    1    4    4    0    0 -0.33133232558E+02  0.41506056876E+02 -0.20712956911E+03  0.21382989094E+03  0.00000000000E+00 0.  1.
         12    1    4    4    0    0 -0.14428345533E+03 -0.79003406077E+01 -0.70505137960E+03  0.71970659211E+03  0.00000000000E+00 0. -1.
         -5    1    5    5    0  502  0.64644870467E+02  0.31945045036E+02 -0.17249194921E+03  0.18701606274E+03  0.47000000000E+01 0.  1.
         11    1    6    6    0    0  0.10622938230E+03 -0.27650153286E+02 -0.90115047866E+02  0.14202089457E+03  0.00000000000E+00 0. -1.
        -12    1    6    6    0    0  0.14613378228E+01 -0.20429387512E+02  0.91518309549E+01  0.22433265303E+02  0.00000000000E+00 0.  1.
</event>
<event>
12    1  0.8526130E-002  0.2996732E+03  0.7818608E-02  0.1085625E+00
         21   -1    0    0  503  502  0.00000000000E+00  0.00000000000E+00  0.75352100939E+03  0.75352100939E+03  0.00000000000E+00 0. -1.
         21   -1    0    0  501  503 -0.00000000000E+00 -0.00000000000E+00 -0.14606905682E+03  0.14606905682E+03  0.00000000000E+00 0. -1.
          6    2    1    2  501    0 -0.68846480651E+02 -0.23260312762E+03  0.10897477686E+03  0.31887232299E+03  0.17595454954E+03 0.  0.
         24    2    3    3    0    0 -0.87706999890E+02 -0.23169334059E+03  0.12906514451E+03  0.29090341577E+03  0.81195220786E+02 0.  0.
         -6    2    1    2    0  502  0.68846480651E+02  0.23260312762E+03  0.49847717570E+03  0.58071774322E+03  0.17294377617E+03 0.  0.
        -24    2    5    5    0    0  0.94010020613E+02  0.10311888276E+03  0.22719876848E+03  0.27903340880E+03  0.82273779958E+02 0.  0.
          5    1    3    3  501    0  0.18860519239E+02 -0.90978702867E+00 -0.20090367654E+02  0.27968907217E+02  0.47000000000E+01 0. -1.
        -13    1    4    4    0    0 -0.67988246367E+02 -0.11300541743E+03  0.10412307724E+03  0.16803047707E+03  0.00000000000E+00 0.  1.
         14    1    4    4    0    0 -0.19718753523E+02 -0.11868792316E+03  0.24942067271E+02  0.12287293870E+03  0.00000000000E+00 0. -1.
         -5    1    5    5    0  502 -0.25163539963E+02  0.12948424485E+03  0.27127840722E+03  0.30168433442E+03  0.47000000000E+01 0.  1.
         13    1    6    6    0    0  0.77406917133E+02  0.68788690995E+02  0.21559048793E+03  0.23917143081E+03  0.00000000000E+00 0. -1.
        -14    1    6    6    0    0  0.16603103480E+02  0.34330191770E+02  0.11608280553E+02  0.39861977993E+02  0.00000000000E+00 0.  1.
</event>
<event>
12    1  0.8526130E-002  0.1901499E+03  0.7818608E-02  0.1158360E+00
         21   -1    0    0  503  502  0.00000000000E+00  0.00000000000E+00  0.12353704097E+04  0.12353704097E+04  0.00000000000E+00 0. -1.
         21   -1    0    0  501  503 -0.00000000000E+00 -0.00000000000E+00 -0.37375586748E+02  0.37375586748E+02  0.00000000000E+00 0. -1.
          6    2    1    2  501    0 -0.18422718845E+02 -0.79096833125E+02  0.30201114700E+03  0.35680728174E+03  0.17177018895E+03 0.  0.
         24    2    3    3    0    0  0.28482017086E+02 -0.58141209414E+02  0.28389725849E+03  0.30213191823E+03  0.80587946403E+02 0.  0.
         -6    2    1    2    0  502  0.18422718845E+02  0.79096833125E+02  0.89598367597E+03  0.91593871473E+03  0.17193392902E+03 0.  0.
        -24    2    5    5    0    0  0.19458798874E+02  0.11012173840E+03  0.49605348748E+03  0.51477806875E+03  0.80137104438E+02 0.  0.
          5    1    3    3  501    0 -0.46904735930E+02 -0.20955623711E+02  0.18113888504E+02  0.54675363506E+02  0.47000000000E+01 0. -1.
        -11    1    4    4    0    0 -0.42732492143E+01  0.48685033491E+01  0.15361898154E+03  0.15375550226E+03  0.00000000000E+00 0.  1.
         12    1    4    4    0    0  0.32755266300E+02 -0.63009712763E+02  0.13027827695E+03  0.14837641598E+03  0.00000000000E+00 0. -1.
         -5    1    5    5    0  502 -0.10360800300E+01 -0.31024905278E+02  0.39993018849E+03  0.40116064597E+03  0.47000000000E+01 0.  1.
         13    1    6    6    0    0 -0.22034855630E+00  0.72249393721E+02  0.15438918015E+03  0.17045833037E+03  0.00000000000E+00 0. -1.
        -14    1    6    6    0    0  0.19679147431E+02  0.37872344682E+02  0.34166430733E+03  0.34431973838E+03  0.00000000000E+00 0.  1.
</event>
<event>
12    1  0.8526130E-002  0.2211612E+03  0.7818608E-02  0.1133063E+00
         21   -1    0    0  501  502  0.00000000000E+00  0.00000000000E+00  0.14634860387E+04  0.14634860387E+04  0.00000000000E+00 0.  1.
         21   -1    0    0  502  503 -0.00000000000E+00 -0.00000000000E+00 -0.12230296007E+03  0.12230296007E+03  0.00000000000E+00 0.  1.
         -6    2    1    2    0  503 -0.31509941630E+02  0.13575549410E+03 -0.53755893161E+01  0.22122652936E+03  0.17172608926E+03 0.  0.
        -24    2    3    3    0    0 -0.80054548912E+02  0.12933669885E+03  0.86289404787E+00  0.17164035686E+03  0.79517011047E+02 0.  0.
          6    2    1    2  501    0  0.31509941630E+02 -0.13575549410E+03  0.13465586679E+04  0.13645624694E+04  0.17142944927E+03 0.  0.
         24    2    5    5    0    0  0.51045616110E+02 -0.35072935730E+02  0.93855108578E+03  0.94383583934E+03  0.78180465962E+02 0.  0.
          5    1    5    5  501    0 -0.19535674481E+02 -0.10068255837E+03  0.40800758213E+03  0.42072663002E+03  0.47000000000E+01 0. -1.
        -11    1    6    6    0    0  0.45029077735E+02  0.64628243621E+01  0.71051504743E+03  0.71196981576E+03  0.00000000000E+00 0.  1.
         12    1    6    6    0    0  0.60165383750E+01 -0.41535760092E+02  0.22803603835E+03  0.23186602358E+03  0.00000000000E+00 0. -1.
         -5    1    3    3    0  503  0.48544607283E+02  0.64187952552E+01 -0.62384833640E+01  0.49586172503E+02  0.47000000000E+01 0.  1.
         11    1    4    4    0    0 -0.22523984958E+02 -0.22575353106E+01  0.15260172207E+02  0.27300168861E+02  0.00000000000E+00 0. -1.
        -12    1    4    4    0    0 -0.57530563954E+02  0.13159423416E+03 -0.14397278159E+02  0.14434018800E+03  0.00000000000E+00 0.  1.
</event>
<event>
12    1  0.8526130E-002  0.1818140E+03  0.7818608E-02  0.1166114E+00
         21   -1    0    0  503  502  0.00000000000E+00  0.00000000000E+00  0.37097909997E+03  0.37097909997E+03  0.00000000000E+00 0. -1.
         21   -1    0    0  501  503 -0.00000000000E+00 -0.00000000000E+00 -0.27750365263E+03  0.27750365263E+03  0.00000000000E+00 0.  1.
          6    2    1    2  501    0 -0.56141483417E+02 -0.42597752281E+01 -0.22051176458E+03  0.28565458080E+03  0.17263571291E+03 0.  0.
         24    2    3    3    0    0 -0.34900486253E+02  0.23425587693E+01 -0.24014472019E+03  0.25561604354E+03  0.80290370272E+02 0.  0.
         -6    2    1    2    0  502  0.56141483417E+02  0.42597752281E+01  0.31398721191E+03  0.36282817179E+03  0.17287654889E+03 0.  0.
        -24    2    5    5    0    0 -0.35891538897E+02  0.10014469756E+02  0.14668246005E+03  0.17173614239E+03  0.81173064174E+02 0.  0.
          5    1    3    3  501    0 -0.21240997165E+02 -0.66023339974E+01  0.19632955612E+02  0.30038537262E+02  0.47000000000E+01 0. -1.
        -11    1    4    4    0    0 -0.16222951595E+02  0.31570885933E+02 -0.19741162808E+03  0.20057730654E+03  0.00000000000E+00 0.  1.
         12    1    4    4    0    0 -0.18677534658E+02 -0.29228327163E+02 -0.42733092113E+02  0.55038737006E+02  0.00000000000E+00 0. -1.
         -5    1    5    5    0  502  0.92033022314E+02 -0.57546945278E+01  0.16730475187E+03  0.19109202941E+03  0.47000000000E+01 0.  1.
         13    1    6    6    0    0  0.21964383558E+02  0.20988297446E+02  0.52661526431E+02  0.60796209921E+02  0.00000000000E+00 0. -1.
        -14    1    6    6    0    0 -0.57855922454E+02 -0.10973827691E+02  0.94020933617E+02  0.11093993247E+03  0.00000000000E+00 0.  1.
</event>
<event>
12    1  0.8526130E-002  0.2187915E+03  0.7818608E-02  0.1134860E+00
         21   -1    0    0  503  502  0.00000000000E+00  0.00000000000E+00  0.72110400852E+02  0.72110400852E+02  0.00000000000E+00 0.  1.
         21   -1    0    0  501  503 -0.00000000000E+00 -0.00000000000E+00 -0.75752488330E+03  0.75752488330E+03  0.00000000000E+00 0. -1.
          6    2    1    2  501    0 -0.11251651930E+03 -0.73692440192E+02 -0.48923480923E+03  0.53577105146E+03  0.17207375791E+03 0.  0.
         24    2    3    3    0    0 -0.12056883358E+03 -0.10882224736E+03 -0.42389386578E+03  0.46100159241E+03  0.80357536059E+02 0.  0.
         -6    2    1    2    0  502  0.11251651930E+03  0.73692440192E+02 -0.19617967323E+03  0.29386423270E+03  0.17256645160E+03 0.  0.
        -24    2    5    5    0    0  0.36843836711E+02  0.28545628771E+02 -0.18245555165E+03  0.20456120372E+03  0.79893282031E+02 0.  0.
          5    1    3    3  501    0  0.80523142783E+01  0.35129807164E+02 -0.65340943443E+02  0.74769459050E+02  0.47000000000E+01 0. -1.
        -11    1    4    4    0    0 -0.16501358818E+02 -0.53998338396E+02 -0.82998635182E+02  0.10038370801E+03  0.00000000000E+00 0.  1.
         12    1    4    4    0    0 -0.10406747476E+03 -0.54823908960E+02 -0.34089523060E+03  0.36061788439E+03  0.00000000000E+00 0. -1.
         -5    1    5    5    0  502  0.75672682591E+02  0.45146811421E+02 -0.13724121575E+02  0.89303028980E+02  0.47000000000E+01 0.  1.
         11    1    6    6    0    0  0.32250394636E+02 -0.12142687343E+02 -0.14509633545E+03  0.14913242227E+03  0.00000000000E+00 0. -1.
        -12    1    6    6    0    0  0.45934420751E+01  0.40688316113E+02 -0.37359216200E+02  0.55428781453E+02  0.00000000000E+00 0.  1.
</event>
<event>
12    1  0.8526130E-002  0.2108595E+03  0.7818608E-02  0.1140984E+00
         21   -1    0    0  503  502  0.00000000000E+00  0.00000000000E+00  0.72766620752E+03  0.72766620752E+03  0.00000000000E+00 0.  1.
         21   -1    0    0  501  503 -0.00000000000E+00 -0.00000000000E+00 -0.67651295930E+02  0.67651295930E+02  0.00000000000E+00 0. -1.
          6    2    1    2  501    0  0.64842541388E+02 -0.10394986289E+03  0.20459363203E+03  0.29345071891E+03  0.17101064584E+03 0.  0.
         24    2    3    3    0    0  0.73233432974E+02 -0.11773942282E+03  0.21877311992E+03  0.27145738125E+03  0.81250996579E+02 0.  0.
         -6    2    1    2    0  502 -0.64842541388E+02  0.10394986289E+03  0.45542127956E+03  0.50186678455E+03  0.17161467999E+03 0.  0.
        -24    2    5    5    0    0 -0.87326769118E+02  0.30940978656E+02  0.36280468916E+03  0.38171787489E+03  0.74148396969E+02 0.  0.
          5    1    3    3  501    0 -0.83908915868E+01  0.13789559927E+02 -0.14179487885E+02  0.21993337657E+02  0.47000000000E+01 0. -1.
        -13    1    4    4    0    0  0.86954923842E+02 -0.86993207497E+02  0.19380092302E+03  0.22953817698E+03  0.00000000000E+00 0.  1.
         14    1    4    4    0    0 -0.13721490867E+02 -0.30746215320E+02  0.24972196903E+02  0.41919204266E+02  0.00000000000E+00 0. -1.
         -5    1    5    5    0  502  0.22484227730E+02  0.73008884234E+02  0.92616590404E+02  0.12014890966E+03  0.47000000000E+01 0.  1.
         13    1    6    6    0    0 -0.13311679596E+02  0.25934115372E+02  0.34644868939E+02  0.45277434751E+02  0.00000000000E+00 0. -1.
        -14    1    6    6    0    0 -0.74015089521E+02  0.50068632838E+01  0.32815982022E+03  0.33644044014E+03  0.00000000000E+00 0.  1.
</event>
<event>
12    1  0.8526130E-002  0.1782676E+03  0.7818608E-02  0.1170491E+00
         21   -1    0    0  501  502  0.00000000000E+00  0.00000000000E+00  0.33328202595E+02  0.33328202595E+02  0.00000000000E+00 0.  1.
         21   -1    0    0  502  503 -0.00000000000E+00 -0.00000000000E+00 -0.97262736107E+03  0.97262736107E+03  0.00000000000E+00 0.  1.
         -6    2    1    2    0  503 -0.35198173373E+01 -0.18300295676E+02 -0.56719942538E+03  0.59335704640E+03  0.17323425304E+03 0.  0.
        -24    2    3    3    0    0  0.49243849037E+02 -0.25908908508E+02 -0.20063106171E+03  0.22290279723E+03  0.79602800739E+02 0.  0.
          6    2    1    2  501    0  0.35198173373E+01  0.18300295676E+02 -0.37209973309E+03  0.41259851726E+03  0.17729082081E+03 0.  0.
         24    2    5    5    0    0  0.12269945569E+02 -0.92110891606E+01 -0.63534898239E+02  0.10265047589E+03  0.79152013109E+02 0.  0.
          5    1    5    5  501    0 -0.87501282321E+01  0.27511384837E+02 -0.30856483485E+03  0.30994804136E+03  0.47000000000E+01 0. -1.
        -11    1    6    6    0    0  0.19863347581E+02 -0.40451745863E+02 -0.51218243543E+02  0.68221732550E+02  0.00000000000E+00 0.  1.
         12    1    6    6    0    0 -0.75934020112E+01  0.31240656703E+02 -0.12316654696E+02  0.34428743344E+02  0.00000000000E+00 0. -1.
         -5    1    3    3    0  503 -0.52763666375E+02  0.76086128320E+01 -0.36656836368E+03  0.37045424917E+03  0.47000000000E+01 0.  1.
         11    1    4    4    0    0  0.51575359187E+02  0.10726089921E+02 -0.72504626712E+02  0.89621356690E+02  0.00000000000E+00 0. -1.
        -12    1    4    4    0    0 -0.23315101492E+01 -0.36634998429E+02 -0.12812643499E+03  0.13328144054E+03  0.00000000000E+00 0.  1.
</event>
<event>
12    1  0.8526130E-002  0.2678257E+03  0.7818608E-02  0.1102663E+00
         21   -1    0    0  501  502  0.00000000000E+00  0.00000000000E+00  0.58276365380E+03  0.58276365380E+03  0.00000000000E+00 0. -1.
         21   -1    0    0  502  503 -0.00000000000E+00 -0.00000000000E+00 -0.23395050319E+03  0.23395050319E+03  0.00000000000E+00 0. -1.
         -6    2    1    2    0  503 -0.11367261824E+03 -0.17007887514E+03 -0.10707564025E+03  0.28843679442E+03  0.17286498701E+03 0.  0.
        -24    2    3    3    0    0 -0.14785994604E+03 -0.13157603020E+03 -0.69025805640E+02  0.22424082598E+03  0.79652814291E+02 0.  0.
          6    2    1    2  501    0  0.11367261824E+03  0.17007887514E+03  0.45588879085E+03  0.52827736257E+03  0.17144705968E+03 0.  0.
         24    2    5    5    0    0 -0.11824014788E+02  0.71817722447E+02  0.18223873322E+03  0.21155808138E+03  0.79046020342E+02 0.  0.
          5    1    5    5  501    0  0.12549663303E+03  0.98261152695E+02  0.27365005764E+03  0.31671928119E+03  0.47000000000E+01 0. -1.
        -13    1    6    6    0    0  0.14021973727E+02 -0.88004502969E+01  0.64187460981E+02  0.66287961349E+02  0.00000000000E+00 0.  1.
         14    1    6    6    0    0 -0.25845988515E+02  0.80618172744E+02  0.11805127224E+03  0.14527012004E+03  0.00000000000E+00 0. -1.
         -5    1    3    3    0  503  0.34187327798E+02 -0.38502844938E+02 -0.38049834611E+02  0.64195968442E+02  0.47000000000E+01 0.  1.
         11    1    4    4    0    0 -0.10800478539E+03 -0.50356706897E+02 -0.59715252282E+02  0.13329194631E+03  0.00000000000E+00 0. -1.
        -12    1    4    4    0    0 -0.39855160651E+02 -0.81219323307E+02 -0.93105533576E+01  0.90948879668E+02  0.00000000000E+00 0.  1.
</event>
<event>
12    1  0.8526130E-002  0.1856426E+03  0.7818608E-02  0.1163208E+00
         21   -1    0    0  501  502  0.00000000000E+00  0.00000000000E+00  0.17440906924E+03  0.17440906924E+03  0.00000000000E+00 0.  1.
         21   -1    0    0  502  503 -0.00000000000E+00 -0.00000000000E+00 -0.21877072420E+03  0.21877072420E+03  0.00000000000E+00 0. -1.
         -6    2    1    2    0  503 -0.36350521836E+02 -0.59509932783E+02 -0.87917672491E+02  0.20249604614E+03  0.16855960082E+03 0.  0.
        -24    2    3    3    0    0 -0.88350821034E+02 -0.52582056041E+02 -0.58852112343E+02  0.14233855800E+03  0.78904713236E+02 0.  0.
          6    2    1    2  501    0  0.36350521836E+02  0.59509932783E+02  0.43556017525E+02  0.19068374730E+03  0.17204758726E+03 0.  0.
         24    2    5    5    0    0  0.19965822027E+02  0.87069992407E+02  0.77692536163E+02  0.14361563517E+03  0.81298849088E+02 0.  0.
          5    1    5    5  501    0  0.16384699810E+02 -0.27560059624E+02 -0.34136518638E+02  0.47068112126E+02  0.47000000000E+01 0. -1.
        -13    1    6    6    0    0 -0.14332898891E+02  0.76862699273E+02  0.29451063026E+02  0.83550413784E+02  0.00000000000E+00 0.  1.
         14    1    6    6    0    0  0.34298720918E+02  0.10207293134E+02  0.48241473137E+02  0.60065221386E+02  0.00000000000E+00 0. -1.
         -5    1    3    3    0  503  0.52000299198E+02 -0.69278767415E+01 -0.29065560148E+02  0.60157488142E+02  0.47000000000E+01 0.  1.
         11    1    4    4    0    0 -0.17542730162E+02  0.19830213009E+02 -0.22462650418E+02  0.34721108757E+02  0.00000000000E+00 0. -1.
        -12    1    4    4    0    0 -0.70808090873E+02 -0.72412269050E+02 -0.36389461925E+02  0.10761744924E+03  0.00000000000E+00 0.  1.
</event>
<event>
12    1  0.8526130E-002  0.2358265E+03  0.7818608E-02  0.1122899E+00
         21   -1    0    0  501  502  0.00000000000E+00  0.00000000000E+00  0.93923079577E+03  0.93923079577E+03  0.00000000000E+00 0. -1.
         21   -1    0    0  502  503 -0.00000000000E+00 -0.00000000000E+00 -0.81917583914E+02  0.81917583914E+02  0.00000000000E+00 0.  1.
         -6    2    1    2    0  503  0.15902223400E+03 -0.70841096310E+00  0.15618301450E+03  0.28142026598E+03  0.17180122040E+03 0.  0.
        -24    2    3    3    0    0  0.32389807391E+02 -0.38081807862E+02  0.33810962346E+02  0.10133819743E+03  0.81405929579E+02 0.  0.
          6    2    1    2  501    0 -0.15902223400E+03  0.70841096310E+00  0.70113019736E+03  0.73972811371E+03  0.17414234354E+03 0.  0.
         24    2    5    5    0    0 -0.15943832090E+03 -0.13100888680E+02  0.40092429076E+03  0.43916772670E+03  0.80844256412E+02 0.  0.
          5    1    5    5  501    0  0.41608690649E+00  0.13809299643E+02  0.30020590660E+03  0.30056038702E+03  0.47000000000E+01 0. -1.
        -13    1    6    6    0    0 -0.67599024085E+02 -0.58903312822E+01  0.78115648562E+02  0.10347163191E+03  0.00000000000E+00 0.  1.
         14    1    6    6    0    0 -0.91839296818E+02 -0.72105573977E+01  0.32280864220E+03  0.33569609479E+03  0.00000000000E+00 0. -1.
         -5    1    3    3    0  503  0.12663242661E+03  0.37373396899E+02  0.12237205215E+03  0.18008206855E+03  0.47000000000E+01 0.  1.
         11    1    4    4    0    0  0.37537479408E+02 -0.38518371958E+02  0.56536585382E+02  0.78032767638E+02  0.00000000000E+00 0. -1.
        -12    1    4    4    0    0 -0.51476720172E+01  0.43656409616E+00 -0.22725623035E+02  0.23305429791E+02  0.00000000000E+00 0.  1.
</event>
<event>
12    1  0.8526130E-002  0.2367145E+03  0.7818608E-02  0.1122350E+00
         21   -1    0    0  501  502  0.00000000000E+00  0.00000000000E+00  0.15807910293E+04  0.15807910293E+04  0.00000000000E+00 0. -1.
         21   -1    0    0  502  503 -0.00000000000E+00 -0.00000000000E+00 -0.10166199929E+03  0.10166199929E+03  0.00000000000E+00 0.  1.
         -6    2    1    2    0  503 -0.98431157868E+02  0.12623586476E+03  0.57976466580E+02  0.24172114936E+03  0.17159154110E+03 0.  0.
        -24    2    3    3    0    0 -0.60053476497E+02 -0.36430938579E+01  0.78167099433E+01  0.97223808530E+02  0.75971546111E+02 0.  0.
          6    2    1    2  501    0  0.98431157868E+02 -0.12623586476E+03  0.14211525634E+04  0.14407318792E+04  0.17438335047E+03 0.  0.
         24    2    5    5    0    0  0.13663718460E+03 -0.95592338226E+02  0.12024037677E+04  0.12165180263E+04  0.79584373444E+02 0.  0.
          5    1    5    5  501    0 -0.38206026732E+02 -0.30643526539E+02  0.21874879573E+03  0.22421385290E+03  0.47000000000E+01 0. -1.
        -13    1    6    6    0    0  0.10161520360E+03 -0.70949883796E+02  0.60398774624E+03  0.61657175838E+03  0.00000000000E+00 0.  1.
         14    1    6    6    0    0  0.35021981001E+02 -0.24642454430E+02  0.59841602146E+03  0.59994626797E+03  0.00000000000E+00 0. -1.
         -5    1    3    3    0  503 -0.38377681371E+02  0.12987895862E+03  0.50159756637E+02  0.14449734083E+03  0.47000000000E+01 0.  1.
         11    1    4    4    0    0  0.11620807967E+02  0.35641884178E+01  0.20738644508E+02  0.24038261022E+02  0.00000000000E+00 0. -1.
        -12    1    4    4    0    0 -0.71674284464E+02 -0.72072822757E+01 -0.12921934565E+02  0.73185547508E+02  0.00000000000E+00 0.  1.
</event>
<event>
12    1  0.8526130E-002  0.1841393E+03  0.7818608E-02  0.1164006E+00
         21   -1    0    0  503  502  0.00000000000E+00  0.00000000000E+00  0.27751340436E+03  0.27751340436E+03  0.00000000000E+00 0.  1.
         21   -1    0    0  501  503 -0.00000000000E+00 -0.00000000000E+00 -0.12183781024E+03  0.12183781024E+03  0.00000000000E+00 0.  1.
          6    2    1    2  501    0 -0.59854150820E+02  0.25496930885E+02  0.82784322930E+02  0.20130977620E+03  0.17158021161E+03 0.  0.
         24    2    3    3    0    0  0.36605836442E+01 -0.22719951108E+02  0.13057599209E+02  0.95277256639E+02  0.91529550882E+02 0.  0.
         -6    2    1    2    0  502  0.59854150820E+02 -0.25496930885E+02  0.72891271196E+02  0.19804143840E+03  0.17226334796E+03 0.  0.
        -24    2    5    5    0    0  0.91717744742E+02  0.17660904574E+02  0.74993889002E+02  0.14414896786E+03  0.80192202217E+02 0.  0.
          5    1    3    3  501    0 -0.63514734464E+02  0.48216881993E+02  0.69726723721E+02  0.10603251956E+03  0.47000000000E+01 0. -1.
        -11    1    4    4    0    0 -0.43857836665E+02 -0.78071769249E+01  0.73119726835E+01  0.45143402541E+02  0.00000000000E+00 0.  1.
         12    1    4    4    0    0  0.47518420309E+02 -0.14912774183E+02  0.57456265254E+01  0.50133854098E+02  0.00000000000E+00 0. -1.
         -5    1    5    5    0  502 -0.31863593922E+02 -0.43157835460E+02 -0.21026178067E+01  0.53892470540E+02  0.47000000000E+01 0.  1.
         11    1    6    6    0    0 -0.99057118517E+01  0.56812351629E+01 -0.66746562616E+01  0.13226889146E+02  0.00000000000E+00 0. -1.
        -12    1    6    6    0    0  0.10162345659E+03  0.11979669412E+02  0.81668545264E+02  0.13092207871E+03  0.00000000000E+00 0.  1.
</event>
<event>
12    1  0.8526130E-002  0.2637420E+03  0.7818608E-02  0.1106561E+00
         21   -1    0    0  503  502  0.00000000000E+00  0.00000000000E+00  0.17520225832E+03  0.17520225832E+03  0.00000000000E+00 0. -1.
         21   -1    0    0  501  503 -0.00000000000E+00 -0.00000000000E+00 -0.38166309450E+03  0.38166309450E+03  0.00000000000E+00 0.  1.
          6    2    1    2  501    0 -0.63202351243E+02 -0.17409308668E+03 -0.11449323344E+03  0.27754850245E+03  0.17210906622E+03 0.  0.
         24    2    3    3    0    0 -0.71980725818E+02 -0.14076991925E+03 -0.14627842359E+03  0.23043288232E+03  0.81881261528E+02 0.  0.
         -6    2    1    2    0  502  0.63202351243E+02  0.17409308668E+03 -0.91967602743E+02  0.27931685037E+03  0.18776826919E+03 0.  0.
        -24    2    5    5    0    0  0.71635219622E+02  0.27549125213E+02 -0.93028279365E+01  0.11078851179E+03  0.79353593150E+02 0.  0.
          5    1    3    3  501    0  0.87783745745E+01 -0.33323167430E+02  0.31785190151E+02  0.47115620134E+02  0.47000000000E+01 0. -1.
        -11    1    4    4    0    0  0.13399516434E+02 -0.43754308681E+02 -0.58208296550E+02  0.74041828422E+02  0.00000000000E+00 0.  1.
         12    1    4    4    0    0 -0.85380242252E+02 -0.97015610570E+02 -0.88070127040E+02  0.15639105389E+03  0.00000000000E+00 0. -1.
         -5    1    5    5    0  502 -0.84328683788E+01  0.14654396147E+03 -0.82664774806E+02  0.16852833858E+03  0.47000000000E+01 0.  1.
         13    1    6    6    0    0  0.21371626687E+02  0.38432697682E+02  0.23429359360E+02  0.49827237114E+02  0.00000000000E+00 0. -1.
        -14    1    6    6    0    0  0.50263592935E+02 -0.10883572469E+02 -0.32732187296E+02  0.60961274672E+02  0.00000000000E+00 0.  1.
</event>
<event>
12    1  0.8526130E-002  0.5076632E+03  0.7818608E-02  0.1011808E+00
         21   -1    0    0  501  502  0.00000000000E+00  0.00000000000E+00  0.21322194545E+03  0.21322194545E+03  0.00000000000E+00 0.  1.
         21   -1    0    0  502  503 -0.00000000000E+00 -0.00000000000E+00 -0.17517048084E+04  0.17517048084E+04  0.00000000000E+00 0. -1.
         -6    2    1    2    0  503  0.40762760604E+03  0.24837504181E+03 -0.13165004547E+04  0.14109909109E+04  0.17283366794E+03 0.  0.
        -24    2    3    3    0    0  0.24977356035E+03  0.76898876232E+02 -0.75899203831E+03  0.80670645845E+03  0.80038286334E+02 0.  0.
          6    2    1    2  501    0 -0.40762760604E+03 -0.24837504181E+03 -0.22198240824E+03  0.55393584296E+03  0.17238997054E+03 0.  0.
         24    2    5    5    0    0 -0.23551142873E+03 -0.74263612547E+02 -0.82658778325E+02  0.27220559583E+03  0.79263456627E+02 0.  0.
          5    1    5    5  501    0 -0.17211617731E+03 -0.17411142926E+03 -0.13932362992E+03  0.28173024713E+03  0.47000000000E+01 0. -1.
        -13    1    6    6    0    0 -0.14636534344E+03 -0.85114486502E+02 -0.59486734313E+02  0.17946019373E+03  0.00000000000E+00 0.  1.
         14    1    6    6    0    0 -0.89146085285E+02  0.10850873955E+02 -0.23172044012E+02  0.92745402101E+02  0.00000000000E+00 0. -1.
         -5    1    3    3    0  503  0.15785404569E+03  0.17147616558E+03 -0.55750841639E+03  0.60428445243E+03  0.47000000000E+01 0.  1.
         11    1    4    4    0    0  0.15915644155E+03  0.72267492882E+02 -0.40187839050E+03  0.43824605436E+03  0.00000000000E+00 0. -1.
        -12    1    4    4    0    0  0.90617118804E+02  0.46313833501E+01 -0.35711364781E+03  0.36846040409E+03  0.00000000000E+00 0.  1.
</event>
<event>
12    1  0.8526130E-002  0.2189482E+03  0.7818608E-02  0.1135227E+00
         21   -1    0    0  501  502  0.00000000000E+00  0.00000000000E+00  0.10362332330E+03  0.10362332330E+03  0.00000000000E+00 0.  1.
         21   -1    0    0  502  503 -0.00000000000E+00 -0.00000000000E+00 -0.92170925191E+03  0.92170925191E+03  0.00000000000E+00 0.  1.
         -6    2    1    2    0  503 -0.78920865105E+02  0.10231865758E+03 -0.77466534900E+03  0.80501224098E+03  0.17675037352E+03 0.  0.
        -24    2    3    3    0    0 -0.82121784408E+02  0.85420059968E+02 -0.32382293798E+03  0.35381740716E+03  0.79277287596E+02 0.  0.
          6    2    1    2  501    0  0.78920865105E+02 -0.10231865758E+03 -0.43420579615E+02  0.22032033423E+03  0.17308406138E+03 0.  0.
         24    2    5    5    0    0  0.12269595360E+03 -0.65380193920E+02 -0.32023871948E+02  0.16173122760E+03  0.76174764980E+02 0.  0.
          5    1    5    5  501    0 -0.43775088495E+02 -0.36938463660E+02 -0.11396707667E+02  0.58589106632E+02  0.47000000000E+01 0. -1.
        -11    1    6    6    0    0  0.71704965706E+02 -0.71946014118E+02 -0.41004358290E+02  0.10954080725E+03  0.00000000000E+00 0.  1.
         12    1    6    6    0    0  0.50990987893E+02  0.65658201986E+01  0.89804863420E+01  0.52190420349E+02  0.00000000000E+00 0. -1.
         -5    1    3    3    0  503  0.32009193030E+01  0.16898597612E+02 -0.45084241103E+03  0.45119483382E+03  0.47000000000E+01 0.  1.
         11    1    4    4    0    0  0.10588185149E+02  0.15987986362E-01 -0.66218392201E+01  0.12488341564E+02  0.00000000000E+00 0. -1.
        -12    1    4    4    0    0 -0.92709969557E+02  0.85404071981E+02 -0.31720109876E+03  0.34132906559E+03  0.00000000000E+00 0.  1.
</event>
<event>
12    1  0.8526130E-002  0.1966297E+03  0.7818608E-02  0.1152647E+00
         21   -1    0    0  503  502  0.00000000000E+00  0.00000000000E+00  0.76207685277E+03  0.76207685277E+03  0.00000000000E+00 0. -1.
         21   -1    0    0  501  503 -0.00000000000E+00 -0.00000000000E+00 -0.51059660533E+02  0.51059660533E+02  0.00000000000E+00 0. -1.
          6    2    1    2  501    0  0.48751882351E+02 -0.83204537690E+02  0.32097717071E+03  0.37633625985E+03  0.17118088455E+03 0.  0.
         24    2    3    3    0    0  0.95986436818E+02 -0.79107302439E+02  0.25335818560E+03  0.29361801749E+03  0.80930887983E+02 0.  0.
         -6    2    1    2    0  502 -0.48751882351E+02  0.83204537690E+02  0.39004002153E+03  0.43680025345E+03  0.17135781832E+03 0.  0.
        -24    2    5    5    0    0  0.34229487193E+02  0.65066030121E+02  0.23057453889E+03  0.25606220184E+03  0.83653972756E+02 0.  0.
          5    1    3    3  501    0 -0.47234554468E+02 -0.40972352508E+01  0.67618985112E+02  0.82718242366E+02  0.47000000000E+01 0. -1.
        -11    1    4    4    0    0  0.62530082753E+02 -0.99805965595E+00  0.91820956195E+02  0.11109498354E+03  0.00000000000E+00 0.  1.
         12    1    4    4    0    0  0.33456354066E+02 -0.78109242783E+02  0.16153722941E+03  0.18252303394E+03  0.00000000000E+00 0. -1.
         -5    1    5    5    0  502 -0.82981369544E+02  0.18138507569E+02  0.15946548264E+03  0.18073805161E+03  0.47000000000E+01 0.  1.
         13    1    6    6    0    0 -0.23783876127E+01  0.17379620733E+02  0.16935243359E+03  0.17025849379E+03  0.00000000000E+00 0. -1.
        -14    1    6    6    0    0  0.36607874805E+02  0.47686409388E+02  0.61222105301E+02  0.85803708053E+02  0.00000000000E+00 0.  1.
</event>
<event>
12    1  0.8526130E-002  0.1977357E+03  0.7818608E-02  0.1151828E+00
         21   -1    0    0  501  502  0.00000000000E+00  0.00000000000E+00  0.11335130375E+03  0.11335130375E+03  0.00000000000E+00 0. -1.
         21   -1    0    0  502  503 -0.00000000000E+00 -0.00000000000E+00 -0.38855069235E+03  0.38855069235E+03  0.00000000000E+00 0. -1.
         -6    2    1    2    0  503  0.59521345213E+02 -0.75038901684E+02 -0.22318320976E+03  0.29817806776E+03  0.17299071557E+03 0.  0.
        -24    2    3    3    0    0  0.89870067486E+02 -0.99418770583E+02 -0.15602682051E+03  0.22041243545E+03  0.79224693176E+02 0.  0.
          6    2    1    2  501    0 -0.59521345213E+02  0.75038901684E+02 -0.52016178832E+02  0.20372392834E+03  0.17211661401E+03 0.  0.
         24    2    5    5    0    0 -0.64265002758E+02 -0.16023673117E+01  0.17690711084E+02  0.99909059937E+02  0.74406322570E+02 0.  0.
          5    1    5    5  501    0  0.47436575452E+01  0.76641268996E+02 -0.69706889916E+02  0.10381486841E+03  0.47000000000E+01 0. -1.
        -11    1    6    6    0    0  0.16667048460E+01 -0.24727724155E+02 -0.70850748605E+01  0.25776666439E+02  0.00000000000E+00 0.  1.
         12    1    6    6    0    0 -0.65931707604E+02  0.23125356843E+02  0.24775785945E+02  0.74132393499E+02  0.00000000000E+00 0. -1.
         -5    1    3    3    0  503 -0.30348722274E+02  0.24379868899E+02 -0.67156389252E+02  0.77765632310E+02  0.47000000000E+01 0.  1.
         13    1    4    4    0    0  0.77424017334E+02 -0.83255585112E+02 -0.16310499020E+03  0.19881953812E+03  0.00000000000E+00 0. -1.
        -14    1    4    4    0    0  0.12446050152E+02 -0.16163185471E+02  0.70781696854E+01  0.21592897328E+02  0.00000000000E+00 0.  1.
</event>
<event>
12    1  0.8526130E-002  0.1905149E+03  0.7818608E-02  0.1158431E+00
         21   -1    0    0  501  502  0.00000000000E+00  0.00000000000E+00  0.38836631924E+03  0.38836631924E+03  0.00000000000E+00 0.  1.
         21   -1    0    0  502  503 -0.00000000000E+00 -0.00000000000E+00 -0.11080683318E+03  0.11080683318E+03  0.00000000000E+00 0.  1.
         -6    2    1    2    0  503 -0.82618954716E+02 -0.14940472095E+02  0.36799375271E+02  0.19215302812E+03  0.16887712341E+03 0.  0.
        -24    2    3    3    0    0  0.53412005009E+01  0.90982194093E+01  0.56614023392E+02  0.98720925102E+02  0.80183336107E+02 0.  0.
          6    2    1    2  501    0  0.82618954716E+02  0.14940472095E+02  0.24076011080E+03  0.30702012430E+03  0.17101700614E+03 0.  0.
         24    2    5    5    0    0  0.24484210733E+02  0.47863660430E+02  0.60680693026E+02  0.11488925355E+03  0.81406311249E+02 0.  0.
          5    1    5    5  501    0  0.58134743984E+02 -0.32923188334E+02  0.18007941777E+03  0.19213087074E+03  0.47000000000E+01 0. -1.
        -13    1    6    6    0    0  0.34352242904E+02  0.54673135716E+02  0.73163400599E+02  0.97581307374E+02  0.00000000000E+00 0.  1.
         14    1    6    6    0    0 -0.98680321709E+01 -0.68094752862E+01 -0.12482707574E+02  0.17307946180E+02  0.00000000000E+00 0. -1.
         -5    1    3    3    0  503 -0.87960155217E+02 -0.24038691504E+02 -0.19814648121E+02  0.93432103022E+02  0.47000000000E+01 0.  1.
         13    1    4    4    0    0 -0.27304815671E+02  0.29178640054E+02  0.41238917445E+02  0.57424683772E+02  0.00000000000E+00 0. -1.
        -14    1    4    4    0    0  0.32646016172E+02 -0.20080420645E+02  0.15375105947E+02  0.41296241331E+02  0.00000000000E+00 0.  1.
</event>
<event>
12    1  0.8526130E-002  0.2313466E+03  0.7818608E-02  0.1125807E+00
         21   -1    0    0  501  502  0.00000000000E+00  0.00000000000E+00  0.66562686415E+02  0.66562686415E+02  0.00000000000E+00 0.  1.
         21   -1    0    0  502  503 -0.00000000000E+00 -0.00000000000E+00 -0.93936156170E+03  0.93936156170E+03  0.00000000000E+00 0.  1.
         -6    2    1    2    0  503  0.15332076097E+03  0.23400745990E+02 -0.62831412578E+03  0.66933246180E+03  0.17079945288E+03 0.  0.
        -24    2    3    3    0    0  0.42637441915E+02  0.48414760693E+02 -0.37690460969E+03  0.39346051174E+03  0.92693845457E+02 0.  0.
          6    2    1    2  501    0 -0.15332076097E+03 -0.23400745990E+02 -0.24448474950E+03  0.33659178631E+03  0.17165776189E+03 0.  0.
         24    2    5    5    0    0 -0.75321758409E+02  0.50767982170E+02 -0.15532621987E+03  0.19674838088E+03  0.79579742996E+02 0.  0.
          5    1    5    5  501    0 -0.77999002564E+02 -0.74168728160E+02 -0.89158529628E+02  0.13984340543E+03  0.47000000000E+01 0. -1.
        -11    1    6    6    0    0  0.16705697417E+02  0.12307048888E+02 -0.31971624763E+02  0.38114676550E+02  0.00000000000E+00 0.  1.
         12    1    6    6    0    0 -0.92027455826E+02  0.38460933282E+02 -0.12335459511E+03  0.15863370433E+03  0.00000000000E+00 0. -1.
         -5    1    3    3    0  503  0.11068331906E+03 -0.25014014703E+02 -0.25140951609E+03  0.27587195006E+03  0.47000000000E+01 0.  1.
         13    1    4    4    0    0  0.28805323189E+02  0.24759084610E+02 -0.35837163671E+03  0.36037895181E+03  0.00000000000E+00 0. -1.
        -14    1    4    4    0    0  0.13832118726E+02  0.23655676083E+02 -0.18532972983E+02  0.33081559923E+02  0.00000000000E+00 0.  1.
</event>
<event>
12    1  0.8526130E-002  0.1857394E+03  0.7818608E-02  0.1163135E+00
         21   -1    0    0  503  502  0.00000000000E+00  0.00000000000E+00  0.56148756631E+02  0.56148756631E+02  0.00000000000E+00 0.  1.
         21   -1    0    0  501  503 -0.00000000000E+00 -0.00000000000E+00 -0.88722241818E+03  0.88722241818E+03  0.00000000000E+00 0.  1.
          6    2    1    2  501    0  0.63920247528E+02  0.69103770399E+01 -0.68477379939E+03  0.70951692541E+03  0.17425716562E+03 0.  0.
         24    2    3    3    0    0  0.10915461626E+03  0.12660853073E+02 -0.44093190171E+03  0.46140369088E+03  0.79983726842E+02 0.  0.
         -6    2    1    2    0  502 -0.63920247528E+02 -0.69103770399E+01 -0.14629986217E+03  0.23385424940E+03  0.17073549407E+03 0.  0.
        -24    2    5    5    0    0 -0.94933300050E+02 -0.39393658025E+02 -0.13414910450E+03  0.18709204369E+03  0.80269912331E+02 0.  0.
          5    1    3    3  501    0 -0.45234368734E+02 -0.57504760332E+01 -0.24384189768E+03  0.24811323454E+03  0.47000000000E+01 0. -1.
        -13    1    4    4    0    0  0.29655504540E+02 -0.22077586114E+02 -0.23578441848E+03  0.23866537402E+03  0.00000000000E+00 0.  1.
         14    1    4    4    0    0  0.79499111722E+02  0.34738439187E+02 -0.20514748323E+03  0.22273831686E+03  0.00000000000E+00 0. -1.
         -5    1    5    5    0  502  0.31013052522E+02  0.32483280985E+02 -0.12150757668E+02  0.46762205703E+02  0.47000000000E+01 0.  1.
         11    1    6    6    0    0 -0.51591784934E+02 -0.76153939394E+01 -0.12100514237E+03  0.13176475620E+03  0.00000000000E+00 0. -1.
        -12    1    6    6    0    0 -0.43341515116E+02 -0.31778264086E+02 -0.13143962128E+02  0.55327287492E+02  0.00000000000E+00 0.  1.
</event>
<event>
12    1  0.8526130E-002  0.1815482E+03  0.7818608E-02  0.1166421E+00
         21   -1    0    0  501  502  0.00000000000E+00  0.00000000000E+00  0.53658272790E+02  0.53658272790E+02  0.00000000000E+00 0.  1.
         21   -1    0    0  502  503 -0.00000000000E+00 -0.00000000000E+00 -0.94950124810E+03  0.94950124810E+03  0.00000000000E+00 0. -1.
         -6    2    1    2    0  503  0.38766867132E+02 -0.44004112067E+02 -0.74699804105E+03  0.76874302563E+03  0.17181540748E+03 0.  0.
        -24    2    3    3    0    0  0.56816387983E+02  0.29947758383E+02 -0.43819130251E+03  0.45065757152E+03  0.83400593500E+02 0.  0.
          6    2    1    2  501    0 -0.38766867132E+02  0.44004112067E+02 -0.14884493426E+03  0.23441649526E+03  0.17133898252E+03 0.  0.
         24    2    5    5    0    0 -0.22672002815E+02  0.26782806961E+02 -0.17726449786E+03  0.19719580744E+03  0.78943940933E+02 0.  0.
          5    1    5    5  501    0 -0.16094864317E+02  0.17221305106E+02  0.28419563600E+02  0.37220687825E+02  0.47000000000E+01 0. -1.
        -13    1    6    6    0    0  0.24286111356E+00  0.11988153586E+02  0.49346500782E+01  0.12966324819E+02  0.00000000000E+00 0.  1.
         14    1    6    6    0    0 -0.22914863928E+02  0.14794653375E+02 -0.18219914793E+03  0.18422948262E+03  0.00000000000E+00 0. -1.
         -5    1    3    3    0  503 -0.18049520851E+02 -0.73951870450E+02 -0.30880673854E+03  0.31808545411E+03  0.47000000000E+01 0.  1.
         13    1    4    4    0    0 -0.16720703856E+02  0.12028646490E+01 -0.17703343186E+03  0.17782537731E+03  0.00000000000E+00 0. -1.
        -14    1    4    4    0    0  0.73537091840E+02  0.28744893734E+02 -0.26115787065E+03  0.27283219421E+03  0.00000000000E+00 0.  1.
</event>
<event>
12    1  0.8526130E-002  0.3108535E+03  0.7818608E-02  0.1079947E+00
         21   -1    0    0  501  502  0.00000000000E+00  0.00000000000E+00  0.18263697866E+03  0.18263697866E+03  0.00000000000E+00 0.  1.
         21   -1    0    0  502  503 -0.00000000000E+00 -0.00000000000E+00 -0.58642391108E+03  0.58642391108E+03  0.00000000000E+00 0. -1.
         -6    2    1    2    0  503  0.24715547098E+03  0.75519583300E+02 -0.32225608520E+03  0.44769325454E+03  0.17260136561E+03 0.  0.
        -24    2    3    3    0    0  0.15838889001E+03  0.90224816134E+02 -0.14007131767E+03  0.24444678030E+03  0.83106536675E+02 0.  0.
          6    2    1    2  501    0 -0.24715547098E+03 -0.75519583300E+02 -0.81530847225E+02  0.32136763521E+03  0.17274502485E+03 0.  0.
         24    2    5    5    0    0 -0.29584267448E+02 -0.30916817425E+02 -0.12279459848E+02  0.88677970662E+02  0.76693669012E+02 0.  0.
          5    1    5    5  501    0 -0.21757120354E+03 -0.44602765875E+02 -0.69251387376E+02  0.23268966454E+03  0.47000000000E+01 0. -1.
        -11    1    6    6    0    0  0.48312893837E+01 -0.33977471652E+02 -0.33640057300E+02  0.48056876637E+02  0.00000000000E+00 0.  1.
         12    1    6    6    0    0 -0.34415556832E+02  0.30606542269E+01  0.21360597451E+02  0.40621094025E+02  0.00000000000E+00 0. -1.
         -5    1    3    3    0  503  0.88766580970E+02 -0.14705232835E+02 -0.18218476753E+03  0.20324647424E+03  0.47000000000E+01 0.  1.
         11    1    4    4    0    0  0.13467037179E+03  0.90916380006E+02 -0.14763647576E+03  0.21954139966E+03  0.00000000000E+00 0. -1.
        -12    1    4    4    0    0  0.23718518229E+02 -0.69156387156E+00  0.75651580949E+01  0.24905380635E+02  0.00000000000E+00 0.  1.
</event>
<event>
12    1  0.8526130E-002  0.1952999E+03  0.7818608E-02  0.1153853E+00
         21   -1    0    0  501  502  0.00000000000E+00  0.00000000000E+00  0.75895179647E+02  0.75895179647E+02  0.00000000000E+00 0.  1.
         21   -1    0    0  502  503 -0.00000000000E+00 -0.00000000000E+00 -0.51930959721E+03  0.51930959721E+03  0.00000000000E+00 0. -1.
         -6    2    1    2    0  503 -0.90277036050E+02 -0.28638792970E+01 -0.27699119685E+03  0.33891911880E+03  0.17315860046E+03 0.  0.
        -24    2    3    3    0    0 -0.77782759872E+02  0.53567189090E+02 -0.13751338208E+03  0.18786706410E+03  0.86397349739E+02 0.  0.
          6    2    1    2  501    0  0.90277036050E+02  0.28638792970E+01 -0.16642322072E+03  0.25628565806E+03  0.17270641300E+03 0.  0.
         24    2    5    5    0    0 -0.15108936516E+02  0.84809492918E+01 -0.10271065402E+03  0.13291979631E+03  0.82571104752E+02 0.  0.
          5    1    5    5  501    0  0.10538597257E+03 -0.56170699948E+01 -0.63712566701E+02  0.12336586175E+03  0.47000000000E+01 0. -1.
        -11    1    6    6    0    0  0.54886910365E+01  0.43005064152E+02 -0.44053543482E+02  0.61808381028E+02  0.00000000000E+00 0.  1.
         12    1    6    6    0    0 -0.20597627552E+02 -0.34524114860E+02 -0.58657110534E+02  0.71111415285E+02  0.00000000000E+00 0. -1.
         -5    1    3    3    0  503 -0.12494276177E+02 -0.56431068387E+02 -0.13947781477E+03  0.15105205470E+03  0.47000000000E+01 0.  1.
         11    1    4    4    0    0 -0.83944665706E+02  0.15686622710E+02 -0.11543940927E+03  0.14359329457E+03  0.00000000000E+00 0. -1.
        -12    1    4    4    0    0  0.61619058342E+01  0.37880566380E+02 -0.22073972809E+02  0.44273769529E+02  0.00000000000E+00 0.  1.
</event>
<event>
12    1  0.8526130E-002  0.2759303E+03  0.7818608E-02  0.1098579E+00
         21   -1    0    0  501  502  0.00000000000E+00  0.00000000000E+00  0.32083294971E+03  0.32083294971E+03  0.00000000000E+00 0.  1.
         21   -1    0    0  502  503 -0.00000000000E+00 -0.00000000000E+00 -0.24358273799E+03  0.24358273799E+03  0.00000000000E+00 0. -1.
         -6    2    1    2    0  503  0.20203802473E+03 -0.56784138002E+02 -0.18854560019E+02  0.27657367926E+03  0.17914715700E+03 0.  0.
        -24    2    3    3    0    0  0.14677641835E+03  0.22802744211E+02 -0.48952552198E+02  0.17500647937E+03  0.78534281237E+02 0.  0.
          6    2    1    2  501    0 -0.20203802473E+03  0.56784138002E+02  0.96104771739E+02  0.28784200844E+03  0.17196829041E+03 0.  0.
         24    2    5    5    0    0 -0.89204910462E+02  0.42640855382E+02 -0.16055839806E+02  0.12805015352E+03  0.79770252760E+02 0.  0.
          5    1    5    5  501    0 -0.11283311427E+03  0.14143282620E+02  0.11216061154E+03  0.15979185493E+03  0.47000000000E+01 0. -1.
        -13    1    6    6    0    0 -0.89250726779E+01  0.39255099171E+02  0.13462749701E+02  0.42448384690E+02  0.00000000000E+00 0.  1.
         14    1    6    6    0    0 -0.80279837784E+02  0.33857562109E+01 -0.29518589507E+02  0.85601768827E+02  0.00000000000E+00 0. -1.
         -5    1    3    3    0  503  0.55261606388E+02 -0.79586882213E+02  0.30097992180E+02  0.10156719989E+03  0.47000000000E+01 0.  1.
         13    1    4    4    0    0  0.12677212522E+03  0.37922663100E+02 -0.15541459832E+02  0.13323226743E+03  0.00000000000E+00 0. -1.
        -14    1    4    4    0    0  0.20004293124E+02 -0.15119918889E+02 -0.33411092366E+02  0.41774211946E+02  0.00000000000E+00 0.  1.
</event>
<event>
12    1  0.8526130E-002  0.1807152E+03  0.7818608E-02  0.1167144E+00
         21   -1    0    0  501  502  0.00000000000E+00  0.00000000000E+00  0.52580866624E+02  0.52580866624E+02  0.00000000000E+00 0. -1.
         21   -1    0    0  502  503 -0.00000000000E+00 -0.00000000000E+00 -0.66182047707E+03  0.66182047707E+03  0.00000000000E+00 0.  1.
         -6    2    1    2    0  503 -0.49142724887E+02  0.27853434476E+02 -0.39359929721E+03  0.43304975348E+03  0.17152510312E+03 0.  0.
        -24    2    3    3    0    0 -0.61820379206E+02 -0.36634646436E+02 -0.15127796183E+03  0.18192995124E+03  0.71060740325E+02 0.  0.
          6    2    1    2  501    0  0.49142724887E+02 -0.27853434476E+02 -0.21564031323E+03  0.28135159021E+03  0.17165998778E+03 0.  0.
         24    2    5    5    0    0  0.46406421644E+02  0.31202820136E+02 -0.19691147050E+03  0.21915843855E+03  0.78288709396E+02 0.  0.
          5    1    5    5  501    0  0.27363032425E+01 -0.59056254612E+02 -0.18728842737E+02  0.62193151669E+02  0.47000000000E+01 0. -1.
        -11    1    6    6    0    0 -0.12151428007E+02 -0.60590667188E+01 -0.94328200651E+02  0.95300466579E+02  0.00000000000E+00 0.  1.
         12    1    6    6    0    0  0.58557849651E+02  0.37261886854E+02 -0.10258326984E+03  0.12385797197E+03  0.00000000000E+00 0. -1.
         -5    1    3    3    0  503  0.12677654319E+02  0.64488080912E+02 -0.24232133538E+03  0.25111980224E+03  0.47000000000E+01 0.  1.
         11    1    4    4    0    0 -0.76357603207E+02 -0.24177807832E+02 -0.10671170764E+03  0.13342577902E+03  0.00000000000E+00 0. -1.
        -12    1    4    4    0    0  0.14537224002E+02 -0.12456838604E+02 -0.44566254194E+02  0.48504172219E+02  0.00000000000E+00 0.  1.
</event>
<event>
12    1  0.8526130E-002  0.2080447E+03  0.7818608E-02  0.1143380E+00
         21   -1    0    0  503  502  0.00000000000E+00  0.00000000000E+00  0.35347918583E+03  0.35347918583E+03  0.00000000000E+00 0.  1.
         21   -1    0    0  501  503 -0.00000000000E+00 -0.00000000000E+00 -0.15919166886E+03  0.15919166886E+03  0.00000000000E+00 0. -1.
          6    2    1    2  501    0  0.81081361442E+02 -0.81455660395E+02  0.22177427749E+03  0.30408291229E+03  0.17341676854E+03 0.  0.
         24    2    3    3    0    0  0.10958564509E+03 -0.34844125590E+02  0.20100950282E+03  0.24544508125E+03  0.81334746490E+02 0.  0.
         -6    2    1    2    0  502 -0.81081361442E+02  0.81455660395E+02 -0.27486760522E+02  0.20858794239E+03  0.17188425153E+03 0.  0.
        -24    2    5    5    0    0  0.14263245500E+02  0.61466820829E+02  0.14956409621E+02  0.10222225021E+03  0.79019516673E+02 0.  0.
          5    1    3    3  501    0 -0.28504283644E+02 -0.46611534805E+02  0.20764774664E+02  0.58637831046E+02  0.47000000000E+01 0. -1.
        -11    1    4    4    0    0  0.16917478154E+02 -0.13279396774E+01  0.11001345449E+03  0.11131453032E+03  0.00000000000E+00 0.  1.
         12    1    4    4    0    0  0.92668166932E+02 -0.33516185913E+02  0.90996048332E+02  0.13413055093E+03  0.00000000000E+00 0. -1.
         -5    1    5    5    0  502 -0.95344606942E+02  0.19988839566E+02 -0.42443170143E+02  0.10636569218E+03  0.47000000000E+01 0.  1.
         11    1    6    6    0    0 -0.26761104762E+02  0.38353236713E+02 -0.11570484493E+02  0.48176795304E+02  0.00000000000E+00 0. -1.
        -12    1    6    6    0    0  0.41024350261E+02  0.23113584116E+02  0.26526894115E+02  0.54045454910E+02  0.00000000000E+00 0.  1.
</event>
<event>
12    1  0.8526130E-002  0.2246707E+03  0.7818608E-02  0.1130518E+00
         21   -1    0    0  501  502  0.00000000000E+00  0.00000000000E+00  0.22505641287E+02  0.22505641287E+02  0.00000000000E+00 0.  1.
         21   -1    0    0  502  503 -0.00000000000E+00 -0.00000000000E+00 -0.34193957229E+04  0.34193957229E+04  0.00000000000E+00 0.  1.
         -6    2    1    2    0  503 -0.75783834234E+02  0.12163743194E+03 -0.27105339052E+04  0.27198292150E+04  0.17302616371E+03 0.  0.
        -24    2    3    3    0    0 -0.10185728591E+03  0.67578054567E+02 -0.23308600677E+04  0.23354120535E+04  0.79366897988E+02 0.  0.
          6    2    1    2  501    0  0.75783834234E+02 -0.12163743194E+03 -0.68635617639E+03  0.72207214913E+03  0.17252400790E+03 0.  0.
         24    2    5    5    0    0  0.94815337979E+02 -0.13087114788E+03 -0.44872066390E+03  0.48345072000E+03  0.79102204734E+02 0.  0.
          5    1    5    5  501    0 -0.19031503745E+02  0.92337159372E+01 -0.23763551249E+03  0.23862142913E+03  0.47000000000E+01 0. -1.
        -11    1    6    6    0    0  0.71281170754E+02 -0.91726125418E+02 -0.20623991650E+03  0.23670570451E+03  0.00000000000E+00 0.  1.
         12    1    6    6    0    0  0.23534167225E+02 -0.39145022460E+02 -0.24248074740E+03  0.24674501549E+03  0.00000000000E+00 0. -1.
         -5    1    3    3    0  503  0.26073451675E+02  0.54059377374E+02 -0.37967383754E+03  0.38441716152E+03  0.47000000000E+01 0.  1.
         11    1    4    4    0    0 -0.18931585536E+01 -0.37618342225E+01 -0.61119359874E+01  0.74223451510E+01  0.00000000000E+00 0. -1.
        -12    1    4    4    0    0 -0.99964127355E+02  0.71339888789E+02 -0.23247481317E+04  0.23279897083E+04  0.00000000000E+00 0.  1.
</event>
<event>
12    1  0.8526130E-002  0.1815819E+03  0.7818608E-02  0.1166340E+00
         21   -1    0    0  501  502  0.00000000000E+00  0.00000000000E+00  0.95578504577E+02  0.95578504577E+02  0.00000000000E+00 0.  1.
         21   -1    0    0  502  503 -0.00000000000E+00 -0.00000000000E+00 -0.43787570451E+03  0.43787570451E+03  0.00000000000E+00 0.  1.
         -6    2    1    2    0  503 -0.37606435328E+02  0.46030800809E+02 -0.29422524599E+03  0.34561681405E+03  0.17131668972E+03 0.  0.
        -24    2    3    3    0    0  0.23299543142E+02  0.33827641154E+02 -0.25981534879E+03  0.27445090687E+03  0.78307769740E+02 0.  0.
          6    2    1    2  501    0  0.37606435328E+02 -0.46030800809E+02 -0.48071953951E+02  0.18783739504E+03  0.17157766643E+03 0.  0.
         24    2    5    5    0    0 -0.19033991648E+02 -0.79952029311E+02 -0.25505935353E+02  0.11790812430E+03  0.80604920501E+02 0.  0.
          5    1    5    5  501    0  0.56640426976E+02  0.33921228502E+02 -0.22566018598E+02  0.69929270742E+02  0.47000000000E+01 0. -1.
        -11    1    6    6    0    0 -0.92229724673E+01 -0.16690093234E+02  0.28406256586E+02  0.34213123893E+02  0.00000000000E+00 0.  1.
         12    1    6    6    0    0 -0.98110191807E+01 -0.63261936076E+02 -0.53912191939E+02  0.83695000407E+02  0.00000000000E+00 0. -1.
         -5    1    3    3    0  503 -0.60905978471E+02  0.12203159655E+02 -0.34409897201E+02  0.71165907178E+02  0.47000000000E+01 0.  1.
         13    1    4    4    0    0 -0.28177192230E+02  0.21178562711E+02 -0.95542023524E+02  0.10183694781E+03  0.00000000000E+00 0. -1.
        -14    1    4    4    0    0  0.51476735373E+02  0.12649078443E+02 -0.16427332526E+03  0.17261395906E+03  0.00000000000E+00 0.  1.
</event>
<event>
12    1  0.8526130E-002  0.3086482E+03  0.7818608E-02  0.1081098E+00
         21   -1    0    0  503  502  0.00000000000E+00  0.00000000000E+00  0.48773681195E+03  0.48773681195E+03  0.00000000000E+00 0. -1.
         21   -1    0    0  501  503 -0.00000000000E+00 -0.00000000000E+00 -0.24614245620E+03  0.24614245620E+03  0.00000000000E+00 0.  1.
          6    2    1    2  501    0 -0.37235096148E+02  0.25262487283E+03 -0.46950758640E+02  0.31136064739E+03  0.17185837264E+03 0.  0.
         24    2    3    3    0    0 -0.60858333832E+01  0.16798818138E+03  0.34966236161E+02  0.18943390648E+03  0.80034372627E+02 0.  0.
         -6    2    1    2    0  502  0.37235096148E+02 -0.25262487283E+03  0.28854511438E+03  0.42251862076E+03  0.17337220970E+03 0.  0.
        -24    2    5    5    0    0  0.89142233750E+02 -0.13961752395E+03  0.16718304386E+03  0.24869154002E+03  0.80361191465E+02 0.  0.
          5    1    3    3  501    0 -0.31149262765E+02  0.84636691451E+02 -0.81916994801E+02  0.12192674091E+03  0.47000000000E+01 0. -1.
        -13    1    4    4    0    0  0.24959430833E+01  0.44707304328E+02 -0.25847607791E+02  0.51701756456E+02  0.00000000000E+00 0.  1.
         14    1    4    4    0    0 -0.85817764665E+01  0.12328087705E+03  0.60813843952E+02  0.13773215003E+03  0.00000000000E+00 0. -1.
         -5    1    5    5    0  502 -0.51907137602E+02 -0.11300734888E+03  0.12136207053E+03  0.17382708074E+03  0.47000000000E+01 0.  1.
         13    1    6    6    0    0  0.15292187364E+02 -0.63709237547E+02  0.11077590783E+03  0.12870128087E+03  0.00000000000E+00 0. -1.
        -14    1    6    6    0    0  0.73850046386E+02 -0.75908286405E+02  0.56407136029E+02  0.11999025915E+03  0.00000000000E+00 0.  1.
</event>
<event>
12    1  0.8526130E-002  0.2378622E+03  0.7818608E-02  0.1121240E+00
         21   -1    0    0  503  502  0.00000000000E+00  0.00000000000E+00  0.11605052195E+04  0.11605052195E+04  0.00000000000E+00 0.  1.
         21   -1    0    0  501  503 -0.00000000000E+00 -0.00000000000E+00 -0.13095811165E+03  0.13095811165E+03  0.00000000000E+00 0.  1.
          6    2    1    2  501    0 -0.83774884516E+01 -0.16392117950E+03  0.31485612969E+01  0.23788305909E+03  0.17215719840E+03 0.  0.
         24    2    3    3    0    0 -0.37014717232E+02 -0.14850522597E+03  0.47038711451E+02  0.18305443722E+03  0.88726519023E+02 0.  0.
         -6    2    1    2    0  502  0.83774884516E+01  0.16392117950E+03  0.10263985465E+04  0.10535802720E+04  0.17203801293E+03 0.  0.
        -24    2    5    5    0    0  0.29889728963E+02  0.49243725560E+02  0.24830045962E+03  0.26676872040E+03  0.78702550974E+02 0.  0.
          5    1    3    3  501    0  0.28637228781E+02 -0.15415953528E+02 -0.43890150154E+02  0.54828621868E+02  0.47000000000E+01 0. -1.
        -11    1    4    4    0    0 -0.32710119756E+02 -0.81884095759E+02 -0.17839920557E+02  0.89962324548E+02  0.00000000000E+00 0.  1.
         12    1    4    4    0    0 -0.43045974762E+01 -0.66621130215E+02  0.64878632008E+02  0.93092112672E+02  0.00000000000E+00 0. -1.
         -5    1    5    5    0  502 -0.21512240511E+02  0.11467745394E+03  0.77809808690E+03  0.78681155163E+03  0.47000000000E+01 0.  1.
         11    1    6    6    0    0 -0.78532265911E+01 -0.18276720487E+02  0.42975973956E+02  0.47356583673E+02  0.00000000000E+00 0. -1.
        -12    1    6    6    0    0  0.37742955554E+02  0.67520446048E+02  0.20532448567E+03  0.21941213673E+03  0.00000000000E+00 0.  1.
</event>
<event>
12    1  0.8526130E-002  0.1837147E+03  0.7818608E-02  0.1164406E+00
         21   -1    0    0  501  502  0.00000000000E+00  0.00000000000E+00  0.10016909669E+03  0.10016909669E+03  0.00000000000E+00 0. -1.
         21   -1    0    0  502  503 -0.00000000000E+00 -0.00000000000E+00 -0.80259065548E+03  0.80259065548E+03  0.00000000000E+00 0. -1.
         -6    2    1    2    0  503  0.50922352048E+02  0.37767676992E+02 -0.69571182531E+03  0.71955961337E+03  0.17242856481E+03 0.  0.
        -24    2    3    3    0    0  0.27395338586E+02  0.83126690118E+02 -0.33513033652E+03  0.35534530765E+03  0.79356121562E+02 0.  0.
          6    2    1    2  501    0 -0.50922352048E+02 -0.37767676992E+02 -0.67097334890E+01  0.18320013879E+03  0.17174919786E+03 0.  0.
         24    2    5    5    0    0 -0.56433675624E+02 -0.46435652340E+02 -0.63386728753E+02  0.12540844150E+03  0.79802069299E+02 0.  0.
          5    1    5    5  501    0  0.55113235760E+01  0.86679753488E+01  0.56676995264E+02  0.57791697296E+02  0.47000000000E+01 0. -1.
        -13    1    6    6    0    0 -0.36776253056E+02  0.17924810498E+02 -0.24378540422E+02  0.47624624443E+02  0.00000000000E+00 0.  1.
         14    1    6    6    0    0 -0.19657422568E+02 -0.64360462839E+02 -0.39008188331E+02  0.77783817055E+02  0.00000000000E+00 0. -1.
         -5    1    3    3    0  503  0.23527013462E+02 -0.45359013126E+02 -0.36058148879E+03  0.36421430572E+03  0.47000000000E+01 0.  1.
         11    1    4    4    0    0 -0.93446594728E+01  0.80006620102E+02 -0.21092609282E+03  0.22578352144E+03  0.00000000000E+00 0. -1.
        -12    1    4    4    0    0  0.36739998059E+02  0.31200700161E+01 -0.12420424370E+03  0.12956178621E+03  0.00000000000E+00 0.  1.
</event>
<event>
12    1  0.8526130E-002  0.2328138E+03  0.7818608E-02  0.1125123E+00
         21   -1    0    0  503  502  0.00000000000E+00  0.00000000000E+00  0.30586474201E+03  0.30586474201E+03  0.00000000000E+00 0.  1.
         21   -1    0    0  501  503 -0.00000000000E+00 -0.00000000000E+00 -0.29452024662E+03  0.29452024662E+03  0.00000000000E+00 0. -1.
          6    2    1    2  501    0 -0.12787966016E+03  0.84866801338E+02 -0.18537099256E+03  0.29559118756E+03  0.17162798091E+03 0.  0.
         24    2    3    3    0    0 -0.51460821747E+02  0.10491370130E+03 -0.70347010520E+02  0.15596911371E+03  0.75647614950E+02 0.  0.
         -6    2    1    2    0  502  0.12787966016E+03 -0.84866801338E+02  0.19671548796E+03  0.30479380107E+03  0.17506197907E+03 0.  0.
        -24    2    5    5    0    0  0.95817123187E+02 -0.63658674363E+02  0.44258041949E+02  0.14749423409E+03  0.81008807524E+02 0.  0.
          5    1    3    3  501    0 -0.76418838417E+02 -0.20046899959E+02 -0.11502398204E+03  0.13962207385E+03  0.47000000000E+01 0. -1.
        -13    1    4    4    0    0 -0.47678190525E+02  0.82121017131E+02 -0.85957828643E+02  0.12808520450E+03  0.00000000000E+00 0.  1.
         14    1    4    4    0    0 -0.37826312222E+01  0.22792684166E+02  0.15610818123E+02  0.27883909212E+02  0.00000000000E+00 0. -1.
         -5    1    5    5    0  502  0.32062536977E+02 -0.21208126975E+02  0.15245744601E+03  0.15729956697E+03  0.47000000000E+01 0.  1.
         11    1    6    6    0    0  0.33468526684E+02 -0.16032145586E+02  0.56992460041E+02  0.68009649845E+02  0.00000000000E+00 0. -1.
        -12    1    6    6    0    0  0.62348596502E+02 -0.47626528777E+02 -0.12734418091E+02  0.79484584249E+02  0.00000000000E+00 0.  1.
</event>
<event>
12    1  0.8526130E-002  0.1833806E+03  0.7818608E-02  0.1164695E+00
         21   -1    0    0  503  502  0.00000000000E+00  0.00000000000E+00  0.81861505560E+02  0.81861505560E+02  0.00000000000E+00 0.  1.
         21   -1    0    0  501  503 -0.00000000000E+00 -0.00000000000E+00 -0.45443148098E+03  0.45443148098E+03  0.00000000000E+00 0.  1.
          6    2    1    2  501    0 -0.58437010377E+02  0.22833762624E+02 -0.27072809572E+03  0.32698949577E+03  0.17231414230E+03 0.  0.
         24    2    3    3    0    0 -0.24398092609E+02 -0.25214710774E+02 -0.24305807920E+03  0.26175895436E+03  0.90606135332E+02 0.  0.
         -6    2    1    2    0  502  0.58437010377E+02 -0.22833762624E+02 -0.10184187971E+03  0.20930349078E+03  0.17175540135E+03 0.  0.
        -24    2    5    5    0    0  0.27016403408E+02 -0.33625743619E+02  0.11263505777E+02  0.91326206431E+02  0.79705914032E+02 0.  0.
          5    1    3    3  501    0 -0.34038917768E+02  0.48048473397E+02 -0.27670016517E+02  0.65230541410E+02  0.47000000000E+01 0. -1.
        -13    1    4    4    0    0 -0.45880547769E-01  0.28619914119E+02 -0.14061011372E+03  0.14349322516E+03  0.00000000000E+00 0.  1.
         14    1    4    4    0    0 -0.24352212061E+02 -0.53834624893E+02 -0.10244796549E+03  0.11826572919E+03  0.00000000000E+00 0. -1.
         -5    1    5    5    0  502  0.31420606969E+02  0.10791980995E+02 -0.11310538548E+03  0.11797728435E+03  0.47000000000E+01 0.  1.
         13    1    6    6    0    0 -0.20818536758E+02 -0.38256622805E+01 -0.18034149001E+02  0.27807871095E+02  0.00000000000E+00 0. -1.
        -14    1    6    6    0    0  0.47834940166E+02 -0.29800081338E+02  0.29297654778E+02  0.63518335336E+02  0.00000000000E+00 0.  1.
</event>
<event>
12    1  0.8526130E-002  0.2115997E+03  0.7818608E-02  0.1140321E+00
         21   -1    0    0  503  502  0.00000000000E+00  0.00000000000E+00  0.13385524853E+04  0.13385524853E+04  0.00000000000E+00 0.  1.
         21   -1    0    0  501  503 -0.00000000000E+00 -0.00000000000E+00 -0.74624045549E+02  0.74624045549E+02  0.00000000000E+00 0. -1.
          6    2    1    2  501    0 -0.10561467915E+03  0.64018611399E+02  0.10708269322E+03  0.23715211714E+03  0.17181845191E+03 0.  0.
         24    2    3    3    0    0 -0.41481451534E+02 -0.26309360893E+02  0.73369940629E+02  0.12126055942E+03  0.83114871052E+02 0.  0.
         -6    2    1    2    0  502  0.10561467915E+03 -0.64018611399E+02  0.11568457465E+04  0.11760244137E+04  0.17172215154E+03 0.  0.
        -24    2    5    5    0    0  0.84818519668E+01 -0.43610451121E+02  0.32037723191E+03  0.33367475646E+03  0.81996701848E+02 0.  0.
          5    1    3    3  501    0 -0.64133227620E+02  0.90327972292E+02  0.33712752594E+02  0.11589155772E+03  0.47000000000E+01 0. -1.
        -11    1    4    4    0    0  0.25015128019E+02 -0.54940840368E+01  0.11486623301E+02  0.28069273308E+02  0.00000000000E+00 0.  1.
         12    1    4    4    0    0 -0.66496579553E+02 -0.20815276856E+02  0.61883317328E+02  0.93191286107E+02  0.00000000000E+00 0. -1.
         -5    1    5    5    0  502  0.97132827187E+02 -0.20408160278E+02  0.83646851460E+03  0.84234965723E+03  0.47000000000E+01 0.  1.
         13    1    6    6    0    0  0.35990072202E+02  0.59548214498E+01  0.13277588096E+03  0.13769596857E+03  0.00000000000E+00 0. -1.
        -14    1    6    6    0    0 -0.27508220235E+02 -0.49565272571E+02  0.18760135095E+03  0.19597878789E+03  0.00000000000E+00 0.  1.
</event>
<event>
12    1  0.8526130E-002  0.2022501E+03  0.7818608E-02  0.1147984E+00
         21   -1    0    0  501  502  0.00000000000E+00  0.00000000000E+00  0.77199979919E+02  0.77199979919E+02  0.00000000000E+00 0. -1.
         21   -1    0    0  502  503 -0.00000000000E+00 -0.00000000000E+00 -0.10308984430E+04  0.10308984430E+04  0.00000000000E+00 0.  1.
         -6    2    1    2    0  503 -0.10957148032E+02 -0.10489430867E+03 -0.86335788350E+03  0.88658874995E+03  0.17184266479E+03 0.  0.
        -24    2    3    3    0    0 -0.73969117840E+02 -0.53718425890E+02 -0.54064003905E+03  0.55378493920E+03  0.77646683062E+02 0.  0.
          6    2    1    2  501    0  0.10957148032E+02  0.10489430867E+03 -0.90340579572E+02  0.22150967296E+03  0.17257531635E+03 0.  0.
         24    2    5    5    0    0  0.25883751295E+02  0.38143377400E+02 -0.11261124577E+03  0.14942248351E+03  0.86723123121E+02 0.  0.
          5    1    5    5  501    0 -0.14926603263E+02  0.66750931274E+02  0.22270666195E+02  0.72087189457E+02  0.47000000000E+01 0. -1.
        -13    1    6    6    0    0 -0.18596194734E+02 -0.93623756968E+00  0.36302326116E+01  0.18970334424E+02  0.00000000000E+00 0.  1.
         14    1    6    6    0    0  0.44479946028E+02  0.39079614970E+02 -0.11624147838E+03  0.13045214908E+03  0.00000000000E+00 0. -1.
         -5    1    3    3    0  503  0.63011969809E+02 -0.51175882784E+02 -0.32271784446E+03  0.33280381075E+03  0.47000000000E+01 0.  1.
         11    1    4    4    0    0 -0.13290872975E+02 -0.41145140515E+02 -0.10195273117E+03  0.11074262632E+03  0.00000000000E+00 0. -1.
        -12    1    4    4    0    0 -0.60678244865E+02 -0.12573285375E+02 -0.43868730788E+03  0.44304231288E+03  0.00000000000E+00 0.  1.
</event>
<event>
12    1  0.8526130E-002  0.2102137E+03  0.7818608E-02  0.1141524E+00
         21   -1    0    0  501  502  0.00000000000E+00  0.00000000000E+00  0.72808719109E+02  0.72808719109E+02  0.00000000000E+00 0. -1.
         21   -1    0    0  502  503 -0.00000000000E+00 -0.00000000000E+00 -0.66829462722E+03  0.66829462722E+03  0.00000000000E+00 0. -1.
         -6    2    1    2    0  503 -0.95041301851E+02  0.73052508327E+02 -0.18418999670E+03  0.27949197765E+03  0.17268553111E+03 0.  0.
        -24    2    3    3    0    0 -0.11244941593E+03  0.54278136673E+02 -0.80722526900E+02  0.17280024051E+03  0.88050039784E+02 0.  0.
          6    2    1    2  501    0  0.95041301851E+02 -0.73052508327E+02 -0.41129591141E+03  0.46161136868E+03  0.17190465649E+03 0.  0.
         24    2    5    5    0    0  0.11694643312E+03 -0.98488968061E+02 -0.31084546693E+03  0.35559613366E+03  0.80294214706E+02 0.  0.
          5    1    5    5  501    0 -0.21905131272E+02  0.25436459735E+02 -0.10045044448E+03  0.10601523502E+03  0.47000000000E+01 0. -1.
        -13    1    6    6    0    0  0.68425283273E+02 -0.92690232300E+02 -0.26336118132E+03  0.28745888468E+03  0.00000000000E+00 0.  1.
         14    1    6    6    0    0  0.48521149849E+02 -0.57987357613E+01 -0.47484285610E+02  0.68137248983E+02  0.00000000000E+00 0. -1.
         -5    1    3    3    0  503  0.17408114081E+02  0.18774371654E+02 -0.10346746980E+03  0.10669173714E+03  0.47000000000E+01 0.  1.
         13    1    4    4    0    0 -0.90224822708E+02  0.19366232383E+02 -0.91584761990E+02  0.13001283867E+03  0.00000000000E+00 0. -1.
        -14    1    4    4    0    0 -0.22224593224E+02  0.34911904290E+02  0.10862235090E+02  0.42787401840E+02  0.00000000000E+00 0.  1.
</event>
<event>
12    1  0.8526130E-002  0.1768480E+03  0.7818608E-02  0.1171003E+00
         21   -1    0    0  501  502  0.00000000000E+00  0.00000000000E+00  0.27130051011E+03  0.27130051011E+03  0.00000000000E+00 0.  1.
         21   -1    0    0  502  503 -0.00000000000E+00 -0.00000000000E+00 -0.12279238660E+03  0.12279238660E+03  0.00000000000E+00 0.  1.
         -6    2    1    2    0  503  0.41617073041E+02  0.42196529783E+01  0.24641553201E+02  0.17855644784E+03  0.17182960362E+03 0.  0.
        -24    2    3    3    0    0  0.54528345951E+02  0.51607939291E+02 -0.20479143379E+02  0.11169601180E+03  0.80124177552E+02 0.  0.
          6    2    1    2  501    0 -0.41617073041E+02 -0.42196529783E+01  0.12386657032E+03  0.21553644887E+03  0.17135707546E+03 0.  0.
         24    2    5    5    0    0  0.19314628201E+02 -0.50494963472E+01 -0.47666666504E+01  0.73121700656E+02  0.70181975748E+02 0.  0.
          5    1    5    5  501    0 -0.60931701241E+02  0.82984336889E+00  0.12863323697E+03  0.14241474821E+03  0.47000000000E+01 0. -1.
        -11    1    6    6    0    0 -0.87221529007E+01 -0.93316026007E+01 -0.31596205410E+02  0.34080418933E+02  0.00000000000E+00 0.  1.
         12    1    6    6    0    0  0.28036781101E+02  0.42821062535E+01  0.26829538760E+02  0.39041281723E+02  0.00000000000E+00 0. -1.
         -5    1    3    3    0  503 -0.12911272910E+02 -0.47388286313E+02  0.45120696579E+02  0.66860436041E+02  0.47000000000E+01 0.  1.
         13    1    4    4    0    0 -0.40804750779E+01 -0.17922635185E+02  0.43033223065E+00  0.18386307804E+02  0.00000000000E+00 0. -1.
        -14    1    4    4    0    0  0.58608821029E+02  0.69530574476E+02 -0.20909475609E+02  0.93309703995E+02  0.00000000000E+00 0.  1.
</event>
<event>
12    1  0.8526130E-002  0.2080021E+03  0.7818608E-02  0.1143428E+00
         21   -1    0    0  501  502  0.00000000000E+00  0.00000000000E+00  0.46010884148E+03  0.46010884148E+03  0.00000000000E+00 0. -1.
         21   -1    0    0  502  503 -0.00000000000E+00 -0.00000000000E+00 -0.17097126361E+03  0.17097126361E+03  0.00000000000E+00 0.  1.
         -6    2    1    2    0  503  0.74414516044E+02 -0.86594128199E+02 -0.67681548215E+02  0.21873654794E+03  0.17386437876E+03 0.  0.
        -24    2    3    3    0    0  0.83170931540E+02  0.77965518793E+01 -0.12107214589E+02  0.10875076770E+03  0.68570801040E+02 0.  0.
          6    2    1    2  501    0 -0.74414516044E+02  0.86594128199E+02  0.35681912608E+03  0.41234355715E+03  0.17225346774E+03 0.  0.
         24    2    5    5    0    0  0.11352627754E+01  0.90608201799E+01  0.24068770677E+03  0.25351100544E+03  0.79081416296E+02 0.  0.
          5    1    5    5  501    0 -0.75549778819E+02  0.77533308019E+02  0.11613141930E+03  0.15883255171E+03  0.47000000000E+01 0. -1.
        -13    1    6    6    0    0  0.27740198684E+02  0.69003993054E+01  0.31143458551E+02  0.42273504044E+02  0.00000000000E+00 0.  1.
         14    1    6    6    0    0 -0.26604935909E+02  0.21604208745E+01  0.20954424822E+03  0.21123750140E+03  0.00000000000E+00 0. -1.
         -5    1    3    3    0  503 -0.87564154958E+01 -0.94390680079E+02 -0.55574333626E+02  0.10998578024E+03  0.47000000000E+01 0.  1.
         11    1    4    4    0    0  0.39932332598E+02 -0.15138566714E+02  0.23010989549E+02  0.48510545543E+02  0.00000000000E+00 0. -1.
        -12    1    4    4    0    0  0.43238598942E+02  0.22935118593E+02 -0.35118204138E+02  0.60240222154E+02  0.00000000000E+00 0.  1.
</event>
<event>
12    1  0.8526130E-002  0.1852950E+03  0.7818608E-02  0.1163184E+00
         21   -1    0    0  501  502  0.00000000000E+00  0.00000000000E+00  0.34317263063E+03  0.34317263063E+03  0.00000000000E+00 0.  1.
         21   -1    0    0  502  503 -0.00000000000E+00 -0.00000000000E+00 -0.20895577126E+03  0.20895577126E+03  0.00000000000E+00 0.  1.
         -6    2    1    2    0  503  0.47607008101E+02  0.44335448976E+02 -0.13320179042E+03  0.22678709639E+03  0.17163219645E+03 0.  0.
        -24    2    3    3    0    0 -0.69089644573E+01 -0.21797966844E+02 -0.10961233455E+03  0.13776927581E+03  0.80265959924E+02 0.  0.
          6    2    1    2  501    0 -0.47607008101E+02 -0.44335448976E+02  0.26741864979E+03  0.32534130550E+03  0.17349977393E+03 0.  0.
         24    2    5    5    0    0  0.76857466434E+01 -0.14171333392E+01  0.23482960674E+03  0.24798882480E+03  0.79324864030E+02 0.  0.
          5    1    5    5  501    0 -0.55292754745E+02 -0.42918315637E+02  0.32589043047E+02  0.77352480704E+02  0.47000000000E+01 0. -1.
        -13    1    6    6    0    0 -0.33176789706E+02 -0.12647762006E+01  0.61307348411E+02  0.69720083213E+02  0.00000000000E+00 0.  1.
         14    1    6    6    0    0  0.40862536350E+02 -0.15235713862E+00  0.17352225833E+03  0.17826874159E+03  0.00000000000E+00 0. -1.
         -5    1    3    3    0  503  0.54515972559E+02  0.66133415820E+02 -0.23589455874E+02  0.89017820578E+02  0.47000000000E+01 0.  1.
         11    1    4    4    0    0 -0.26452069413E+00 -0.42619816242E+02 -0.22977240344E+02  0.48419750944E+02  0.00000000000E+00 0. -1.
        -12    1    4    4    0    0 -0.66444437631E+01  0.20821849397E+02 -0.86635094205E+02  0.89349524862E+02  0.00000000000E+00 0.  1.
</event>
<event>
12    1  0.8526130E-002  0.1842971E+03  0.7818608E-02  0.1163864E+00
         21   -1    0    0  501  502  0.00000000000E+00  0.00000000000E+00  0.58488924858E+02  0.58488924858E+02  0.00000000000E+00 0.  1.
         21   -1    0    0  502  503 -0.00000000000E+00 -0.00000000000E+00 -0.70961426669E+03  0.70961426669E+03  0.00000000000E+00 0.  1.
         -6    2    1    2    0  503 -0.14587857811E+02 -0.64915062497E+02 -0.49008920304E+03  0.52336239234E+03  0.17115488847E+03 0.  0.
        -24    2    3    3    0    0 -0.29486196325E+02 -0.86687610320E+02 -0.21363498628E+03  0.24561245392E+03  0.79381311404E+02 0.  0.
          6    2    1    2  501    0  0.14587857811E+02  0.64915062497E+02 -0.16103613879E+03  0.24474079921E+03  0.17186811765E+03 0.  0.
         24    2    5    5    0    0  0.55167070170E+00 -0.12983630113E+01 -0.10660053481E+02  0.79767197381E+02  0.79039097608E+02 0.  0.
          5    1    5    5  501    0  0.14036187110E+02  0.66213425508E+02 -0.15037608531E+03  0.16497360183E+03  0.47000000000E+01 0. -1.
        -11    1    6    6    0    0  0.31258081991E+02  0.21566886125E+02 -0.15813982279E+02  0.41137334653E+02  0.00000000000E+00 0.  1.
         12    1    6    6    0    0 -0.30706411289E+02 -0.22865249136E+02  0.51539287985E+01  0.38629862728E+02  0.00000000000E+00 0. -1.
         -5    1    3    3    0  503  0.14898338514E+02  0.21772547823E+02 -0.27645421676E+03  0.27774993842E+03  0.47000000000E+01 0.  1.
         11    1    4    4    0    0  0.17871020221E+01 -0.89726571235E+02 -0.16012805194E+03  0.18356209940E+03  0.00000000000E+00 0. -1.
        -12    1    4    4    0    0 -0.31273298347E+02  0.30389609156E+01 -0.53506934340E+02  0.62050354515E+02  0.00000000000E+00 0.  1.
</event>
<event>
12    1  0.8526130E-002  0.1728303E+03  0.7818608E-02  0.1176815E+00
         21   -1    0    0  503  502  0.00000000000E+00  0.00000000000E+00  0.73231469300E+02  0.73231469300E+02  0.00000000000E+00 0. -1.
         21   -1    0    0  501  503 -0.00000000000E+00 -0.00000000000E+00 -0.40294212162E+03  0.40294212162E+03  0.00000000000E+00 0. -1.
          6    2    1    2  501    0  0.59145677318E+01  0.11776245320E+02 -0.20240045216E+03  0.26151525954E+03  0.16507763589E+03 0.  0.
         24    2    3    3    0    0  0.46348164171E+02  0.94759018872E+01 -0.56664297766E+02  0.11018355765E+03  0.81802375855E+02 0.  0.
         -6    2    1    2    0  502 -0.59145677318E+01 -0.11776245320E+02 -0.12731020015E+03  0.21465833138E+03  0.17232716008E+03 0.  0.
        -24    2    5    5    0    0 -0.50067070987E+02 -0.56451169825E+02 -0.80193890083E+02  0.13599875410E+03  0.79819514762E+02 0.  0.
          5    1    3    3  501    0 -0.40433596439E+02  0.23003434328E+01 -0.14573615440E+03  0.15133170190E+03  0.47000000000E+01 0. -1.
        -11    1    4    4    0    0 -0.68219569924E+01 -0.92941908567E+01  0.15048952220E+02  0.18957638139E+02  0.00000000000E+00 0.  1.
         12    1    4    4    0    0  0.53170121163E+02  0.18770092744E+02 -0.71713249987E+02  0.91225919506E+02  0.00000000000E+00 0. -1.
         -5    1    5    5    0  502  0.44152503255E+02  0.44674924505E+02 -0.47116310071E+02  0.78659577281E+02  0.47000000000E+01 0.  1.
         11    1    6    6    0    0 -0.28370659505E+02 -0.47722310961E+02 -0.32882356979E+01  0.55615877033E+02  0.00000000000E+00 0. -1.
        -12    1    6    6    0    0 -0.21696411482E+02 -0.87288588645E+01 -0.76905654386E+02  0.80382877062E+02  0.00000000000E+00 0.  1.
</event>
<event>
12    1  0.8526130E-002  0.1831086E+03  0.7818608E-02  0.1165291E+00
         21   -1    0    0  503  502  0.00000000000E+00  0.00000000000E+00  0.15659287139E+03  0.15659287139E+03  0.00000000000E+00 0.  1.
         21   -1    0    0  501  503 -0.00000000000E+00 -0.00000000000E+00 -0.21855808422E+03  0.21855808422E+03  0.00000000000E+00 0.  1.
          6    2    1    2  501    0  0.91752914263E+01  0.62267900840E+02  0.20527608474E+01  0.18117398041E+03  0.16987736725E+03 0.  0.
         24    2    3    3    0    0  0.33359345977E+01 -0.25817181502E+02 -0.20961488813E+02  0.89823963956E+02  0.83374487507E+02 0.  0.
         -6    2    1    2    0  502 -0.91752914263E+01 -0.62267900840E+02 -0.64017973673E+02  0.19397697520E+03  0.17195141321E+03 0.  0.
        -24    2    5    5    0    0 -0.98556257499E+01 -0.56337878770E+02  0.27759841608E+02  0.10188525247E+03  0.79617246387E+02 0.  0.
          5    1    3    3  501    0  0.58393568286E+01  0.88085082342E+02  0.23014249660E+02  0.91350016458E+02  0.47000000000E+01 0. -1.
        -13    1    4    4    0    0  0.32025567048E+02  0.19357453589E+01  0.15616509092E+02  0.35682760698E+02  0.00000000000E+00 0.  1.
         14    1    4    4    0    0 -0.28689632450E+02 -0.27752926861E+02 -0.36577997904E+02  0.54141203258E+02  0.00000000000E+00 0. -1.
         -5    1    5    5    0  502  0.68033432358E+00 -0.59300220701E+01 -0.91777815281E+02  0.92091722724E+02  0.47000000000E+01 0.  1.
         13    1    6    6    0    0  0.24374560724E+02  0.66831381688E+01  0.85873246848E+00  0.25288751803E+02  0.00000000000E+00 0. -1.
        -14    1    6    6    0    0 -0.34230186474E+02 -0.63021016939E+02  0.26901109140E+02  0.76596500671E+02  0.00000000000E+00 0.  1.
</event>
<event>
12    1  0.8526130E-002  0.2309556E+03  0.7818608E-02  0.1126271E+00
         21   -1    0    0  503  502  0.00000000000E+00  0.00000000000E+00  0.10465126594E+04  0.10465126594E+04  0.00000000000E+00 0. -1.
         21   -1    0    0  501  503 -0.00000000000E+00 -0.00000000000E+00 -0.75507571713E+02  0.75507571713E+02  0.00000000000E+00 0. -1.
          6    2    1    2  501    0  0.27944476968E+02  0.15197349163E+03  0.16445108227E+03  0.28352183726E+03  0.17164975325E+03 0.  0.
         24    2    3    3    0    0  0.57140667747E+02  0.59690511733E+02  0.33560387614E+02  0.12066291094E+03  0.81272537535E+02 0.  0.
         -6    2    1    2    0  502 -0.27944476968E+02 -0.15197349163E+03  0.80655400545E+03  0.83849839389E+03  0.16933209059E+03 0.  0.
        -24    2    5    5    0    0 -0.20156874624E+02 -0.18101354868E+03  0.70546823950E+03  0.73293138322E+03  0.79566143341E+02 0.  0.
          5    1    3    3  501    0 -0.29196190779E+02  0.92282979892E+02  0.13089069466E+03  0.16285892632E+03  0.47000000000E+01 0. -1.
        -13    1    4    4    0    0  0.81508159945E+01 -0.20426702882E+02  0.65280848631E+01  0.22941270322E+02  0.00000000000E+00 0.  1.
         14    1    4    4    0    0  0.48989851753E+02  0.80117214615E+02  0.27032302750E+02  0.97721640615E+02  0.00000000000E+00 0. -1.
         -5    1    5    5    0  502 -0.77876023437E+01  0.29040057059E+02  0.10108576595E+03  0.10556701067E+03  0.47000000000E+01 0.  1.
         13    1    6    6    0    0 -0.44833753701E+02 -0.78920698425E+02  0.39057932911E+03  0.40098722479E+03  0.00000000000E+00 0. -1.
        -14    1    6    6    0    0  0.24676879078E+02 -0.10209285026E+03  0.31488891038E+03  0.33194415843E+03  0.00000000000E+00 0.  1.
</event>
<event>
12    1  0.8526130E-002  0.1862140E+03  0.7818608E-02  0.1162134E+00
         21   -1    0    0  501  502  0.00000000000E+00  0.00000000000E+00  0.43923145387E+03  0.43923145387E+03  0.00000000000E+00 0. -1.
         21   -1    0    0  502  503 -0.00000000000E+00 -0.00000000000E+00 -0.83387447663E+02  0.83387447663E+02  0.00000000000E+00 0.  1.
         -6    2    1    2    0  503 -0.65133088642E+02 -0.24594848218E+02  0.11544916958E+03  0.21909851374E+03  0.17270906801E+03 0.  0.
        -24    2    3    3    0    0  0.30574482432E+02 -0.89620361126E+01  0.36995711754E+02  0.94273199725E+02  0.80645126518E+02 0.  0.
          6    2    1    2  501    0  0.65133088642E+02  0.24594848218E+02  0.24039483663E+03  0.30352038779E+03  0.17171989556E+03 0.  0.
         24    2    5    5    0    0 -0.54643071395E+01  0.45922892736E+02  0.19499170517E+03  0.21678854750E+03  0.82684572385E+02 0.  0.
          5    1    5    5  501    0  0.70597395782E+02 -0.21328044518E+02  0.45403131454E+02  0.86731840289E+02  0.47000000000E+01 0. -1.
        -13    1    6    6    0    0  0.19713683818E+01  0.86414303708E+01 -0.69727378308E+01  0.11277397085E+02  0.00000000000E+00 0.  1.
         14    1    6    6    0    0 -0.74356755212E+01  0.37281462365E+02  0.20196444300E+03  0.20551115041E+03  0.00000000000E+00 0. -1.
         -5    1    3    3    0  503 -0.95707571074E+02 -0.15632812106E+02  0.78453457824E+02  0.12482531402E+03  0.47000000000E+01 0.  1.
         11    1    4    4    0    0 -0.13812090689E+02  0.12525728581E+02  0.40753046327E+02  0.44816051931E+02  0.00000000000E+00 0. -1.
        -12    1    4    4    0    0  0.44386573120E+02 -0.21487764694E+02 -0.37573345735E+01  0.49457147795E+02  0.00000000000E+00 0.  1.
</event>
<event>
12    1  0.8526130E-002  0.1876229E+03  0.7818608E-02  0.1161335E+00
         21   -1    0    0  503  502  0.00000000000E+00  0.00000000000E+00  0.14908566695E+03  0.14908566695E+03  0.00000000000E+00 0. -1.
         21   -1    0    0  501  503 -0.00000000000E+00 -0.00000000000E+00 -0.39305203673E+03  0.39305203673E+03  0.00000000000E+00 0. -1.
          6    2    1    2  501    0  0.27475658325E+00  0.67833446057E+02 -0.29475616936E+03  0.34776188179E+03  0.17162655727E+03 0.  0.
         24    2    3    3    0    0  0.50648754923E+02  0.69069505994E+02 -0.12379977738E+03  0.16947210219E+03  0.77836466442E+02 0.  0.
         -6    2    1    2    0  502 -0.27475658325E+00 -0.67833446057E+02  0.50789799567E+02  0.19437582189E+03  0.17493114217E+03 0.  0.
        -24    2    5    5    0    0 -0.27324008776E+02 -0.10825365694E+03  0.50938759358E+02  0.14551307860E+03  0.78191068177E+02 0.  0.
          5    1    3    3  501    0 -0.50373998340E+02 -0.12360599367E+01 -0.17095639198E+03  0.17828977960E+03  0.47000000000E+01 0. -1.
        -11    1    4    4    0    0 -0.84463956511E+01 -0.44749337274E+01  0.42157396578E+01  0.10446965695E+02  0.00000000000E+00 0.  1.
         12    1    4    4    0    0  0.59095150575E+02  0.73544439721E+02 -0.12801551704E+03  0.15902513650E+03  0.00000000000E+00 0. -1.
         -5    1    5    5    0  502  0.27049252193E+02  0.40420210887E+02 -0.14895979100E+00  0.48862743285E+02  0.47000000000E+01 0.  1.
         11    1    6    6    0    0  0.25953873578E+01 -0.10438681770E+03  0.29510265961E+02  0.10850898370E+03  0.00000000000E+00 0. -1.
        -12    1    6    6    0    0 -0.29919396134E+02 -0.38668392414E+01  0.21428493397E+02  0.37004094909E+02  0.00000000000E+00 0.  1.
</event>
<event>
12    1  0.8526130E-002  0.4503798E+03  0.7818608E-02  0.1027665E+00
         21   -1    0    0  503  502  0.00000000000E+00  0.00000000000E+00  0.28864226206E+03  0.28864226206E+03  0.00000000000E+00 0.  1.
         21   -1    0    0  501  503 -0.00000000000E+00 -0.00000000000E+00 -0.70921841729E+03  0.70921841729E+03  0.00000000000E+00 0. -1.
          6    2    1    2  501    0  0.41571214343E+03  0.24831827114E+02 -0.15861649690E+03  0.47749467606E+03  0.17148984444E+03 0.  0.
         24    2    3    3    0    0  0.28577740587E+03  0.50520649790E+02 -0.49625168840E+02  0.30590169477E+03  0.83018839570E+02 0.  0.
         -6    2    1    2    0  502 -0.41571214343E+03 -0.24831827114E+02 -0.26195965833E+03  0.52036600328E+03  0.16948365391E+03 0.  0.
        -24    2    5    5    0    0 -0.29363392032E+03  0.48946783616E+02 -0.21312801480E+03  0.36952504276E+03  0.50085324682E+02 0.  0.
          5    1    3    3  501    0  0.12993473756E+03 -0.25688822675E+02 -0.10899132806E+03  0.17159298129E+03  0.47000000000E+01 0. -1.
        -11    1    4    4    0    0  0.48709881876E+02  0.39151080640E+02 -0.24921248540E+02  0.67279479312E+02  0.00000000000E+00 0.  1.
         12    1    4    4    0    0  0.23706752399E+03  0.11369569150E+02 -0.24703920301E+02  0.23862221546E+03  0.00000000000E+00 0. -1.
         -5    1    5    5    0  502 -0.12207822311E+03 -0.73778610730E+02 -0.48831643531E+02  0.15084096052E+03  0.47000000000E+01 0.  1.
         13    1    6    6    0    0 -0.47581429049E+02  0.18347445625E+02 -0.57157297301E+02  0.76600116096E+02  0.00000000000E+00 0. -1.
        -14    1    6    6    0    0 -0.24605249127E+03  0.30599337991E+02 -0.15597071750E+03  0.29292492667E+03  0.00000000000E+00 0.  1.
</event>
<event>
12    1  0.8526130E-002  0.1815562E+03  0.7818608E-02  0.1166386E+00
         21   -1    0    0  501  502  0.00000000000E+00  0.00000000000E+00  0.44355604152E+03  0.44355604152E+03  0.00000000000E+00 0. -1.
         21   -1    0    0  502  503 -0.00000000000E+00 -0.00000000000E+00 -0.78355855758E+02  0.78355855758E+02  0.00000000000E+00 0. -1.
         -6    2    1    2    0  503  0.29222522547E+02  0.46984225644E+02  0.12249599273E+03  0.21901582702E+03  0.17291960839E+03 0.  0.
        -24    2    3    3    0    0  0.82419755872E+02  0.11483264440E+02  0.96036246939E+02  0.14964384400E+03  0.79028082361E+02 0.  0.
          6    2    1    2  501    0 -0.29222522547E+02 -0.46984225644E+02  0.24270419302E+03  0.30289607026E+03  0.17256659811E+03 0.  0.
         24    2    5    5    0    0 -0.55049577313E+01  0.34607939373E+02  0.17354408994E+03  0.19323744483E+03  0.77428321062E+02 0.  0.
          5    1    5    5  501    0 -0.23717564816E+02 -0.81592165017E+02  0.69160103081E+02  0.10965862543E+03  0.47000000000E+01 0. -1.
        -13    1    6    6    0    0  0.19046539838E+02 -0.18346152381E+02  0.48500284242E+02  0.55241556446E+02  0.00000000000E+00 0.  1.
         14    1    6    6    0    0 -0.24551497570E+02  0.52954091754E+02  0.12504380570E+03  0.13799588838E+03  0.00000000000E+00 0. -1.
         -5    1    3    3    0  503 -0.53197233325E+02  0.35500961204E+02  0.26459745796E+02  0.69371983015E+02  0.47000000000E+01 0.  1.
         11    1    4    4    0    0  0.23120363762E+01 -0.20479755827E+02  0.62993294080E-01  0.20609946121E+02  0.00000000000E+00 0. -1.
        -12    1    4    4    0    0  0.80107719496E+02  0.31963020267E+02  0.95973253645E+02  0.12903389788E+03  0.00000000000E+00 0.  1.
</event>
<event>
12    1  0.8526130E-002  0.2436736E+03  0.7818608E-02  0.1117644E+00
         21   -1    0    0  503  502  0.00000000000E+00  0.00000000000E+00  0.44391484887E+03  0.44391484887E+03  0.00000000000E+00 0. -1.
         21   -1    0    0  501  503 -0.00000000000E+00 -0.00000000000E+00 -0.36120981007E+03  0.36120981007E+03  0.00000000000E+00 0.  1.
          6    2    1    2  501    0 -0.65196234966E+01  0.17085411127E+03 -0.27879083694E+03  0.36917044743E+03  0.17125669525E+03 0.  0.
         24    2    3    3    0    0  0.10718341583E+02  0.18616444248E+03 -0.19143505072E+03  0.27870124235E+03  0.79088060745E+02 0.  0.
         -6    2    1    2    0  502  0.65196234966E+01 -0.17085411127E+03  0.36149587574E+03  0.43595421150E+03  0.17361789517E+03 0.  0.
        -24    2    5    5    0    0  0.67157624708E+02 -0.95983424151E+02  0.26153864004E+03  0.29704371532E+03  0.78163574063E+02 0.  0.
          5    1    3    3  501    0 -0.17237965080E+02 -0.15310331212E+02 -0.87355786221E+02  0.90469205083E+02  0.47000000000E+01 0. -1.
        -11    1    4    4    0    0 -0.12666329091E+02  0.12037071308E+03 -0.16366046686E+03  0.20355415219E+03  0.00000000000E+00 0.  1.
         12    1    4    4    0    0  0.23384670674E+02  0.65793729399E+02 -0.27774583856E+02  0.75147090158E+02  0.00000000000E+00 0. -1.
         -5    1    5    5    0  502 -0.60638001211E+02 -0.74870687119E+02  0.99957235705E+02  0.13891049618E+03  0.47000000000E+01 0.  1.
         11    1    6    6    0    0 -0.37304456268E+01 -0.55492276501E+02  0.13989248813E+03  0.15054307427E+03  0.00000000000E+00 0. -1.
        -12    1    6    6    0    0  0.70888070335E+02 -0.40491147651E+02  0.12164615191E+03  0.14650064105E+03  0.00000000000E+00 0.  1.
</event>
<event>
12    1  0.8526130E-002  0.1768324E+03  0.7818608E-02  0.1171492E+00
         21   -1    0    0  503  502  0.00000000000E+00  0.00000000000E+00  0.16219052389E+03  0.16219052389E+03  0.00000000000E+00 0. -1.
         21   -1    0    0  501  503 -0.00000000000E+00 -0.00000000000E+00 -0.29231861993E+03  0.29231861993E+03  0.00000000000E+00 0. -1.
          6    2    1    2  501    0  0.31687710757E+02 -0.17085863482E+02 -0.19907432693E+03  0.26471112874E+03  0.17072011097E+03 0.  0.
         24    2    3    3    0    0 -0.28740157536E+02 -0.56828474668E+02 -0.11039557815E+03  0.15018160025E+03  0.79447197492E+02 0.  0.
         -6    2    1    2    0  502 -0.31687710757E+02  0.17085863482E+02  0.68946230901E+02  0.18979801508E+03  0.17312904444E+03 0.  0.
        -24    2    5    5    0    0  0.22526665135E+02 -0.40264486342E+02  0.24329704007E+02  0.99018140384E+02  0.84166371702E+02 0.  0.
          5    1    3    3  501    0  0.60427868294E+02  0.39742611187E+02 -0.88678748784E+02  0.11452952849E+03  0.47000000000E+01 0. -1.
        -13    1    4    4    0    0 -0.29087144608E+01 -0.63807052114E+01  0.12788299641E+02  0.14584739508E+02  0.00000000000E+00 0.  1.
         14    1    4    4    0    0 -0.25831443075E+02 -0.50447769457E+02 -0.12318387779E+03  0.13559686074E+03  0.00000000000E+00 0. -1.
         -5    1    5    5    0  502 -0.54214375893E+02  0.57350349824E+02  0.44616526894E+02  0.90779874699E+02  0.47000000000E+01 0.  1.
         13    1    6    6    0    0 -0.12704022348E+02 -0.41454596386E+01  0.43145942408E+02  0.45168012639E+02  0.00000000000E+00 0. -1.
        -14    1    6    6    0    0  0.35230687484E+02 -0.36119026703E+02 -0.18816238401E+02  0.53850127745E+02  0.00000000000E+00 0.  1.
</event>
<event>
12    1  0.8526130E-002  0.3297768E+03  0.7818608E-02  0.1071358E+00
         21   -1    0    0  503  502  0.00000000000E+00  0.00000000000E+00  0.40047423987E+03  0.40047423987E+03  0.00000000000E+00 0. -1.
         21   -1    0    0  501  503 -0.00000000000E+00 -0.00000000000E+00 -0.27097008925E+03  0.27097008925E+03  0.00000000000E+00 0.  1.
          6    2    1    2  501    0 -0.11206174937E+03 -0.25706501029E+03  0.76345484269E+02  0.33849869036E+03  0.17352946499E+03 0.  0.
         24    2    3    3    0    0 -0.65866371167E+02 -0.93761609288E+02  0.92125587514E+02  0.16799028762E+03  0.81264965597E+02 0.  0.
         -6    2    1    2    0  502  0.11206174937E+03  0.25706501029E+03  0.53158666357E+02  0.33294563876E+03  0.17142549219E+03 0.  0.
        -24    2    5    5    0    0  0.12238245640E+03  0.21385992686E+03 -0.59482413822E+01  0.25885844168E+03  0.79112434576E+02 0.  0.
          5    1    3    3  501    0 -0.46195378198E+02 -0.16330340100E+03 -0.15780103245E+02  0.17050840274E+03  0.47000000000E+01 0. -1.
        -13    1    4    4    0    0 -0.25505152136E+02  0.31571671510E+01 -0.35547649509E+01  0.25944495443E+02  0.00000000000E+00 0.  1.
         14    1    4    4    0    0 -0.40361219031E+02 -0.96918776439E+02  0.95680352465E+02  0.14204579218E+03  0.00000000000E+00 0. -1.
         -5    1    5    5    0  502 -0.10320707030E+02  0.43205083433E+02  0.59106907739E+02  0.74087197076E+02  0.47000000000E+01 0.  1.
         13    1    6    6    0    0  0.11587204092E+02 -0.56519576427E+01 -0.78240627936E+00  0.12915884927E+02  0.00000000000E+00 0. -1.
        -14    1    6    6    0    0  0.11079525230E+03  0.21951188450E+03 -0.51658351028E+01  0.24594255675E+03  0.00000000000E+00 0.  1.
</event>
<event>
12    1  0.8526130E-002  0.1951619E+03  0.7818608E-02  0.1153896E+00
         21   -1    0    0  501  502  0.00000000000E+00  0.00000000000E+00  0.17030961466E+03  0.17030961466E+03  0.00000000000E+00 0.  1.
         21   -1    0    0  502  503 -0.00000000000E+00 -0.00000000000E+00 -0.24768208292E+03  0.24768208292E+03  0.00000000000E+00 0. -1.
         -6    2    1    2    0  503  0.65878400361E+02 -0.69891948248E+02 -0.10386683860E+03  0.22103966559E+03  0.16983923440E+03 0.  0.
        -24    2    3    3    0    0  0.13713481593E+02  0.36330947441E+01 -0.99193583311E+02  0.13064586043E+03  0.83831467375E+02 0.  0.
          6    2    1    2  501    0 -0.65878400361E+02  0.69891948248E+02  0.26494370341E+02  0.19695203199E+03  0.16989203389E+03 0.  0.
         24    2    5    5    0    0  0.20229438621E+02  0.14301219604E+02  0.47290509252E+02  0.92264599889E+02  0.75250309357E+02 0.  0.
          5    1    5    5  501    0 -0.86107838982E+02  0.55590728644E+02 -0.20796138912E+02  0.10468743210E+03  0.47000000000E+01 0. -1.
        -13    1    6    6    0    0  0.31220633328E+01 -0.30671370961E+02  0.14741306738E+02  0.34172889846E+02  0.00000000000E+00 0.  1.
         14    1    6    6    0    0  0.17107375288E+02  0.44972590565E+02  0.32549202514E+02  0.58091710043E+02  0.00000000000E+00 0. -1.
         -5    1    3    3    0  503  0.52164918768E+02 -0.73525042992E+02 -0.46732552846E+01  0.90393805164E+02  0.47000000000E+01 0.  1.
         11    1    4    4    0    0 -0.19993911854E+01  0.37362124935E+02 -0.18399000318E+02  0.41694713783E+02  0.00000000000E+00 0. -1.
        -12    1    4    4    0    0  0.15712872779E+02 -0.33729030191E+02 -0.80794582992E+02  0.88951146645E+02  0.00000000000E+00 0.  1.
</event>
<event>
12    1  0.8526130E-002  0.2093464E+03  0.7818608E-02  0.1142205E+00
         21   -1    0    0  501  502  0.00000000000E+00  0.00000000000E+00  0.52152905388E+02  0.52152905388E+02  0.00000000000E+00 0. -1.
         21   -1    0    0  502  503 -0.00000000000E+00 -0.00000000000E+00 -0.86583718238E+03  0.86583718238E+03  0.00000000000E+00 0.  1.
         -6    2    1    2    0  503  0.60219398713E+02 -0.10366991414E+03 -0.32498299434E+03  0.38657454065E+03  0.17161614664E+03 0.  0.
        -24    2    3    3    0    0  0.42628859543E+02 -0.94486601695E+02 -0.10828071711E+03  0.16891488142E+03  0.77862609143E+02 0.  0.
          6    2    1    2  501    0 -0.60219398713E+02  0.10366991414E+03 -0.48870128265E+03  0.53141554712E+03  0.17087923507E+03 0.  0.
         24    2    5    5    0    0 -0.83763697980E+02  0.21523670962E+02 -0.34450828537E+03  0.36373713539E+03  0.78352533224E+02 0.  0.
          5    1    5    5  501    0  0.23544299267E+02  0.82146243174E+02 -0.14419299728E+03  0.16767841173E+03  0.47000000000E+01 0. -1.
        -13    1    6    6    0    0 -0.50785413372E+02  0.50285040945E+02 -0.24061745518E+03  0.25100697857E+03  0.00000000000E+00 0.  1.
         14    1    6    6    0    0 -0.32978284608E+02 -0.28761369983E+02 -0.10389083020E+03  0.11273015683E+03  0.00000000000E+00 0. -1.
         -5    1    3    3    0  503  0.17590539170E+02 -0.91833124404E+01 -0.21670227723E+03  0.21765965922E+03  0.47000000000E+01 0.  1.
         11    1    4    4    0    0  0.17471005249E+02 -0.27609201206E+02  0.68790085917E+01  0.33388991821E+02  0.00000000000E+00 0. -1.
        -12    1    4    4    0    0  0.25157854295E+02 -0.66877400490E+02 -0.11515972570E+03  0.13552588960E+03  0.00000000000E+00 0.  1.
</event>
<event>
12    1  0.8526130E-002  0.2760998E+03  0.7818608E-02  0.1098136E+00
         21   -1    0    0  501  502  0.00000000000E+00  0.00000000000E+00  0.68196769104E+03  0.68196769104E+03  0.00000000000E+00 0. -1.
         21   -1    0    0  502  503 -0.00000000000E+00 -0.00000000000E+00 -0.11110453752E+03  0.11110453752E+03  0.00000000000E+00 0.  1.
         -6    2    1    2    0  503  0.50681701530E+02  0.20726444220E+03  0.30267832321E+03  0.40968919967E+03  0.17522525252E+03 0.  0.
        -24    2    3    3    0    0  0.62217224440E+02  0.21089697572E+03  0.20586453526E+03  0.31200981021E+03  0.81371969414E+02 0.  0.
          6    2    1    2  501    0 -0.50681701530E+02 -0.20726444220E+03  0.26818483030E+03  0.38338302889E+03  0.17184952652E+03 0.  0.
         24    2    5    5    0    0 -0.70568751101E+02 -0.21846929200E+03  0.21280019133E+03  0.32329483010E+03  0.80788895013E+02 0.  0.
          5    1    5    5  501    0  0.19887049571E+02  0.11204849804E+02  0.55384638974E+02  0.60088198792E+02  0.47000000000E+01 0. -1.
        -11    1    6    6    0    0 -0.52518819985E+02 -0.98703535587E+02  0.55660052301E+02  0.12489457879E+03  0.00000000000E+00 0.  1.
         12    1    6    6    0    0 -0.18049931116E+02 -0.11976575641E+03  0.15714013903E+03  0.19840025130E+03  0.00000000000E+00 0. -1.
         -5    1    3    3    0  503 -0.11535522911E+02 -0.36325335217E+01  0.96813787954E+02  0.97679389467E+02  0.47000000000E+01 0.  1.
         11    1    4    4    0    0  0.51753162940E+02  0.11279576375E+03  0.16191848419E+03  0.20400703350E+03  0.00000000000E+00 0. -1.
        -12    1    4    4    0    0  0.10464061500E+02  0.98101211971E+02  0.43946051065E+02  0.10800277671E+03  0.00000000000E+00 0.  1.
</event>
<event>
12    1  0.8526130E-002  0.3512465E+03  0.7818608E-02  0.1062106E+00
         21   -1    0    0  503  502  0.00000000000E+00  0.00000000000E+00  0.66069758108E+03  0.66069758108E+03  0.00000000000E+00 0.  1.
         21   -1    0    0  501  503 -0.00000000000E+00 -0.00000000000E+00 -0.15700672439E+04  0.15700672439E+04  0.00000000000E+00 0.  1.
          6    2    1    2  501    0  0.19361075059E+03  0.23696445711E+03 -0.15016424289E+04  0.15421712385E+04  0.17240901310E+03 0.  0.
         24    2    3    3    0    0  0.13336252055E+03  0.23741562646E+03 -0.13371791892E+04  0.13669562277E+04  0.79808539070E+02 0.  0.
         -6    2    1    2    0  502 -0.19361075059E+03 -0.23696445711E+03  0.59227276606E+03  0.68859358653E+03  0.17244367580E+03 0.  0.
        -24    2    5    5    0    0 -0.91580997709E+02 -0.21489278478E+03  0.40658930818E+03  0.47552630673E+03  0.79021609545E+02 0.  0.
          5    1    3    3  501    0  0.60248230037E+02 -0.45116935010E+00 -0.16446323973E+03  0.17521501076E+03  0.47000000000E+01 0. -1.
        -13    1    4    4    0    0  0.27588283776E+02  0.12941436124E+03 -0.59448722067E+03  0.60903550458E+03  0.00000000000E+00 0.  1.
         14    1    4    4    0    0  0.10577423678E+03  0.10800126522E+03 -0.74269196853E+03  0.75792072314E+03  0.00000000000E+00 0. -1.
         -5    1    5    5    0  502 -0.10202975288E+03 -0.22071672329E+02  0.18568345788E+03  0.21306727980E+03  0.47000000000E+01 0.  1.
         13    1    6    6    0    0 -0.16329880622E+01  0.55194994061E+00  0.45514482217E+02  0.45547111766E+02  0.00000000000E+00 0. -1.
        -14    1    6    6    0    0 -0.89948009647E+02 -0.21544473473E+03  0.36107482596E+03  0.42997919497E+03  0.00000000000E+00 0.  1.
</event>
<event>
12    1  0.8526130E-002  0.2537510E+03  0.7818608E-02  0.1110978E+00
         21   -1    0    0  503  502  0.00000000000E+00  0.00000000000E+00  0.57919094811E+03  0.57919094811E+03  0.00000000000E+00 0. -1.
         21   -1    0    0  501  503 -0.00000000000E+00 -0.00000000000E+00 -0.11117236490E+03  0.11117236490E+03  0.00000000000E+00 0. -1.
          6    2    1    2  501    0 -0.15698702997E+03 -0.10089006169E+03  0.24216854892E+03  0.35076369154E+03  0.17194716948E+03 0.  0.
         24    2    3    3    0    0 -0.17504862275E+03 -0.71341333755E+02  0.24031445592E+03  0.31576546134E+03  0.78899826475E+02 0.  0.
         -6    2    1    2    0  502  0.15698702997E+03  0.10089006169E+03  0.22585003429E+03  0.33959962147E+03  0.17174379983E+03 0.  0.
        -24    2    5    5    0    0  0.31184938066E+02  0.33555496216E+02  0.33625590283E+02  0.10015769341E+03  0.82476733318E+02 0.  0.
          5    1    3    3  501    0  0.18061592783E+02 -0.29548727939E+02  0.18540929952E+01  0.34998230205E+02  0.47000000000E+01 0. -1.
        -11    1    4    4    0    0 -0.30284546988E+02 -0.30805340204E+02  0.10486166189E+03  0.11341115865E+03  0.00000000000E+00 0.  1.
         12    1    4    4    0    0 -0.14476407577E+03 -0.40535993552E+02  0.13545279403E+03  0.20235430269E+03  0.00000000000E+00 0. -1.
         -5    1    5    5    0  502  0.12580209191E+03  0.67334565478E+02  0.19222444401E+03  0.23944192806E+03  0.47000000000E+01 0.  1.
         11    1    6    6    0    0  0.33609701844E+02  0.53764881634E+02  0.31166744330E+01  0.63482188168E+02  0.00000000000E+00 0. -1.
        -12    1    6    6    0    0 -0.24247637779E+01 -0.20209385418E+02  0.30508915850E+02  0.36675505242E+02  0.00000000000E+00 0.  1.
</event>
<event>
12    1  0.8526130E-002  0.1915748E+03  0.7818608E-02  0.1157268E+00
         21   -1    0    0  501  502  0.00000000000E+00  0.00000000000E+00  0.24827953515E+02  0.24827953515E+02  0.00000000000E+00 0.  1.
         21   -1    0    0  502  503 -0.00000000000E+00 -0.00000000000E+00 -0.14890817889E+04  0.14890817889E+04  0.00000000000E+00 0. -1.
         -6    2    1    2    0  503  0.52652191046E+02 -0.63867039947E+02 -0.64980211705E+03  0.67745382709E+03  0.17277049664E+03 0.  0.
        -24    2    3    3    0    0 -0.56830429473E+00 -0.14107263384E+02 -0.53625858460E+03  0.54246241904E+03  0.80578338664E+02 0.  0.
          6    2    1    2  501    0 -0.52652191046E+02  0.63867039947E+02 -0.81445171837E+03  0.83645591535E+03  0.17168472489E+03 0.  0.
         24    2    5    5    0    0  0.95126632030E+01 -0.81377938469E+01 -0.21774795090E+03  0.23219881668E+03  0.79658056047E+02 0.  0.
          5    1    5    5  501    0 -0.62164854249E+02  0.72004833794E+02 -0.59670376746E+03  0.60425709867E+03  0.47000000000E+01 0. -1.
        -13    1    6    6    0    0 -0.38460005933E+01  0.34312270940E+02 -0.11855389348E+03  0.12347934774E+03  0.00000000000E+00 0.  1.
         14    1    6    6    0    0  0.13358663796E+02 -0.42450064787E+02 -0.99194057419E+02  0.10871946894E+03  0.00000000000E+00 0. -1.
         -5    1    3    3    0  503  0.53220495341E+02 -0.49759776563E+02 -0.11354353244E+03  0.13499140805E+03  0.47000000000E+01 0.  1.
         13    1    4    4    0    0 -0.17984132280E+02  0.12578278152E+02 -0.43961304981E+02  0.49134900333E+02  0.00000000000E+00 0. -1.
        -14    1    4    4    0    0  0.17415827985E+02 -0.26685541536E+02 -0.49229727962E+03  0.49332751871E+03  0.00000000000E+00 0.  1.
</event>
<event>
12    1  0.8526130E-002  0.2036989E+03  0.7818608E-02  0.1146846E+00
         21   -1    0    0  501  502  0.00000000000E+00  0.00000000000E+00  0.13423362035E+03  0.13423362035E+03  0.00000000000E+00 0. -1.
         21   -1    0    0  502  503 -0.00000000000E+00 -0.00000000000E+00 -0.41022590605E+03  0.41022590605E+03  0.00000000000E+00 0. -1.
         -6    2    1    2    0  503  0.47801119687E+02 -0.97381615730E+02 -0.27384887571E+03  0.34074938354E+03  0.17131494252E+03 0.  0.
        -24    2    3    3    0    0 -0.25484511335E+02 -0.22394124406E+02 -0.68984074078E+02  0.11056340543E+03  0.79463872411E+02 0.  0.
          6    2    1    2  501    0 -0.47801119687E+02  0.97381615730E+02 -0.21434099900E+01  0.20371014286E+03  0.17240969222E+03 0.  0.
         24    2    5    5    0    0  0.23096547642E+02  0.65335641744E+02 -0.46944699316E+02  0.11380647660E+03  0.77109744701E+02 0.  0.
          5    1    5    5  501    0 -0.70897667329E+02  0.32045973987E+02  0.44801289326E+02  0.89903666258E+02  0.47000000000E+01 0. -1.
        -13    1    6    6    0    0 -0.99951254473E+01  0.58854146866E+02 -0.52661404500E+02  0.79604878368E+02  0.00000000000E+00 0.  1.
         14    1    6    6    0    0  0.33091673089E+02  0.64814948780E+01  0.57167051839E+01  0.34201598235E+02  0.00000000000E+00 0. -1.
         -5    1    3    3    0  503  0.73285631022E+02 -0.74987491324E+02 -0.20486480163E+03  0.23018597811E+03  0.47000000000E+01 0.  1.
         11    1    4    4    0    0 -0.46142352230E+02  0.77111815416E+01 -0.53037298186E+02  0.70721524227E+02  0.00000000000E+00 0. -1.
        -12    1    4    4    0    0  0.20657840895E+02 -0.30105305948E+02 -0.15946775892E+02  0.39841881206E+02  0.00000000000E+00 0.  1.
</event>
<event>
12    1  0.8526130E-002  0.2644945E+03  0.7818608E-02  0.1104562E+00
         21   -1    0    0  503  502  0.00000000000E+00  0.00000000000E+00  0.33177661016E+03  0.33177661016E+03  0.00000000000E+00 0. -1.
         21   -1    0    0  501  503 -0.00000000000E+00 -0.00000000000E+00 -0.22515538517E+03  0.22515538517E+03  0.00000000000E+00 0. -1.
          6    2    1    2  501    0  0.19363013898E+03  0.51676306255E+02  0.12461163600E+03  0.29182633892E+03  0.17167259802E+03 0.  0.
         24    2    3    3    0    0  0.98911091527E+02 -0.40039101292E+02  0.67311550594E+02  0.14799030825E+03  0.77354720813E+02 0.  0.
         -6    2    1    2    0  502 -0.19363013898E+03 -0.51676306255E+02 -0.17990411019E+02  0.26510565641E+03  0.17261020487E+03 0.  0.
        -24    2    5    5    0    0 -0.32787747429E+02 -0.53210127224E+02  0.17785650865E+02  0.10025832058E+03  0.76348198726E+02 0.  0.
          5    1    3    3  501    0  0.94719047453E+02  0.91715407547E+02  0.57300085410E+02  0.14383603067E+03  0.47000000000E+01 0. -1.
        -11    1    4    4    0    0  0.10288373282E+03 -0.53759338744E+02  0.66273977333E+02  0.13366887840E+03  0.00000000000E+00 0.  1.
         12    1    4    4    0    0 -0.39726412924E+01  0.13720237452E+02  0.10375732612E+01  0.14321429847E+02  0.00000000000E+00 0. -1.
         -5    1    5    5    0  502 -0.16084239155E+03  0.15338209682E+01 -0.35776061884E+02  0.16484733583E+03  0.47000000000E+01 0.  1.
         11    1    6    6    0    0 -0.41909283427E+02 -0.55640964269E+02 -0.10494202704E+02  0.70444540118E+02  0.00000000000E+00 0. -1.
        -12    1    6    6    0    0  0.91215359978E+01  0.24308370451E+01  0.28279853568E+02  0.29813780464E+02  0.00000000000E+00 0.  1.
</event>
<event>
12    1  0.8526130E-002  0.2722504E+03  0.7818608E-02  0.1100005E+00
         21   -1    0    0  503  502  0.00000000000E+00  0.00000000000E+00  0.86956350456E+03  0.86956350456E+03  0.00000000000E+00 0.  1.
         21   -1    0    0  501  503 -0.00000000000E+00 -0.00000000000E+00 -0.46110662429E+03  0.46110662429E+03  0.00000000000E+00 0. -1.
          6    2    1    2  501    0 -0.58850752139E+02 -0.20229108889E+03 -0.39647949472E+03  0.48095349896E+03  0.17243892470E+03 0.  0.
         24    2    3    3    0    0 -0.57274661719E+02 -0.33754536955E+02 -0.16774386043E+03  0.19678957832E+03  0.78539033490E+02 0.  0.
         -6    2    1    2    0  502  0.58850752139E+02  0.20229108889E+03  0.80493637498E+03  0.84971662989E+03  0.17236788469E+03 0.  0.
        -24    2    5    5    0    0  0.22289494920E+02  0.26682994671E+02  0.18870689781E+03  0.20789439063E+03  0.80006128408E+02 0.  0.
          5    1    3    3  501    0 -0.15760904203E+01 -0.16853655194E+03 -0.22873563429E+03  0.28416392064E+03  0.47000000000E+01 0. -1.
        -13    1    4    4    0    0  0.14271648181E+02  0.10973351339E+02 -0.37587008597E+02  0.41675863479E+02  0.00000000000E+00 0.  1.
         14    1    4    4    0    0 -0.71546309900E+02 -0.44727888294E+02 -0.13015685183E+03  0.15511371484E+03  0.00000000000E+00 0. -1.
         -5    1    5    5    0  502  0.36561257220E+02  0.17560809422E+03  0.61622947717E+03  0.64182223927E+03  0.47000000000E+01 0.  1.
         13    1    6    6    0    0 -0.29689869852E+02  0.17283158517E+02  0.70698213416E+02  0.78603010886E+02  0.00000000000E+00 0. -1.
        -14    1    6    6    0    0  0.51979364771E+02  0.93998361540E+01  0.11800868440E+03  0.12929137974E+03  0.00000000000E+00 0.  1.
</event>
<event>
12    1  0.8526130E-002  0.3134631E+03  0.7818608E-02  0.1078770E+00
         21   -1    0    0  501  502  0.00000000000E+00  0.00000000000E+00  0.84866045037E+02  0.84866045037E+02  0.00000000000E+00 0.  1.
         21   -1    0    0  502  503 -0.00000000000E+00 -0.00000000000E+00 -0.15569284040E+04  0.15569284040E+04  0.00000000000E+00 0. -1.
         -6    2    1    2    0  503 -0.10131310808E+03 -0.24063934700E+03 -0.11523011434E+04  0.11940150867E+04  0.17234401925E+03 0.  0.
        -24    2    3    3    0    0  0.15997636797E+01 -0.13849805303E+03 -0.73061929252E+03  0.74807610379E+03  0.81418895383E+02 0.  0.
          6    2    1    2  501    0  0.10131310808E+03  0.24063934700E+03 -0.31976121560E+03  0.44777936238E+03  0.17345743335E+03 0.  0.
         24    2    5    5    0    0  0.13509465344E+03  0.19106529843E+03 -0.21750631527E+03  0.32913310774E+03  0.79139697881E+02 0.  0.
          5    1    5    5  501    0 -0.33781545358E+02  0.49574048570E+02 -0.10225490034E+03  0.11864625464E+03  0.47000000000E+01 0. -1.
        -11    1    6    6    0    0  0.72902169301E+02  0.16187046060E+03 -0.16830119310E+03  0.24462637614E+03  0.00000000000E+00 0.  1.
         12    1    6    6    0    0  0.62192484135E+02  0.29194837825E+02 -0.49205122162E+02  0.84506731599E+02  0.00000000000E+00 0. -1.
         -5    1    3    3    0  503 -0.10291287176E+03 -0.10214129396E+03 -0.42168185085E+03  0.44593898286E+03  0.47000000000E+01 0.  1.
         11    1    4    4    0    0  0.62015948981E+01 -0.14223775811E+03 -0.72764405411E+03  0.74144177728E+03  0.00000000000E+00 0. -1.
        -12    1    4    4    0    0 -0.46018312184E+01  0.37397050790E+01 -0.29752384014E+01  0.66343265059E+01  0.00000000000E+00 0.  1.
</event>
<event>
12    1  0.8526130E-002  0.1738917E+03  0.7818608E-02  0.1174173E+00
         21   -1    0    0  501  502  0.00000000000E+00  0.00000000000E+00  0.13491541343E+04  0.13491541343E+04  0.00000000000E+00 0.  1.
         21   -1    0    0  502  503 -0.00000000000E+00 -0.00000000000E+00 -0.54514593775E+02  0.54514593775E+02  0.00000000000E+00 0.  1.
         -6    2    1    2    0  503 -0.14092540756E+02  0.25056865336E+01  0.10640816593E+03  0.20278066625E+03  0.17202448273E+03 0.  0.
        -24    2    3    3    0    0 -0.79921910491E+01  0.75879791632E+01  0.14402509086E+03  0.16404867681E+03  0.77764317141E+02 0.  0.
          6    2    1    2  501    0  0.14092540756E+02 -0.25056865336E+01  0.11882313746E+04  0.12008880618E+04  0.17330164249E+03 0.  0.
         24    2    5    5    0    0 -0.41239637187E+02  0.45881350233E+02  0.67734174828E+03  0.68471633118E+03  0.78986101576E+02 0.  0.
          5    1    5    5  501    0  0.55332177942E+02 -0.48387036766E+02  0.51088962627E+03  0.51617173061E+03  0.47000000000E+01 0. -1.
        -11    1    6    6    0    0 -0.14571662558E+02  0.14036736004E+02  0.55774858026E+03  0.55811543796E+03  0.00000000000E+00 0.  1.
         12    1    6    6    0    0 -0.26667974629E+02  0.31844614229E+02  0.11959316803E+03  0.12660089322E+03  0.00000000000E+00 0. -1.
         -5    1    3    3    0  503 -0.61003497065E+01 -0.50822926295E+01 -0.37616924929E+02  0.38731989441E+02  0.47000000000E+01 0.  1.
         11    1    4    4    0    0  0.14479794952E+02  0.30154659397E+02  0.27664058475E+02  0.43408156797E+02  0.00000000000E+00 0. -1.
        -12    1    4    4    0    0 -0.22471986001E+02 -0.22566680233E+02  0.11636103238E+03  0.12064052001E+03  0.00000000000E+00 0.  1.
</event>
<event>
12    1  0.8526130E-002  0.2706445E+03  0.7818608E-02  0.1100982E+00
         21   -1    0    0  503  502  0.00000000000E+00  0.00000000000E+00  0.13293502117E+03  0.13293502117E+03  0.00000000000E+00 0.  1.
         21   -1    0    0  501  503 -0.00000000000E+00 -0.00000000000E+00 -0.14476264666E+04  0.14476264666E+04  0.00000000000E+00 0. -1.
          6    2    1    2  501    0 -0.17439485444E+03  0.11481049330E+03 -0.12794183311E+04  0.13076281383E+04  0.17142073269E+03 0.  0.
         24    2    3    3    0    0 -0.31053226468E+02  0.82617816954E+02 -0.46775739492E+03  0.48276526729E+03  0.80469349725E+02 0.  0.
         -6    2    1    2    0  502  0.17439485444E+03 -0.11481049330E+03 -0.35273114369E+02  0.27293334948E+03  0.17220164352E+03 0.  0.
        -24    2    5    5    0    0  0.35359739981E+02 -0.52354051029E+02 -0.61681488149E+02  0.11817204152E+03  0.78541502058E+02 0.  0.
          5    1    3    3  501    0 -0.14334162798E+03  0.32192676351E+02 -0.81166093614E+03  0.82486287102E+03  0.47000000000E+01 0. -1.
        -11    1    4    4    0    0 -0.41632663792E+02  0.64570256119E+02 -0.20090250384E+03  0.21509163796E+03  0.00000000000E+00 0.  1.
         12    1    4    4    0    0  0.10579437324E+02  0.18047560835E+02 -0.26685489108E+03  0.26767362933E+03  0.00000000000E+00 0. -1.
         -5    1    5    5    0  502  0.13903511446E+03 -0.62456442276E+02  0.26408373780E+02  0.15476130796E+03  0.47000000000E+01 0.  1.
         13    1    6    6    0    0 -0.24640468507E+02 -0.19130691394E+02 -0.11739679071E+02  0.33331008178E+02  0.00000000000E+00 0. -1.
        -14    1    6    6    0    0  0.60000208489E+02 -0.33223359635E+02 -0.49941809078E+02  0.84841033339E+02  0.00000000000E+00 0.  1.
</event>
<event>
12    1  0.8526130E-002  0.1923243E+03  0.7818608E-02  0.1156400E+00
         21   -1    0    0  501  502  0.00000000000E+00  0.00000000000E+00  0.12105831083E+04  0.12105831083E+04  0.00000000000E+00 0. -1.
         21   -1    0    0  502  503 -0.00000000000E+00 -0.00000000000E+00 -0.34137780869E+02  0.34137780869E+02  0.00000000000E+00 0.  1.
         -6    2    1    2    0  503 -0.86716507153E+02  0.10118564606E+02  0.38610265318E+03  0.43131436711E+03  0.17127371812E+03 0.  0.
        -24    2    3    3    0    0  0.17079212002E+02  0.13677128251E+02  0.21734552756E+03  0.23310419548E+03  0.81361688037E+02 0.  0.
          6    2    1    2  501    0  0.86716507153E+02 -0.10118564606E+02  0.79034267425E+03  0.81340652205E+03  0.17136653531E+03 0.  0.
         24    2    5    5    0    0  0.41283404013E+02  0.31987317002E+02  0.22704561248E+03  0.24669430063E+03  0.81122499451E+02 0.  0.
          5    1    5    5  501    0  0.45433103140E+02 -0.42105881608E+02  0.56329706176E+03  0.56671222143E+03  0.47000000000E+01 0. -1.
        -11    1    6    6    0    0  0.39410237793E+02  0.20107202459E+02  0.41186992711E+02  0.60446958585E+02  0.00000000000E+00 0.  1.
         12    1    6    6    0    0  0.18731662202E+01  0.11880114543E+02  0.18585861977E+03  0.18624734204E+03  0.00000000000E+00 0. -1.
         -5    1    3    3    0  503 -0.10379571915E+03 -0.35585636449E+01  0.16875712562E+03  0.19821017163E+03  0.47000000000E+01 0.  1.
         11    1    4    4    0    0 -0.32603412497E+02  0.48500875969E+01  0.10228517840E+03  0.10746517378E+03  0.00000000000E+00 0. -1.
        -12    1    4    4    0    0  0.49682624499E+02  0.88270406543E+01  0.11506034916E+03  0.12563902169E+03  0.00000000000E+00 0.  1.
</event>
<event>
12    1  0.8526130E-002  0.2144819E+03  0.7818608E-02  0.1138268E+00
         21   -1    0    0  503  502  0.00000000000E+00  0.00000000000E+00  0.28564258374E+03  0.28564258374E+03  0.00000000000E+00 0. -1.
         21   -1    0    0  501  503 -0.00000000000E+00 -0.00000000000E+00 -0.23247042107E+03  0.23247042107E+03  0.00000000000E+00 0.  1.
          6    2    1    2  501    0 -0.11937942311E+02 -0.12600726290E+03  0.17092014023E+03  0.27343550872E+03  0.17185150079E+03 0.  0.
         24    2    3    3    0    0  0.33306273520E+02 -0.88495198585E+02  0.40384548082E+02  0.13020204597E+03  0.79880867680E+02 0.  0.
         -6    2    1    2    0  502  0.11937942311E+02  0.12600726290E+03 -0.11774797756E+03  0.24467749609E+03  0.17315353333E+03 0.  0.
        -24    2    5    5    0    0  0.59308931654E+02  0.31207694206E+02 -0.31639115881E+02  0.10804735697E+03  0.78623966721E+02 0.  0.
          5    1    3    3  501    0 -0.45244215831E+02 -0.37512064312E+02  0.13053559215E+03  0.14323346276E+03  0.47000000000E+01 0. -1.
        -11    1    4    4    0    0  0.40516588038E+02 -0.61921276927E+02  0.60922899004E+02  0.95851124488E+02  0.00000000000E+00 0.  1.
         12    1    4    4    0    0 -0.72103145181E+01 -0.26573921658E+02 -0.20538350922E+02  0.34350921477E+02  0.00000000000E+00 0. -1.
         -5    1    5    5    0  502 -0.47370989343E+02  0.94799568690E+02 -0.86108861684E+02  0.13663013912E+03  0.47000000000E+01 0.  1.
         13    1    6    6    0    0  0.64223469606E+02  0.29356086010E+02  0.52281015183E+01  0.70807957742E+02  0.00000000000E+00 0. -1.
        -14    1    6    6    0    0 -0.49145379516E+01  0.18516081960E+01 -0.36867217399E+02  0.37239399229E+02  0.00000000000E+00 0.  1.
</event>
<event>
12    1  0.8526130E-002  0.2247963E+03  0.7818608E-02  0.1130620E+00
         21   -1    0    0  503  502  0.00000000000E+00  0.00000000000E+00  0.69558634730E+02  0.69558634730E+02  0.00000000000E+00 0.  1.
         21   -1    0    0  501  503 -0.00000000000E+00 -0.00000000000E+00 -0.10601917272E+04  0.10601917272E+04  0.00000000000E+00 0. -1.
          6    2    1    2  501    0 -0.53246555083E+02 -0.13274965234E+03 -0.81335163587E+03  0.84346014448E+03  0.17154144087E+03 0.  0.
         24    2    3    3    0    0  0.12395476953E+02 -0.11543200450E+03 -0.39026576850E+03  0.41493649465E+03  0.79917013325E+02 0.  0.
         -6    2    1    2    0  502  0.53246555083E+02  0.13274965234E+03 -0.17728145660E+03  0.28629021745E+03  0.17342349300E+03 0.  0.
        -24    2    5    5    0    0 -0.15808031812E+02  0.51230028686E+02 -0.16915906250E+02  0.93538603311E+02  0.74759031000E+02 0.  0.
          5    1    3    3  501    0 -0.65642032036E+02 -0.17317647840E+02 -0.42308586736E+03  0.42852364982E+03  0.47000000000E+01 0. -1.
        -13    1    4    4    0    0  0.40514382743E+02 -0.81930243234E+02 -0.20294710141E+03  0.22257921272E+03  0.00000000000E+00 0.  1.
         14    1    4    4    0    0 -0.28118905791E+02 -0.33501761271E+02 -0.18731866709E+03  0.19235728193E+03  0.00000000000E+00 0. -1.
         -5    1    5    5    0  502  0.69054586895E+02  0.81519623658E+02 -0.16036555035E+03  0.19275161414E+03  0.47000000000E+01 0.  1.
         11    1    6    6    0    0 -0.50193872121E+01 -0.13823673617E+02 -0.23017461736E+02  0.27314680028E+02  0.00000000000E+00 0. -1.
        -12    1    6    6    0    0 -0.10788644600E+02  0.65053702303E+02  0.61015554863E+01  0.66223923283E+02  0.00000000000E+00 0.  1.
</event>
<event>
12    1  0.8526130E-002  0.1820156E+03  0.7818608E-02  0.1166435E+00
         21   -1    0    0  503  502  0.00000000000E+00  0.00000000000E+00  0.15260692854E+03  0.15260692854E+03  0.00000000000E+00 0. -1.
         21   -1    0    0  501  503 -0.00000000000E+00 -0.00000000000E+00 -0.23005304631E+03  0.23005304631E+03  0.00000000000E+00 0. -1.
          6    2    1    2  501    0 -0.50194500790E+01 -0.56452290885E+02 -0.88587973412E+02  0.20030367978E+03  0.17047486347E+03 0.  0.
         24    2    3    3    0    0 -0.57805399548E+01  0.40296835250E+01  0.14687465190E+02  0.80526575520E+02  0.78861617659E+02 0.  0.
         -6    2    1    2    0  502  0.50194500790E+01  0.56452290885E+02  0.11141855640E+02  0.18235629507E+03  0.17296711069E+03 0.  0.
        -24    2    5    5    0    0  0.60411324657E+02  0.46384331503E+02 -0.81734152757E+01  0.12265040536E+03  0.95787696825E+02 0.  0.
          5    1    3    3  501    0  0.76108987577E+00 -0.60481974410E+02 -0.10327543860E+03  0.11977710426E+03  0.47000000000E+01 0. -1.
        -13    1    4    4    0    0 -0.89144195801E+01  0.38054020257E+02 -0.74851471879E+01  0.39794506689E+02  0.00000000000E+00 0.  1.
         14    1    4    4    0    0  0.31338796253E+01 -0.34024336732E+02  0.22172612378E+02  0.40732068831E+02  0.00000000000E+00 0. -1.
         -5    1    5    5    0  502 -0.55391874578E+02  0.10067959383E+02  0.19315270915E+02  0.59705889709E+02  0.47000000000E+01 0.  1.
         11    1    6    6    0    0  0.23229165551E+01  0.10087992972E+02  0.38432559441E+02  0.39802326173E+02  0.00000000000E+00 0. -1.
        -12    1    6    6    0    0  0.58088408102E+02  0.36296338530E+02 -0.46605974717E+02  0.82848079192E+02  0.00000000000E+00 0.  1.
</event>
<event>
12    1  0.8526130E-002  0.1809825E+03  0.7818608E-02  0.1167406E+00
         21   -1    0    0  503  502  0.00000000000E+00  0.00000000000E+00  0.51786172376E+03  0.51786172376E+03  0.00000000000E+00 0. -1.
         21   -1    0    0  501  503 -0.00000000000E+00 -0.00000000000E+00 -0.80040949793E+02  0.80040949793E+02  0.00000000000E+00 0.  1.
          6    2    1    2  501    0 -0.48940419853E+02 -0.29091911085E+02  0.77713372648E+02  0.19487412230E+03  0.16939613711E+03 0.  0.
         24    2    3    3    0    0  0.21777434653E+02  0.24271317999E+02  0.17593408097E+02  0.87705333456E+02  0.79494301498E+02 0.  0.
         -6    2    1    2    0  502  0.48940419853E+02  0.29091911085E+02  0.36010740132E+03  0.40302855126E+03  0.17179397153E+03 0.  0.
        -24    2    5    5    0    0 -0.29933099830E+02  0.32659014204E+02  0.24562281120E+03  0.26387910747E+03  0.85668058814E+02 0.  0.
          5    1    3    3  501    0 -0.70717854506E+02 -0.53363229085E+02  0.60119964551E+02  0.10716878884E+03  0.47000000000E+01 0. -1.
        -11    1    4    4    0    0 -0.25811990071E+02 -0.95149492273E+01  0.70293259063E+01  0.28393740735E+02  0.00000000000E+00 0.  1.
         12    1    4    4    0    0  0.47589424724E+02  0.33786267227E+02  0.10564082191E+02  0.59311592722E+02  0.00000000000E+00 0. -1.
         -5    1    5    5    0  502  0.78873519683E+02 -0.35671031187E+01  0.11448459012E+03  0.13914944379E+03  0.47000000000E+01 0.  1.
         11    1    6    6    0    0 -0.29673890191E+02 -0.11007084574E+02  0.19263125510E+03  0.19521397519E+03  0.00000000000E+00 0. -1.
        -12    1    6    6    0    0 -0.25920963896E+00  0.43666098778E+02  0.52991556107E+02  0.68665132278E+02  0.00000000000E+00 0.  1.
</event>
<event>
12    1  0.8526130E-002  0.2262467E+03  0.7818608E-02  0.1129470E+00
         21   -1    0    0  501  502  0.00000000000E+00  0.00000000000E+00  0.12639630322E+03  0.12639630322E+03  0.00000000000E+00 0. -1.
         21   -1    0    0  502  503 -0.00000000000E+00 -0.00000000000E+00 -0.42650350164E+03  0.42650350164E+03  0.00000000000E+00 0.  1.
         -6    2    1    2    0  503  0.11336153455E+03 -0.93636386193E+02 -0.21468802336E+03  0.31189506293E+03  0.17195631006E+03 0.  0.
        -24    2    3    3    0    0  0.13529456480E+03 -0.56152100218E+02 -0.20968186748E+03  0.26792597029E+03  0.79750626206E+02 0.  0.
          6    2    1    2  501    0 -0.11336153455E+03  0.93636386193E+02 -0.85419175063E+02  0.24100474193E+03  0.17078711845E+03 0.  0.
         24    2    5    5    0    0 -0.16111240229E+02  0.94929615194E+02 -0.67612336171E+02  0.14201754226E+03  0.79538358065E+02 0.  0.
          5    1    5    5  501    0 -0.97250294324E+02 -0.12932290006E+01 -0.17806838891E+02  0.98987199671E+02  0.47000000000E+01 0. -1.
        -11    1    6    6    0    0 -0.38305472305E+02  0.90938529106E+02 -0.40274695351E+02  0.10657943690E+03  0.00000000000E+00 0.  1.
         12    1    6    6    0    0  0.22194232076E+02  0.39910860882E+01 -0.27337640820E+02  0.35438105356E+02  0.00000000000E+00 0. -1.
         -5    1    3    3    0  503 -0.21933030250E+02 -0.37484285975E+02 -0.50061558788E+01  0.43969092641E+02  0.47000000000E+01 0.  1.
         11    1    4    4    0    0  0.10162959328E+02 -0.26279281059E+02 -0.90546720146E+01  0.29595159074E+02  0.00000000000E+00 0. -1.
        -12    1    4    4    0    0  0.12513160548E+03 -0.29872819159E+02 -0.20062719547E+03  0.23833081122E+03  0.00000000000E+00 0.  1.
</event>
<event>
12    1  0.8526130E-002  0.1820886E+03  0.7818608E-02  0.1166771E+00
         21   -1    0    0  503  502  0.00000000000E+00  0.00000000000E+00  0.28636937097E+03  0.28636937097E+03  0.00000000000E+00 0. -1.
         21   -1    0    0  501  503 -0.00000000000E+00 -0.00000000000E+00 -0.23668980946E+03  0.23668980946E+03  0.00000000000E+00 0.  1.
          6    2    1    2  501    0 -0.23831161272E+02 -0.38638165989E+02 -0.16390662613E+03  0.24499312640E+03  0.17633892871E+03 0.  0.
         24    2    3    3    0    0  0.56005126103E+02 -0.22998849407E+02 -0.10152129596E+03  0.14236544775E+03  0.79346240971E+02 0.  0.
         -6    2    1    2    0  502  0.23831161272E+02  0.38638165989E+02  0.21358618764E+03  0.27806605402E+03  0.17216514958E+03 0.  0.
        -24    2    5    5    0    0 -0.23173257237E+02  0.64116111037E+02  0.19246228084E+03  0.22038719757E+03  0.82951261364E+02 0.  0.
          5    1    3    3  501    0 -0.79836287375E+02 -0.15639316582E+02 -0.62385330168E+02  0.10262767865E+03  0.47000000000E+01 0. -1.
        -11    1    4    4    0    0 -0.54689124152E+01 -0.35740749479E+02 -0.28303992249E+02  0.45917601783E+02  0.00000000000E+00 0.  1.
         12    1    4    4    0    0  0.61474038518E+02  0.12741900071E+02 -0.73217303716E+02  0.96447845972E+02  0.00000000000E+00 0. -1.
         -5    1    5    5    0  502  0.47004418510E+02 -0.25477945048E+02  0.21123906808E+02  0.57678856456E+02  0.47000000000E+01 0.  1.
         11    1    6    6    0    0 -0.26492074427E+02  0.37416291033E+02  0.27959371941E+02  0.53698559771E+02  0.00000000000E+00 0. -1.
        -12    1    6    6    0    0  0.33188171895E+01  0.26699820003E+02  0.16450290889E+03  0.16668863780E+03  0.00000000000E+00 0.  1.
</event>
<event>
12    1  0.8526130E-002  0.1907488E+03  0.7818608E-02  0.1157908E+00
         21   -1    0    0  503  502  0.00000000000E+00  0.00000000000E+00  0.21214992332E+03  0.21214992332E+03  0.00000000000E+00 0. -1.
         21   -1    0    0  501  503 -0.00000000000E+00 -0.00000000000E+00 -0.37512162008E+03  0.37512162008E+03  0.00000000000E+00 0. -1.
          6    2    1    2  501    0  0.82383822785E+02  0.86338491305E+01  0.13515712561E+03  0.23334230608E+03  0.17122951147E+03 0.  0.
         24    2    3    3    0    0 -0.19286679324E+01  0.16237790524E+02  0.86980556546E+01  0.81091189865E+02  0.78947699780E+02 0.  0.
         -6    2    1    2    0  502 -0.82383822785E+02 -0.86338491305E+01 -0.29812882238E+03  0.35392923732E+03  0.17182395843E+03 0.  0.
        -24    2    5    5    0    0  0.20064816776E+02 -0.14215856664E+02 -0.16970619325E+03  0.18948671171E+03  0.80624651533E+02 0.  0.
          5    1    3    3  501    0  0.84312490718E+02 -0.76039413931E+01  0.12645906996E+03  0.15225111622E+03  0.47000000000E+01 0. -1.
        -13    1    4    4    0    0  0.20762594832E+02 -0.17967853497E+02 -0.17346397799E+02  0.32478094465E+02  0.00000000000E+00 0.  1.
         14    1    4    4    0    0 -0.22691262764E+02  0.34205644021E+02  0.26044453454E+02  0.48613095401E+02  0.00000000000E+00 0. -1.
         -5    1    5    5    0  502 -0.10244863956E+03  0.55820075331E+01 -0.12842262913E+03  0.16444252561E+03  0.47000000000E+01 0.  1.
         13    1    6    6    0    0  0.96776548451E+01  0.33786633364E+02 -0.68202610443E+02  0.76725417357E+02  0.00000000000E+00 0. -1.
        -14    1    6    6    0    0  0.10387161931E+02 -0.48002490027E+02 -0.10150358280E+03  0.11276129435E+03  0.00000000000E+00 0.  1.
</event>
<event>
12    1  0.8526130E-002  0.1782643E+03  0.7818608E-02  0.1169566E+00
         21   -1    0    0  501  502  0.00000000000E+00  0.00000000000E+00  0.15046210669E+03  0.15046210669E+03  0.00000000000E+00 0. -1.
         21   -1    0    0  502  503 -0.00000000000E+00 -0.00000000000E+00 -0.62537883350E+03  0.62537883350E+03  0.00000000000E+00 0. -1.
         -6    2    1    2    0  503 -0.47171632583E+01 -0.46766342848E+02 -0.55335054026E+03  0.58135616622E+03  0.17195589301E+03 0.  0.
        -24    2    3    3    0    0  0.20237361950E+02 -0.65552130493E+02 -0.20973097116E+03  0.23628786513E+03  0.84488119370E+02 0.  0.
          6    2    1    2  501    0  0.47171632583E+01  0.46766342848E+02  0.78433813448E+02  0.19448477396E+03  0.17164825009E+03 0.  0.
         24    2    5    5    0    0 -0.56150743814E+01  0.73072567055E+02 -0.32447345517E+01  0.10792700268E+03  0.79161736265E+02 0.  0.
          5    1    5    5  501    0  0.10332237640E+02 -0.26306224207E+02  0.81678548000E+02  0.86557771286E+02  0.47000000000E+01 0. -1.
        -13    1    6    6    0    0 -0.13683856725E+02  0.26189845360E+02  0.35774281684E+02  0.46399947897E+02  0.00000000000E+00 0.  1.
         14    1    6    6    0    0  0.80687823431E+01  0.46882721695E+02 -0.39019016236E+02  0.61527054781E+02  0.00000000000E+00 0. -1.
         -5    1    3    3    0  503 -0.24954525208E+02  0.18785787646E+02 -0.34361956910E+03  0.34506830108E+03  0.47000000000E+01 0.  1.
         13    1    4    4    0    0 -0.16286252848E+02 -0.24373132053E+02 -0.15818390524E+03  0.16087709432E+03  0.00000000000E+00 0. -1.
        -14    1    4    4    0    0  0.36523614798E+02 -0.41178998440E+02 -0.51547065916E+02  0.75410770815E+02  0.00000000000E+00 0.  1.
</event>
<event>
12    1  0.8526130E-002  0.2943900E+03  0.7818608E-02  0.1088169E+00
         21   -1    0    0  501  502  0.00000000000E+00  0.00000000000E+00  0.12392057198E+03  0.12392057198E+03  0.00000000000E+00 0. -1.
         21   -1    0    0  502  503 -0.00000000000E+00 -0.00000000000E+00 -0.99227501302E+03  0.99227501302E+03  0.00000000000E+00 0. -1.
         -6    2    1    2    0  503  0.96624032828E+02  0.21851593760E+03 -0.73861871342E+03  0.79512457445E+03  0.17198856463E+03 0.  0.
        -24    2    3    3    0    0  0.11645254718E+03  0.12006025627E+03 -0.37797375635E+03  0.42072696998E+03  0.78558016132E+02 0.  0.
          6    2    1    2  501    0 -0.96624032828E+02 -0.21851593760E+03 -0.12973572761E+03  0.32107101055E+03  0.17079173308E+03 0.  0.
         24    2    5    5    0    0 -0.10916101466E+03 -0.15319867405E+03 -0.14784587211E+03  0.25197985218E+03  0.79053672594E+02 0.  0.
          5    1    5    5  501    0  0.12536981836E+02 -0.65317263548E+02  0.18110144496E+02  0.69091158368E+02  0.47000000000E+01 0. -1.
        -11    1    6    6    0    0 -0.48375334161E+02 -0.25838294403E+02 -0.75717796573E+02  0.93493182269E+02  0.00000000000E+00 0.  1.
         12    1    6    6    0    0 -0.60785680503E+02 -0.12736037965E+03 -0.72128075536E+02  0.15848666991E+03  0.00000000000E+00 0. -1.
         -5    1    3    3    0  503 -0.19828514355E+02  0.98455681334E+02 -0.36064495707E+03  0.37439760447E+03  0.47000000000E+01 0.  1.
         13    1    4    4    0    0  0.11953211533E+03  0.94638022365E+02 -0.35488055266E+03  0.38624407896E+03  0.00000000000E+00 0. -1.
        -14    1    4    4    0    0 -0.30795681510E+01  0.25422233902E+02 -0.23093203690E+02  0.34482891022E+02  0.00000000000E+00 0.  1.
</event>
<event>
12    1  0.8526130E-002  0.1883089E+03  0.7818608E-02  0.1160060E+00
         21   -1    0    0  503  502  0.00000000000E+00  0.00000000000E+00  0.91505500217E+03  0.91505500217E+03  0.00000000000E+00 0.  1.
         21   -1    0    0  501  503 -0.00000000000E+00 -0.00000000000E+00 -0.13911009799E+03  0.13911009799E+03  0.00000000000E+00 0.  1.
          6    2    1    2  501    0 -0.75135383219E+02 -0.11756661925E+02 -0.59764173987E+02  0.19756515506E+03  0.17226923431E+03 0.  0.
         24    2    3    3    0    0 -0.58071857604E+02  0.35309233395E+01  0.36568621503E+02  0.98434071861E+02  0.70478325459E+02 0.  0.
         -6    2    1    2    0  502  0.75135383219E+02  0.11756661925E+02  0.83570907816E+03  0.85659994510E+03  0.17196004684E+03 0.  0.
        -24    2    5    5    0    0  0.10937349245E+03  0.35570947636E+02  0.73103221543E+03  0.74382271372E+03  0.75075137512E+02 0.  0.
          5    1    3    3  501    0 -0.17063525615E+02 -0.15287585264E+02 -0.96332795490E+02  0.99131083200E+02  0.47000000000E+01 0. -1.
        -13    1    4    4    0    0 -0.28530337167E+02  0.12187792338E+02 -0.17936673962E+02  0.35836387845E+02  0.00000000000E+00 0.  1.
         14    1    4    4    0    0 -0.29541520437E+02 -0.86568689984E+01  0.54505295465E+02  0.62597684017E+02  0.00000000000E+00 0. -1.
         -5    1    5    5    0  502 -0.34238109231E+02 -0.23814285712E+02  0.10467686273E+03  0.11277723138E+03  0.47000000000E+01 0.  1.
         11    1    6    6    0    0  0.85716396418E+02  0.20025827853E+02  0.32208092320E+03  0.33389288026E+03  0.00000000000E+00 0. -1.
        -12    1    6    6    0    0  0.23657096032E+02  0.15545119783E+02  0.40895129223E+03  0.40992983346E+03  0.00000000000E+00 0.  1.
</event>
<event>
12    1  0.8526130E-002  0.2536577E+03  0.7818608E-02  0.1111235E+00
         21   -1    0    0  503  502  0.00000000000E+00  0.00000000000E+00  0.19563706707E+03  0.19563706707E+03  0.00000000000E+00 0.  1.
         21   -1    0    0  501  503 -0.00000000000E+00 -0.00000000000E+00 -0.48469295727E+03  0.48469295727E+03  0.00000000000E+00 0.  1.
          6    2    1    2  501    0  0.16824560570E+03 -0.87434689239E+02 -0.33879320206E+03  0.42322930549E+03  0.16849570482E+03 0.  0.
         24    2    3    3    0    0  0.17381726219E+03 -0.68227848539E+02 -0.34664235653E+03  0.40123736807E+03  0.77220607639E+02 0.  0.
         -6    2    1    2    0  502 -0.16824560570E+03  0.87434689239E+02  0.49737311862E+02  0.25710071885E+03  0.16635976292E+03 0.  0.
        -24    2    5    5    0    0 -0.29679207907E+02  0.28949671430E+02 -0.21082212510E+02  0.90791852761E+02  0.77972828507E+02 0.  0.
          5    1    3    3  501    0 -0.55716564849E+01 -0.19206840700E+02  0.78491544696E+01  0.21991937421E+02  0.47000000000E+01 0. -1.
        -11    1    4    4    0    0  0.95158123490E+01  0.61730045745E+01 -0.70532947319E+02  0.71439158223E+02  0.00000000000E+00 0.  1.
         12    1    4    4    0    0  0.16430144984E+03 -0.74400853113E+02 -0.27610940921E+03  0.32979820985E+03  0.00000000000E+00 0. -1.
         -5    1    5    5    0  502 -0.13856639780E+03  0.58485017808E+02  0.70819524373E+02  0.16630886608E+03  0.47000000000E+01 0.  1.
         11    1    6    6    0    0  0.12964744074E+02 -0.19701512646E+02 -0.66937002862E+01  0.24516113333E+02  0.00000000000E+00 0. -1.
        -12    1    6    6    0    0 -0.42643951981E+02  0.48651184077E+02 -0.14388512224E+02  0.66275739427E+02  0.00000000000E+00 0.  1.
</event>
<event>
12    1  0.8526130E-002  0.1976134E+03  0.7818608E-02  0.1153793E+00
         21   -1    0    0  503  502  0.00000000000E+00  0.00000000000E+00  0.15316980999E+03  0.15316980999E+03  0.00000000000E+00 0. -1.
         21   -1    0    0  501  503 -0.00000000000E+00 -0.00000000000E+00 -0.46410388126E+03  0.46410388126E+03  0.00000000000E+00 0. -1.
          6    2    1    2  501    0 -0.67397968771E+02 -0.35881737689E+02 -0.36641977265E+03  0.41201848304E+03  0.17223761286E+03 0.  0.
         24    2    3    3    0    0 -0.28965681330E+02 -0.30392265184E+02 -0.72268440337E+02  0.11527908335E+03  0.79396719781E+02 0.  0.
         -6    2    1    2    0  502  0.67397968771E+02  0.35881737689E+02  0.55485701380E+02  0.20525520821E+03  0.18226643176E+03 0.  0.
        -24    2    5    5    0    0 -0.11109182273E+02  0.34854948913E+02  0.84002074934E+02  0.12159099471E+03  0.79935849316E+02 0.  0.
          5    1    3    3  501    0 -0.38432287440E+02 -0.54894725055E+01 -0.29415133231E+03  0.29673939969E+03  0.47000000000E+01 0. -1.
        -11    1    4    4    0    0 -0.48291851818E+02 -0.30872303251E+02 -0.76400380125E+02  0.95510314330E+02  0.00000000000E+00 0.  1.
         12    1    4    4    0    0  0.19326170488E+02  0.48003806730E+00  0.41319397888E+01  0.19768769023E+02  0.00000000000E+00 0. -1.
         -5    1    5    5    0  502  0.78507151044E+02  0.10267887759E+01 -0.28516373554E+02  0.83664213502E+02  0.47000000000E+01 0.  1.
         13    1    6    6    0    0 -0.35449668076E+02  0.26330079525E+02  0.12972605310E+02  0.46024347285E+02  0.00000000000E+00 0. -1.
        -14    1    6    6    0    0  0.24340485803E+02  0.85248693880E+01  0.71029469625E+02  0.75566647420E+02  0.00000000000E+00 0.  1.
</event>
<event>
12    1  0.8526130E-002  0.2015500E+03  0.7818608E-02  0.1148508E+00
         21   -1    0    0  501  502  0.00000000000E+00  0.00000000000E+00  0.52038758737E+03  0.52038758737E+03  0.00000000000E+00 0.  1.
         21   -1    0    0  502  503 -0.00000000000E+00 -0.00000000000E+00 -0.79541810481E+02  0.79541810481E+02  0.00000000000E+00 0.  1.
         -6    2    1    2    0  503  0.16310093935E+02  0.10274057921E+03  0.17792859895E+03  0.26885122467E+03  0.17262893414E+03 0.  0.
        -24    2    3    3    0    0 -0.31011725805E+02  0.12315700584E+03  0.13558013051E+03  0.20198069395E+03  0.79277069279E+02 0.  0.
          6    2    1    2  501    0 -0.16310093935E+02 -0.10274057921E+03  0.26291717793E+03  0.33107817317E+03  0.17223724486E+03 0.  0.
         24    2    5    5    0    0  0.12800714682E+02 -0.57407133115E+01  0.48625072230E+02  0.94013604478E+02  0.79229704605E+02 0.  0.
          5    1    5    5  501    0 -0.29110808618E+02 -0.96999865899E+02  0.21429210571E+03  0.23706456869E+03  0.47000000000E+01 0. -1.
        -11    1    6    6    0    0 -0.27950581381E+02  0.15678964133E+02  0.90425587132E+01  0.33299140888E+02  0.00000000000E+00 0.  1.
         12    1    6    6    0    0  0.40751296063E+02 -0.21419677445E+02  0.39582513517E+02  0.60714463589E+02  0.00000000000E+00 0. -1.
         -5    1    3    3    0  503  0.47321819740E+02 -0.20416426635E+02  0.42348468438E+02  0.66870530723E+02  0.47000000000E+01 0.  1.
         11    1    4    4    0    0  0.30219685961E+01  0.90237309511E+02  0.47596954242E+02  0.10206553961E+03  0.00000000000E+00 0. -1.
        -12    1    4    4    0    0 -0.34033694401E+02  0.32919696334E+02  0.87983176270E+02  0.99915154345E+02  0.00000000000E+00 0.  1.
</event>
<event>
12    1  0.8526130E-002  0.2653678E+03  0.7818608E-02  0.1104164E+00
         21   -1    0    0  503  502  0.00000000000E+00  0.00000000000E+00  0.64542602518E+03  0.64542602518E+03  0.00000000000E+00 0.  1.
         21   -1    0    0  501  503 -0.00000000000E+00 -0.00000000000E+00 -0.30547374427E+03  0.30547374427E+03  0.00000000000E+00 0. -1.
          6    2    1    2  501    0 -0.16815765936E+03 -0.10859395432E+03 -0.21161744851E+03  0.33941425858E+03  0.17421380282E+03 0.  0.
         24    2    3    3    0    0 -0.18873414671E+03 -0.12350909891E+03 -0.19665657506E+03  0.30955172177E+03  0.79204698658E+02 0.  0.
         -6    2    1    2    0  502  0.16815765936E+03  0.10859395432E+03  0.55156972942E+03  0.61148551088E+03  0.17209217962E+03 0.  0.
        -24    2    5    5    0    0  0.69254714780E+02  0.24779310906E+02  0.38738289308E+03  0.40223424057E+03  0.79477346900E+02 0.  0.
          5    1    3    3  501    0  0.20576487351E+02  0.14915144590E+02 -0.14960873455E+02  0.29862536804E+02  0.47000000000E+01 0. -1.
        -11    1    4    4    0    0 -0.12218148942E+03 -0.79456030705E+02 -0.74627621043E+02  0.16374021801E+03  0.00000000000E+00 0.  1.
         12    1    4    4    0    0 -0.66552657295E+02 -0.44053068208E+02 -0.12202895401E+03  0.14581150376E+03  0.00000000000E+00 0. -1.
         -5    1    5    5    0  502  0.98902944582E+02  0.83814643417E+02  0.16418683634E+03  0.20925127031E+03  0.47000000000E+01 0.  1.
         11    1    6    6    0    0 -0.14514964672E+02 -0.21492419667E+01  0.11645162618E+03  0.11737241873E+03  0.00000000000E+00 0. -1.
        -12    1    6    6    0    0  0.83769679451E+02  0.26928552873E+02  0.27093126690E+03  0.28486182184E+03  0.00000000000E+00 0.  1.
</event>
<event>
12    1  0.8526130E-002  0.1812774E+03  0.7818608E-02  0.1166804E+00
         21   -1    0    0  501  502  0.00000000000E+00  0.00000000000E+00  0.20178036000E+03  0.20178036000E+03  0.00000000000E+00 0. -1.
         21   -1    0    0  502  503 -0.00000000000E+00 -0.00000000000E+00 -0.16253765159E+03  0.16253765159E+03  0.00000000000E+00 0.  1.
         -6    2    1    2    0  503  0.33847210660E+01 -0.55875009359E+02  0.30125221560E+02  0.18281142322E+03  0.17140307605E+03 0.  0.
        -24    2    3    3    0    0  0.29353986506E+02 -0.39562507080E+02  0.80778533626E+02  0.12341152001E+03  0.79236249829E+02 0.  0.
          6    2    1    2  501    0 -0.33847210660E+01  0.55875009359E+02  0.91174868478E+01  0.18150658836E+03  0.17241821263E+03 0.  0.
         24    2    5    5    0    0  0.35114435064E+02  0.29830749389E+02 -0.51118450482E+02  0.10527702293E+03  0.79669683182E+02 0.  0.
          5    1    5    5  501    0 -0.38499156130E+02  0.26044259970E+02  0.60235937330E+02  0.76229565433E+02  0.47000000000E+01 0. -1.
        -13    1    6    6    0    0  0.11960759761E+02  0.26428735212E+02 -0.69634622251E+02  0.75435525020E+02  0.00000000000E+00 0.  1.
         14    1    6    6    0    0  0.23153675304E+02  0.34020141770E+01  0.18516171769E+02  0.29841497910E+02  0.00000000000E+00 0. -1.
         -5    1    3    3    0  503 -0.25969265440E+02 -0.16312502279E+02 -0.50653312066E+02  0.59399903210E+02  0.47000000000E+01 0.  1.
         13    1    4    4    0    0 -0.19590770227E+02 -0.26291956069E+02  0.64266505022E+01  0.33412079682E+02  0.00000000000E+00 0. -1.
        -14    1    4    4    0    0  0.48944756733E+02 -0.13270551011E+02  0.74351883124E+02  0.89999440331E+02  0.00000000000E+00 0.  1.
</event>
<event>
12    1  0.8526130E-002  0.1882742E+03  0.7818608E-02  0.1160193E+00
         21   -1    0    0  501  502  0.00000000000E+00  0.00000000000E+00  0.13354307780E+03  0.13354307780E+03  0.00000000000E+00 0. -1.
         21   -1    0    0  502  503 -0.00000000000E+00 -0.00000000000E+00 -0.34147292324E+03  0.34147292324E+03  0.00000000000E+00 0. -1.
         -6    2    1    2    0  503 -0.52280509090E+02  0.54217685201E+02 -0.21663409887E+03  0.28654070225E+03  0.17176272074E+03 0.  0.
        -24    2    3    3    0    0 -0.62209414179E+02  0.94410911977E+02 -0.12565669010E+03  0.18647543584E+03  0.78740414614E+02 0.  0.
          6    2    1    2  501    0  0.52280509090E+02 -0.54217685201E+02  0.87042534302E+01  0.18847529879E+03  0.17255249985E+03 0.  0.
         24    2    5    5    0    0 -0.13253881384E+02 -0.63084986752E+02 -0.35233615721E+02  0.10893906983E+03  0.80442105473E+02 0.  0.
          5    1    5    5  501    0  0.65534390474E+02  0.88673015511E+01  0.43937869151E+02  0.79536228959E+02  0.47000000000E+01 0. -1.
        -13    1    6    6    0    0 -0.21838170510E+02  0.13687496539E+02 -0.72148402083E+01  0.26763915482E+02  0.00000000000E+00 0.  1.
         14    1    6    6    0    0  0.85842891256E+01 -0.76772483291E+02 -0.28018775512E+02  0.82175154346E+02  0.00000000000E+00 0. -1.
         -5    1    3    3    0  503  0.99289050892E+01 -0.40193226776E+02 -0.90977408766E+02  0.10006526641E+03  0.47000000000E+01 0.  1.
         11    1    4    4    0    0 -0.62319865090E+02  0.30470427597E+02 -0.41685796302E+02  0.80931564647E+02  0.00000000000E+00 0. -1.
        -12    1    4    4    0    0  0.11045091154E+00  0.63940484380E+02 -0.83970893798E+02  0.10554387120E+03  0.00000000000E+00 0.  1.
</event>
<event>
12    1  0.8526130E-002  0.1953568E+03  0.7818608E-02  0.1153939E+00
         21   -1    0    0  503  502  0.00000000000E+00  0.00000000000E+00  0.19594629070E+04  0.19594629070E+04  0.00000000000E+00 0. -1.
         21   -1    0    0  501  503 -0.00000000000E+00 -0.00000000000E+00 -0.25378431888E+02  0.25378431888E+02  0.00000000000E+00 0. -1.
          6    2    1    2  501    0  0.44400643986E+02  0.77592697613E+02  0.48630548743E+03  0.52407756822E+03  0.17370154430E+03 0.  0.
         24    2    3    3    0    0 -0.14084577011E+02 -0.16372538504E+02  0.16395697348E+03  0.18322475376E+03  0.78885904392E+02 0.  0.
         -6    2    1    2    0  502 -0.44400643986E+02 -0.77592697613E+02  0.14477789876E+04  0.14607637706E+04  0.17255362249E+03 0.  0.
        -24    2    5    5    0    0  0.48115753737E+01  0.67790220340E+01  0.36785221282E+03  0.37641864173E+03  0.79414337281E+02 0.  0.
          5    1    3    3  501    0  0.58485220997E+02  0.93965236117E+02  0.32234851395E+03  0.34085281445E+03  0.47000000000E+01 0. -1.
        -13    1    4    4    0    0 -0.30291501488E+02 -0.21730177988E+02  0.29102042098E+02  0.47293810927E+02  0.00000000000E+00 0.  1.
         14    1    4    4    0    0  0.16206924476E+02  0.53576394841E+01  0.13485493138E+03  0.13593094283E+03  0.00000000000E+00 0. -1.
         -5    1    5    5    0  502 -0.49212219360E+02 -0.84371719647E+02  0.10799267748E+04  0.10843451289E+04  0.47000000000E+01 0.  1.
         11    1    6    6    0    0 -0.54994451086E+01 -0.29912337889E+02  0.26486503787E+03  0.26660547657E+03  0.00000000000E+00 0. -1.
        -12    1    6    6    0    0  0.10311020482E+02  0.36691359923E+02  0.10298717495E+03  0.10981316516E+03  0.00000000000E+00 0.  1.
</event>
<event>
12    1  0.8526130E-002  0.1894856E+03  0.7818608E-02  0.1159589E+00
         21   -1    0    0  503  502  0.00000000000E+00  0.00000000000E+00  0.58469397700E+02  0.58469397700E+02  0.00000000000E+00 0.  1.
         21   -1    0    0  501  503 -0.00000000000E+00 -0.00000000000E+00 -0.90294288246E+03  0.90294288246E+03  0.00000000000E+00 0.  1.
          6    2    1    2  501    0  0.70848169468E+01  0.76455068367E+02 -0.70068502921E+03  0.72585417895E+03  0.17323165655E+03 0.  0.
         24    2    3    3    0    0 -0.52866528150E+02  0.58983244159E+02 -0.30227855054E+03  0.32255622375E+03  0.79976887132E+02 0.  0.
         -6    2    1    2    0  502 -0.70848169468E+01 -0.76455068367E+02 -0.14378845554E+03  0.23555810120E+03  0.17004977796E+03 0.  0.
        -24    2    5    5    0    0  0.16167050419E+01 -0.98552979535E+00 -0.13763215938E+03  0.15919477414E+03  0.79979871308E+02 0.  0.
          5    1    3    3  501    0  0.59951345096E+02  0.17471824208E+02 -0.39840647867E+03  0.40329795520E+03  0.47000000000E+01 0. -1.
        -13    1    4    4    0    0 -0.52630294438E+02  0.27754708464E+02 -0.27413064525E+03  0.28051360466E+03  0.00000000000E+00 0.  1.
         14    1    4    4    0    0 -0.23623371140E+00  0.31228535695E+02 -0.28147905293E+02  0.42042619096E+02  0.00000000000E+00 0. -1.
         -5    1    5    5    0  502 -0.87015219886E+01 -0.75469538572E+02 -0.61562961620E+01  0.76363327059E+02  0.47000000000E+01 0.  1.
         11    1    6    6    0    0 -0.21435247999E+02  0.26454217507E+02 -0.28738631147E+02  0.44555632650E+02  0.00000000000E+00 0. -1.
        -12    1    6    6    0    0  0.23051953041E+02 -0.27439747302E+02 -0.10889352823E+03  0.11463914149E+03  0.00000000000E+00 0.  1.
</event>
<event>
12    1  0.8526130E-002  0.1865494E+03  0.7818608E-02  0.1161709E+00
         21   -1    0    0  503  502  0.00000000000E+00  0.00000000000E+00  0.19276142568E+03  0.19276142568E+03  0.00000000000E+00 0.  1.
         21   -1    0    0  501  503 -0.00000000000E+00 -0.00000000000E+00 -0.18125211840E+03  0.18125211840E+03  0.00000000000E+00 0.  1.
          6    2    1    2  501    0  0.63309364292E+02 -0.33383278141E+02 -0.89785586714E+01  0.18634247127E+03  0.17181496796E+03 0.  0.
         24    2    3    3    0    0  0.11854222835E+02 -0.65602550796E+02 -0.50083119885E+02  0.11287555310E+03  0.76081235005E+02 0.  0.
         -6    2    1    2    0  502 -0.63309364292E+02  0.33383278141E+02  0.20487865952E+02  0.18767107282E+03  0.17227350364E+03 0.  0.
        -24    2    5    5    0    0  0.25945779571E+02  0.87417104548E+00  0.35362508484E+02  0.91407540057E+02  0.80192790950E+02 0.  0.
          5    1    3    3  501    0  0.51455141456E+02  0.32219272655E+02  0.41104561213E+02  0.73466918169E+02  0.47000000000E+01 0. -1.
        -13    1    4    4    0    0  0.43502125250E+02 -0.29824967766E+02 -0.19908112999E+02  0.56376383058E+02  0.00000000000E+00 0.  1.
         14    1    4    4    0    0 -0.31647902415E+02 -0.35777583030E+02 -0.30175006885E+02  0.56499170040E+02  0.00000000000E+00 0. -1.
         -5    1    5    5    0  502 -0.89255143863E+02  0.32509107096E+02 -0.14874642533E+02  0.96263532766E+02  0.47000000000E+01 0.  1.
         11    1    6    6    0    0  0.24344417695E+02 -0.24237368311E+02  0.51214013931E+02  0.61668273192E+02  0.00000000000E+00 0. -1.
        -12    1    6    6    0    0  0.16013618757E+01  0.25111539357E+02 -0.15851505447E+02  0.29739266865E+02  0.00000000000E+00 0.  1.
</event>
<event>
12    1  0.8526130E-002  0.2132033E+03  0.7818608E-02  0.1139389E+00
         21   -1    0    0  503  502  0.00000000000E+00  0.00000000000E+00  0.43830245421E+03  0.43830245421E+03  0.00000000000E+00 0. -1.
         21   -1    0    0  501  503 -0.00000000000E+00 -0.00000000000E+00 -0.16527464123E+03  0.16527464123E+03  0.00000000000E+00 0. -1.
          6    2    1    2  501    0  0.11773872262E+03  0.38871079716E+02 -0.49263815056E+02  0.21714789469E+03  0.17132693031E+03 0.  0.
         24    2    3    3    0    0  0.82658355722E+02 -0.22994221905E+02 -0.84060476284E+02  0.13783304539E+03  0.67606558237E+02 0.  0.
         -6    2    1    2    0  502 -0.11773872262E+03 -0.38871079716E+02  0.32229162803E+03  0.38642920075E+03  0.17344239981E+03 0.  0.
        -24    2    5    5    0    0 -0.10572003369E+02 -0.78291467740E+01  0.22282629155E+03  0.23688405547E+03  0.79305969110E+02 0.  0.
          5    1    3    3  501    0  0.35080366899E+02  0.61865301620E+02  0.34796661228E+02  0.79314849297E+02  0.47000000000E+01 0. -1.
        -11    1    4    4    0    0  0.99541460027E+01 -0.22453556460E+02  0.26163896744E+01  0.24700054965E+02  0.00000000000E+00 0.  1.
         12    1    4    4    0    0  0.72704209719E+02 -0.54066544456E+00 -0.86676865958E+02  0.11313299042E+03  0.00000000000E+00 0. -1.
         -5    1    5    5    0  502 -0.10716671925E+03 -0.31041932942E+02  0.99465336484E+02  0.14954514528E+03  0.47000000000E+01 0.  1.
         13    1    6    6    0    0 -0.33495162264E+02 -0.10185349408E+02  0.20440669199E+03  0.20738313086E+03  0.00000000000E+00 0. -1.
        -14    1    6    6    0    0  0.22923158895E+02  0.23562026345E+01  0.18419599558E+02  0.29500924603E+02  0.00000000000E+00 0.  1.
</event>
<event>
12    1  0.8526130E-002  0.2199458E+03  0.7818608E-02  0.1134152E+00
         21   -1    0    0  503  502  0.00000000000E+00  0.00000000000E+00  0.35389416087E+03  0.35389416087E+03  0.00000000000E+00 0.  1.
         21   -1    0    0  501  503 -0.00000000000E+00 -0.00000000000E+00 -0.20404890734E+03  0.20404890734E+03  0.00000000000E+00 0. -1.
          6    2    1    2  501    0  0.76006428462E+02  0.11060051470E+03 -0.86113370737E+02  0.23620262938E+03  0.17426049032E+03 0.  0.
         24    2    3    3    0    0 -0.24071006776E+02  0.77083716262E+02 -0.52631260443E+02  0.12537839678E+03  0.80177179571E+02 0.  0.
         -6    2    1    2    0  502 -0.76006428462E+02 -0.11060051470E+03  0.23595862427E+03  0.32174043882E+03  0.17271649194E+03 0.  0.
        -24    2    5    5    0    0  0.19565524465E+02 -0.55862024761E+02  0.64165577757E+02  0.11761978505E+03  0.78827767370E+02 0.  0.
          5    1    3    3  501    0  0.10007743524E+03  0.33516798442E+02 -0.33482110294E+02  0.11082423260E+03  0.47000000000E+01 0. -1.
        -11    1    4    4    0    0  0.15983500716E+02 -0.58355333766E+01  0.37209893949E+01  0.17417563177E+02  0.00000000000E+00 0.  1.
         12    1    4    4    0    0 -0.40054507492E+02  0.82919249639E+02 -0.56352249838E+02  0.10796083361E+03  0.00000000000E+00 0. -1.
         -5    1    5    5    0  502 -0.95571952927E+02 -0.54738489943E+02  0.17179304651E+03  0.20412065377E+03  0.47000000000E+01 0.  1.
         11    1    6    6    0    0  0.58230174974E+01  0.19794099944E+02  0.69408877372E+01  0.21769011184E+02  0.00000000000E+00 0. -1.
        -12    1    6    6    0    0  0.13742506968E+02 -0.75656124704E+02  0.57224690020E+02  0.95850773867E+02  0.00000000000E+00 0.  1.
</event>
<event>
12    1  0.8526130E-002  0.2407301E+03  0.7818608E-02  0.1120983E+00
         21   -1    0    0  501  502  0.00000000000E+00  0.00000000000E+00  0.89087106184E+03  0.89087106184E+03  0.00000000000E+00 0.  1.
         21   -1    0    0  502  503 -0.00000000000E+00 -0.00000000000E+00 -0.10027683600E+03  0.10027683600E+03  0.00000000000E+00 0.  1.
         -6    2    1    2    0  503  0.93836265519E+01 -0.16794385400E+03  0.95949293032E+02  0.25914718336E+03  0.17221441655E+03 0.  0.
        -24    2    3    3    0    0  0.21169346293E+02 -0.33981138290E+02  0.87069437980E+02  0.12429224569E+03  0.79149329285E+02 0.  0.
          6    2    1    2  501    0 -0.93836265519E+01  0.16794385400E+03  0.69464493280E+03  0.73200071448E+03  0.15811474565E+03 0.  0.
         24    2    5    5    0    0 -0.10952290592E+01  0.10791846176E+03  0.62498465428E+03  0.63955402904E+03  0.82316122713E+02 0.  0.
          5    1    5    5  501    0 -0.82883974927E+01  0.60025392233E+02  0.69660278522E+02  0.92446685444E+02  0.47000000000E+01 0. -1.
        -13    1    6    6    0    0  0.47335058507E+01  0.80928892017E+02  0.23493671978E+03  0.24852998600E+03  0.00000000000E+00 0.  1.
         14    1    6    6    0    0 -0.58287349099E+01  0.26989569746E+02  0.39004793450E+03  0.39102404304E+03  0.00000000000E+00 0. -1.
         -5    1    3    3    0  503 -0.11785719741E+02 -0.13396271571E+03  0.88798550523E+01  0.13485493767E+03  0.47000000000E+01 0.  1.
         11    1    4    4    0    0  0.25898524428E+02  0.12313936237E+02  0.38352673562E+01  0.28932263459E+02  0.00000000000E+00 0. -1.
        -12    1    4    4    0    0 -0.47291781350E+01 -0.46295074528E+02  0.83234170623E+02  0.95359982229E+02  0.00000000000E+00 0.  1.
</event>
<event>
12    1  0.8526130E-002  0.1799768E+03  0.7818608E-02  0.1168068E+00
         21   -1    0    0  503  502  0.00000000000E+00  0.00000000000E+00  0.12472870201E+03  0.12472870201E+03  0.00000000000E+00 0.  1.
         21   -1    0    0  501  503 -0.00000000000E+00 -0.00000000000E+00 -0.81436974698E+03  0.81436974698E+03  0.00000000000E+00 0.  1.
          6    2    1    2  501    0  0.43049079066E+02 -0.27579028657E+02 -0.73314080028E+03  0.75490866651E+03  0.17256255596E+03 0.  0.
         24    2    3    3    0    0  0.38768559510E+02 -0.56150845556E+02 -0.25611684754E+03  0.27698752966E+03  0.80438382196E+02 0.  0.
         -6    2    1    2    0  502 -0.43049079066E+02  0.27579028657E+02  0.43499755295E+02  0.18418978248E+03  0.17152207213E+03 0.  0.
        -24    2    5    5    0    0 -0.25852265053E+02 -0.49946715985E+02  0.10724375218E+02  0.98153237718E+02  0.79724725178E+02 0.  0.
          5    1    3    3  501    0  0.42805195556E+01  0.28571816899E+02 -0.47702395273E+03  0.47792113685E+03  0.47000000000E+01 0. -1.
        -11    1    4    4    0    0  0.24742120089E+02 -0.83582171582E+01 -0.20103917622E+03  0.20272834699E+03  0.00000000000E+00 0.  1.
         12    1    4    4    0    0  0.14026439421E+02 -0.47792628398E+02 -0.55077671323E+02  0.74259182667E+02  0.00000000000E+00 0. -1.
         -5    1    5    5    0  502 -0.17196814013E+02  0.77525744642E+02  0.32775380077E+02  0.86036544757E+02  0.47000000000E+01 0.  1.
         13    1    6    6    0    0  0.19296959141E+02 -0.70000756597E+01 -0.20015836729E+02  0.28670671623E+02  0.00000000000E+00 0. -1.
        -14    1    6    6    0    0 -0.45149224195E+02 -0.42946640325E+02  0.30740211947E+02  0.69482566095E+02  0.00000000000E+00 0.  1.
</event>
<event>
12    1  0.8526130E-002  0.2640481E+03  0.7818608E-02  0.1104886E+00
         21   -1    0    0  503  502  0.00000000000E+00  0.00000000000E+00  0.44634944812E+02  0.44634944812E+02  0.00000000000E+00 0.  1.
         21   -1    0    0  501  503 -0.00000000000E+00 -0.00000000000E+00 -0.15992203588E+04  0.15992203588E+04  0.00000000000E+00 0.  1.
          6    2    1    2  501    0 -0.19441036701E+03 -0.41202978071E+02 -0.91386662046E+03  0.95124844401E+03  0.17386295185E+03 0.  0.
         24    2    3    3    0    0 -0.19683272940E+03 -0.55151988652E+02 -0.90962646830E+03  0.93574000675E+03  0.80026140660E+02 0.  0.
         -6    2    1    2    0  502  0.19441036701E+03  0.41202978071E+02 -0.64071879349E+03  0.69260685957E+03  0.17230964393E+03 0.  0.
        -24    2    5    5    0    0  0.33329657573E+02 -0.84655701179E+01 -0.30813881381E+03  0.31971881670E+03  0.78026029156E+02 0.  0.
          5    1    3    3  501    0  0.24223623886E+01  0.13949010581E+02 -0.42401521642E+01  0.15508437256E+02  0.47000000000E+01 0. -1.
        -13    1    4    4    0    0 -0.47813761395E+02 -0.47833448526E+02 -0.35566692730E+03  0.36204027090E+03  0.00000000000E+00 0.  1.
         14    1    4    4    0    0 -0.14901896800E+03 -0.73185401267E+01 -0.55395954100E+03  0.57369973585E+03  0.00000000000E+00 0. -1.
         -5    1    5    5    0  502  0.16108070943E+03  0.49668548189E+02 -0.33257997968E+03  0.37288804287E+03  0.47000000000E+01 0.  1.
         13    1    6    6    0    0  0.37250678412E+02  0.24118014637E+02 -0.24024390441E+03  0.24430805406E+03  0.00000000000E+00 0. -1.
        -14    1    6    6    0    0 -0.39210208389E+01 -0.32583584755E+02 -0.67894909400E+02  0.75410762643E+02  0.00000000000E+00 0.  1.
</event>
<event>
12    1  0.8526130E-002  0.2076344E+03  0.7818608E-02  0.1143885E+00
         21   -1    0    0  501  502  0.00000000000E+00  0.00000000000E+00  0.17975732247E+04  0.17975732247E+04  0.00000000000E+00 0.  1.
         21   -1    0    0  502  503 -0.00000000000E+00 -0.00000000000E+00 -0.23745564756E+02  0.23745564756E+02  0.00000000000E+00 0.  1.
         -6    2    1    2    0  503  0.42550831781E+01 -0.11386379432E+03  0.90866409453E+03  0.93208500967E+03  0.17357695460E+03 0.  0.
        -24    2    3    3    0    0 -0.46405313557E+01  0.11011896518E+02  0.31191683494E+03  0.32232895029E+03  0.80380618801E+02 0.  0.
          6    2    1    2  501    0 -0.42550831781E+01  0.11386379432E+03  0.86516356541E+03  0.88923377979E+03  0.17101359833E+03 0.  0.
         24    2    5    5    0    0 -0.79445533330E+00  0.14441147167E+03  0.80091941373E+03  0.81785775047E+03  0.81019061939E+02 0.  0.
          5    1    5    5  501    0 -0.34606278448E+01 -0.30547677351E+02  0.64244151675E+02  0.71376029317E+02  0.47000000000E+01 0. -1.
        -13    1    6    6    0    0 -0.16125372091E+02  0.31305982322E+02  0.38352976861E+03  0.38514305857E+03  0.00000000000E+00 0.  1.
         14    1    6    6    0    0  0.15330916758E+02  0.11310548935E+03  0.41738964512E+03  0.43271469190E+03  0.00000000000E+00 0. -1.
         -5    1    3    3    0  503  0.88956145339E+01 -0.12487569083E+03  0.59674725959E+03  0.60975605938E+03  0.47000000000E+01 0.  1.
         13    1    4    4    0    0 -0.25520708713E+02  0.64780789588E+01  0.29178972478E+03  0.29297528150E+03  0.00000000000E+00 0. -1.
        -14    1    4    4    0    0  0.20880177358E+02  0.45338175589E+01  0.20127110156E+02  0.29353668789E+02  0.00000000000E+00 0.  1.
</event>
<event>
12    1  0.8526130E-002  0.1785176E+03  0.7818608E-02  0.1169247E+00
         21   -1    0    0  503  502  0.00000000000E+00  0.00000000000E+00  0.46394269156E+03  0.46394269156E+03  0.00000000000E+00 0.  1.
         21   -1    0    0  501  503 -0.00000000000E+00 -0.00000000000E+00 -0.13648574060E+03  0.13648574060E+03  0.00000000000E+00 0.  1.
          6    2    1    2  501    0  0.14036833169E+02 -0.42434247586E+02 -0.47859481726E+02  0.18482167449E+03  0.17283177751E+03 0.  0.
         24    2    3    3    0    0  0.53806852302E+02  0.23361488247E+02 -0.16536483686E+02  0.10167148819E+03  0.81379971313E+02 0.  0.
         -6    2    1    2    0  502 -0.14036833169E+02  0.42434247586E+02  0.37531643268E+03  0.41560675766E+03  0.17282608114E+03 0.  0.
        -24    2    5    5    0    0  0.15788462866E+02  0.87313153485E+02  0.30053458518E+03  0.32331331698E+03  0.79609055469E+02 0.  0.
          5    1    3    3  501    0 -0.39770019133E+02 -0.65795735834E+02 -0.31322998040E+02  0.83150186301E+02  0.47000000000E+01 0. -1.
        -13    1    4    4    0    0  0.76993505364E+01 -0.11619263422E+02 -0.37585814048E+02  0.40087163766E+02  0.00000000000E+00 0.  1.
         14    1    4    4    0    0  0.46107501765E+02  0.34980751670E+02  0.21049330362E+02  0.61584324427E+02  0.00000000000E+00 0. -1.
         -5    1    5    5    0  502 -0.29825296035E+02 -0.44878905899E+02  0.74781847497E+02  0.92293440684E+02  0.47000000000E+01 0.  1.
         11    1    6    6    0    0 -0.24759635144E+01  0.59590515416E+00 -0.47699185399E+01  0.54071823675E+01  0.00000000000E+00 0. -1.
        -12    1    6    6    0    0  0.18264426380E+02  0.86717248331E+02  0.30530450372E+03  0.31790613461E+03  0.00000000000E+00 0.  1.
</event>
<event>
12    1  0.8526130E-002  0.2075101E+03  0.7818608E-02  0.1143678E+00
         21   -1    0    0  503  502  0.00000000000E+00  0.00000000000E+00  0.63755809496E+02  0.63755809496E+02  0.00000000000E+00 0. -1.
         21   -1    0    0  501  503 -0.00000000000E+00 -0.00000000000E+00 -0.72977610883E+03  0.72977610883E+03  0.00000000000E+00 0.  1.
          6    2    1    2  501    0 -0.86572762070E+02 -0.73879995242E+02 -0.44376513409E+03  0.48988562333E+03  0.17351464748E+03 0.  0.
         24    2    3    3    0    0 -0.93075030618E+02 -0.43472521362E+00 -0.34757286460E+03  0.36859452764E+03  0.79949229445E+02 0.  0.
         -6    2    1    2    0  502  0.86572762070E+02  0.73879995242E+02 -0.22225516524E+03  0.30364629499E+03  0.17277331146E+03 0.  0.
        -24    2    5    5    0    0  0.12708688327E+03  0.67141434551E+02 -0.18392133204E+03  0.24726921644E+03  0.81584072511E+02 0.  0.
          5    1    3    3  501    0  0.65022685480E+01 -0.73445270028E+02 -0.96192269487E+02  0.12129109570E+03  0.47000000000E+01 0. -1.
        -11    1    4    4    0    0  0.69212401302E+01 -0.14526382379E+02 -0.19234667457E+02  0.25077714851E+02  0.00000000000E+00 0.  1.
         12    1    4    4    0    0 -0.99996270749E+02  0.14091657165E+02 -0.32833819714E+03  0.34351681279E+03  0.00000000000E+00 0. -1.
         -5    1    5    5    0  502 -0.40514121203E+02  0.67385606906E+01 -0.38333833205E+02  0.56377078545E+02  0.47000000000E+01 0.  1.
         11    1    6    6    0    0  0.73957488263E+02 -0.19788178203E+01 -0.57492161466E+02  0.93696181460E+02  0.00000000000E+00 0. -1.
        -12    1    6    6    0    0  0.53129395010E+02  0.69120252372E+02 -0.12642917057E+03  0.15357303498E+03  0.00000000000E+00 0.  1.
</event>
<event>
12    1  0.8526130E-002  0.2772819E+03  0.7818608E-02  0.1097290E+00
         21   -1    0    0  503  502  0.00000000000E+00  0.00000000000E+00  0.62709585591E+02  0.62709585591E+02  0.00000000000E+00 0. -1.
         21   -1    0    0  501  503 -0.00000000000E+00 -0.00000000000E+00 -0.24191695419E+04  0.24191695419E+04  0.00000000000E+00 0.  1.
          6    2    1    2  501    0  0.74384073880E+02  0.20419776685E+03 -0.20517967271E+04  0.20704480314E+04  0.17220779109E+03 0.  0.
         24    2    3    3    0    0  0.80732767150E+02  0.22130858901E+03 -0.19995669491E+04  0.20149221290E+04  0.78408740388E+02 0.  0.
         -6    2    1    2    0  502 -0.74384073880E+02 -0.20419776685E+03 -0.30466322929E+03  0.41143109609E+03  0.17095655914E+03 0.  0.
        -24    2    5    5    0    0 -0.74915650109E+02 -0.97415813702E+02 -0.90263423317E+02  0.17186474851E+03  0.79295717417E+02 0.  0.
          5    1    3    3  501    0 -0.63486932702E+01 -0.17110822164E+02 -0.52229777950E+02  0.55525902478E+02  0.47000000000E+01 0. -1.
        -11    1    4    4    0    0  0.50729907843E+02  0.49129642955E+02 -0.72430237291E+03  0.72773702171E+03  0.00000000000E+00 0.  1.
         12    1    4    4    0    0  0.30002859307E+02  0.17217894605E+03 -0.12752645762E+04  0.12871851073E+04  0.00000000000E+00 0. -1.
         -5    1    5    5    0  502  0.53157622913E+00 -0.10678195314E+03 -0.21439980597E+03  0.23956634758E+03  0.47000000000E+01 0.  1.
         11    1    6    6    0    0 -0.35226362499E+02 -0.79380393091E+02 -0.94161648997E+02  0.12809589987E+03  0.00000000000E+00 0. -1.
        -12    1    6    6    0    0 -0.39689287610E+02 -0.18035420612E+02  0.38982256799E+01  0.43768848638E+02  0.00000000000E+00 0.  1.
</event>
<event>
12    1  0.8526130E-002  0.2487559E+03  0.7818608E-02  0.1114196E+00
         21   -1    0    0  501  502  0.00000000000E+00  0.00000000000E+00  0.11113270085E+03  0.11113270085E+03  0.00000000000E+00 0. -1.
         21   -1    0    0  502  503 -0.00000000000E+00 -0.00000000000E+00 -0.56286994508E+03  0.56286994508E+03  0.00000000000E+00 0.  1.
         -6    2    1    2    0  503 -0.11664465710E+03 -0.13466719483E+03 -0.18666981950E+03  0.31049165784E+03  0.17267952595E+03 0.  0.
        -24    2    3    3    0    0 -0.15073308227E+02 -0.17224100844E+02 -0.10992284008E+03  0.13722363400E+03  0.78888660054E+02 0.  0.
          6    2    1    2  501    0  0.11664465710E+03  0.13466719483E+03 -0.26506742473E+03  0.36351098809E+03  0.17360377131E+03 0.  0.
         24    2    5    5    0    0  0.14450369134E+03  0.14304317511E+03 -0.24608165149E+03  0.32845628198E+03  0.77360734353E+02 0.  0.
          5    1    5    5  501    0 -0.27859034239E+02 -0.83759802782E+01 -0.18985773247E+02  0.35054706106E+02  0.47000000000E+01 0. -1.
        -11    1    6    6    0    0  0.10211934562E+03  0.13899793565E+03 -0.21555547782E+03  0.27606693189E+03  0.00000000000E+00 0.  1.
         12    1    6    6    0    0  0.42384345717E+02  0.40452394543E+01 -0.30526173668E+02  0.52389350091E+02  0.00000000000E+00 0. -1.
         -5    1    3    3    0  503 -0.10157134887E+03 -0.11744309399E+03 -0.76746979419E+02  0.17326802384E+03  0.47000000000E+01 0.  1.
         11    1    4    4    0    0 -0.17297278209E+02 -0.23406879277E+02 -0.20778615588E+01  0.29178679538E+02  0.00000000000E+00 0. -1.
        -12    1    4    4    0    0  0.22239699814E+01  0.61827784335E+01 -0.10784497852E+03  0.10804495446E+03  0.00000000000E+00 0.  1.
</event>
<event>
12    1  0.8526130E-002  0.2377919E+03  0.7818608E-02  0.1121381E+00
         21   -1    0    0  503  502  0.00000000000E+00  0.00000000000E+00  0.10900323452E+03  0.10900323452E+03  0.00000000000E+00 0. -1.
         21   -1    0    0  501  503 -0.00000000000E+00 -0.00000000000E+00 -0.52861838058E+03  0.52861838058E+03  0.00000000000E+00 0.  1.
          6    2    1    2  501    0 -0.16230221611E+03  0.11068750769E+02 -0.25608869769E+03  0.34902868706E+03  0.17255456154E+03 0.  0.
         24    2    3    3    0    0 -0.35030104549E+02 -0.36500660876E+02 -0.14715720760E+03  0.17481847255E+03  0.79667108189E+02 0.  0.
         -6    2    1    2    0  502  0.16230221611E+03 -0.11068750769E+02 -0.16352644838E+03  0.28859292804E+03  0.17343717076E+03 0.  0.
        -24    2    5    5    0    0  0.61487316655E+02 -0.76082470101E+01 -0.45432016975E+01  0.10024914194E+03  0.78680837860E+02 0.  0.
          5    1    3    3  501    0 -0.12727211157E+03  0.47569411645E+02 -0.10893149009E+03  0.17421021451E+03  0.47000000000E+01 0. -1.
        -11    1    4    4    0    0 -0.44751669452E+02  0.73610162583E+01 -0.99362198077E+02  0.10922336236E+03  0.00000000000E+00 0.  1.
         12    1    4    4    0    0  0.97215649037E+01 -0.43861677135E+02 -0.47795009519E+02  0.65595110185E+02  0.00000000000E+00 0. -1.
         -5    1    5    5    0  502  0.10081489946E+03 -0.34605037587E+01 -0.15898324668E+03  0.18834378610E+03  0.47000000000E+01 0.  1.
         13    1    6    6    0    0  0.31514075806E+02 -0.37083895598E+02  0.18792781432E+02  0.52168198364E+02  0.00000000000E+00 0. -1.
        -14    1    6    6    0    0  0.29973240849E+02  0.29475648587E+02 -0.23335983130E+02  0.48080943577E+02  0.00000000000E+00 0.  1.
</event>
<event>
12    1  0.8526130E-002  0.1785589E+03  0.7818608E-02  0.1169838E+00
         21   -1    0    0  503  502  0.00000000000E+00  0.00000000000E+00  0.25361486006E+03  0.25361486006E+03  0.00000000000E+00 0.  1.
         21   -1    0    0  501  503 -0.00000000000E+00 -0.00000000000E+00 -0.20320369652E+03  0.20320369652E+03  0.00000000000E+00 0.  1.
          6    2    1    2  501    0 -0.41171762835E+02 -0.18167103879E+02 -0.11758256838E+03  0.21165500834E+03  0.17013825099E+03 0.  0.
         24    2    3    3    0    0 -0.62476260693E+02  0.27414450120E+02 -0.12144604420E+03  0.16097388622E+03  0.80675988786E+02 0.  0.
         -6    2    1    2    0  502  0.41171762835E+02  0.18167103879E+02  0.16799373192E+03  0.24516354824E+03  0.17279500486E+03 0.  0.
        -24    2    5    5    0    0 -0.39263457633E+02  0.24177985570E+02  0.11871808096E+03  0.15052668879E+03  0.80237816505E+02 0.  0.
          5    1    3    3  501    0  0.21304497858E+02 -0.45581553998E+02  0.38634758222E+01  0.50681122120E+02  0.47000000000E+01 0. -1.
        -11    1    4    4    0    0 -0.43704762940E+02 -0.21234721836E+02 -0.34509672949E+02  0.59598131197E+02  0.00000000000E+00 0.  1.
         12    1    4    4    0    0 -0.18771497754E+02  0.48649171956E+02 -0.86936371250E+02  0.10137575502E+03  0.00000000000E+00 0. -1.
         -5    1    5    5    0  502  0.80435220469E+02 -0.60108816915E+01  0.49275650960E+02  0.94636859458E+02  0.47000000000E+01 0.  1.
         13    1    6    6    0    0 -0.51025769295E+02  0.28273489698E+02  0.39770037273E+02  0.70602232376E+02  0.00000000000E+00 0. -1.
        -14    1    6    6    0    0  0.11762311661E+02 -0.40955041285E+01  0.78948043691E+02  0.79924456409E+02  0.00000000000E+00 0.  1.
</event>
<event>
12    1  0.8526130E-002  0.1776420E+03  0.7818608E-02  0.1170148E+00
         21   -1    0    0  503  502  0.00000000000E+00  0.00000000000E+00  0.16379633242E+03  0.16379633242E+03  0.00000000000E+00 0. -1.
         21   -1    0    0  501  503 -0.00000000000E+00 -0.00000000000E+00 -0.36908647664E+03  0.36908647664E+03  0.00000000000E+00 0. -1.
          6    2    1    2  501    0  0.14283912101E+02 -0.42116518745E+02 -0.28698342214E+03  0.33751469850E+03  0.17198504536E+03 0.  0.
         24    2    3    3    0    0  0.37002673327E+02  0.17749864998E+02 -0.74769676028E+02  0.11580116700E+03  0.78327200153E+02 0.  0.
         -6    2    1    2    0  502 -0.14283912101E+02  0.42116518745E+02  0.81693277920E+02  0.19536811056E+03  0.17180534238E+03 0.  0.
        -24    2    5    5    0    0 -0.45102138811E+02 -0.23818419455E+02  0.79029908876E+02  0.12238617644E+03  0.78301530352E+02 0.  0.
          5    1    3    3  501    0 -0.22718761226E+02 -0.59866383743E+02 -0.21221374611E+03  0.22171353150E+03  0.47000000000E+01 0. -1.
        -13    1    4    4    0    0  0.81352136675E+01 -0.66878714114E+01  0.15035156169E+02  0.18356613153E+02  0.00000000000E+00 0.  1.
         14    1    4    4    0    0  0.28867459659E+02  0.24437736410E+02 -0.89804832197E+02  0.97444553845E+02  0.00000000000E+00 0. -1.
         -5    1    5    5    0  502  0.30818226710E+02  0.65934938200E+02  0.26633690440E+01  0.72981934118E+02  0.47000000000E+01 0.  1.
         13    1    6    6    0    0 -0.32485989570E+02  0.24141402265E+02  0.52037834116E+02  0.65924828412E+02  0.00000000000E+00 0. -1.
        -14    1    6    6    0    0 -0.12616149241E+02 -0.47959821720E+02  0.26992074760E+02  0.56461348026E+02  0.00000000000E+00 0.  1.
</event>
<event>
12    1  0.8526130E-002  0.2135609E+03  0.7818608E-02  0.1138813E+00
         21   -1    0    0  503  502  0.00000000000E+00  0.00000000000E+00  0.19702793174E+03  0.19702793174E+03  0.00000000000E+00 0.  1.
         21   -1    0    0  501  503 -0.00000000000E+00 -0.00000000000E+00 -0.69917921688E+03  0.69917921688E+03  0.00000000000E+00 0. -1.
          6    2    1    2  501    0 -0.64168968531E+02  0.11377295398E+03 -0.61761303375E+03  0.65343223100E+03  0.16871834364E+03 0.  0.
         24    2    3    3    0    0  0.27531876230E+01  0.11501494599E+03 -0.47845243655E+03  0.49893990323E+03  0.82390989497E+02 0.  0.
         -6    2    1    2    0  502  0.64168968531E+02 -0.11377295398E+03  0.11546174861E+03  0.24277491761E+03  0.16895651408E+03 0.  0.
        -24    2    5    5    0    0 -0.71891408406E+01 -0.10247812517E+03  0.10815262539E+03  0.17000771200E+03  0.81560908996E+02 0.  0.
          5    1    3    3  501    0 -0.66922156154E+02 -0.12419920164E+01 -0.13916059720E+03  0.15449232778E+03  0.47000000000E+01 0. -1.
        -11    1    4    4    0    0  0.38789805271E+02  0.88530957184E+02 -0.31702046734E+03  0.33142775394E+03  0.00000000000E+00 0.  1.
         12    1    4    4    0    0 -0.36036617648E+02  0.26483988809E+02 -0.16143196921E+03  0.16751214928E+03  0.00000000000E+00 0. -1.
         -5    1    5    5    0  502  0.71358109372E+02 -0.11294828809E+02  0.73091232194E+01  0.72767205616E+02  0.47000000000E+01 0.  1.
         13    1    6    6    0    0  0.69092175324E+01 -0.33419666703E+02 -0.71513305896E+01  0.34867648883E+02  0.00000000000E+00 0. -1.
        -14    1    6    6    0    0 -0.14098358373E+02 -0.69058458464E+02  0.11530395598E+03  0.13514006311E+03  0.00000000000E+00 0.  1.
</event>
<event>
12    1  0.8526130E-002  0.2318366E+03  0.7818608E-02  0.1125875E+00
         21   -1    0    0  503  502  0.00000000000E+00  0.00000000000E+00  0.33616366264E+03  0.33616366264E+03  0.00000000000E+00 0.  1.
         21   -1    0    0  501  503 -0.00000000000E+00 -0.00000000000E+00 -0.29968034173E+03  0.29968034173E+03  0.00000000000E+00 0. -1.
          6    2    1    2  501    0 -0.15390631525E+03 -0.25646178693E+02 -0.20053583622E+03  0.30429268754E+03  0.16743517470E+03 0.  0.
         24    2    3    3    0    0 -0.98668062400E+02 -0.20415188197E+01 -0.20264399158E+03  0.24400190164E+03  0.93449378498E+02 0.  0.
         -6    2    1    2    0  502  0.15390631525E+03  0.25646178693E+02  0.23701915713E+03  0.33155131682E+03  0.17147394697E+03 0.  0.
        -24    2    5    5    0    0  0.52020480414E+02  0.73832198396E+02  0.11108008873E+03  0.16247927661E+03  0.76833620974E+02 0.  0.
          5    1    3    3  501    0 -0.55238252848E+02 -0.23604659873E+02  0.21081553645E+01  0.60290785900E+02  0.47000000000E+01 0. -1.
        -11    1    4    4    0    0 -0.83031376905E+02 -0.19407775499E+02 -0.72941692716E+02  0.11221123757E+03  0.00000000000E+00 0.  1.
         12    1    4    4    0    0 -0.15636685495E+02  0.17366256679E+02 -0.12970229887E+03  0.13179066407E+03  0.00000000000E+00 0. -1.
         -5    1    5    5    0  502  0.10188583483E+03 -0.48186019703E+02  0.12593906840E+03  0.16907204022E+03  0.47000000000E+01 0.  1.
         11    1    6    6    0    0  0.52687657227E+02  0.54561511971E+02  0.34171570823E+02  0.83190408492E+02  0.00000000000E+00 0. -1.
        -12    1    6    6    0    0 -0.66717681273E+00  0.19270686425E+02  0.76908517907E+02  0.79288868115E+02  0.00000000000E+00 0.  1.
</event>
<event>
12    1  0.8526130E-002  0.1916875E+03  0.7818608E-02  0.1157137E+00
         21   -1    0    0  503  502  0.00000000000E+00  0.00000000000E+00  0.36290492527E+02  0.36290492527E+02  0.00000000000E+00 0. -1.
         21   -1    0    0  501  503 -0.00000000000E+00 -0.00000000000E+00 -0.11113157512E+04  0.11113157512E+04  0.00000000000E+00 0.  1.
          6    2    1    2  501    0 -0.28922632688E+02 -0.78216964648E+02 -0.71135301153E+03  0.73650817766E+03  0.17165889580E+03 0.  0.
         24    2    3    3    0    0 -0.57604223096E+02 -0.17337215620E+00 -0.44695017321E+03  0.45929997636E+03  0.88734065463E+02 0.  0.
         -6    2    1    2    0  502  0.28922632688E+02  0.78216964648E+02 -0.36367224714E+03  0.41109806606E+03  0.17259694187E+03 0.  0.
        -24    2    5    5    0    0  0.40593267270E+02 -0.39793463064E+01 -0.10889038496E+03  0.14308999801E+03  0.83390545322E+02 0.  0.
          5    1    3    3  501    0  0.28681590408E+02 -0.78043592492E+02 -0.26440283832E+03  0.27720820130E+03  0.47000000000E+01 0. -1.
        -13    1    4    4    0    0 -0.68311285002E+02 -0.22893400030E+02 -0.39594275908E+03  0.40244404318E+03  0.00000000000E+00 0.  1.
         14    1    4    4    0    0  0.10707061906E+02  0.22720027874E+02 -0.51007414130E+02  0.56855933178E+02  0.00000000000E+00 0. -1.
         -5    1    5    5    0  502 -0.11670634582E+02  0.82196310955E+02 -0.25478186218E+03  0.26800806806E+03  0.47000000000E+01 0.  1.
         11    1    6    6    0    0 -0.51378240311E+01 -0.32766908315E+02 -0.66847780200E+02  0.74623677436E+02  0.00000000000E+00 0. -1.
        -12    1    6    6    0    0  0.45731091301E+02  0.28787562008E+02 -0.42042604757E+02  0.68466320573E+02  0.00000000000E+00 0.  1.
</event>
<event>
12    1  0.8526130E-002  0.1936860E+03  0.7818608E-02  0.1155220E+00
         21   -1    0    0  501  502  0.00000000000E+00  0.00000000000E+00  0.22529396226E+03  0.22529396226E+03  0.00000000000E+00 0.  1.
         21   -1    0    0  502  503 -0.00000000000E+00 -0.00000000000E+00 -0.19462529242E+03  0.19462529242E+03  0.00000000000E+00 0.  1.
         -6    2    1    2    0  503 -0.62737729325E+02  0.61821639158E+02 -0.64702562972E+02  0.20402588787E+03  0.17228523882E+03 0.  0.
        -24    2    3    3    0    0  0.46678977791E+01  0.50437789082E+02  0.18732194216E+02  0.96060340980E+02  0.79441388280E+02 0.  0.
          6    2    1    2  501    0  0.62737729325E+02 -0.61821639158E+02  0.95371232815E+02  0.21589336681E+03  0.17250024937E+03 0.  0.
         24    2    5    5    0    0  0.10901315791E+03 -0.53270517726E+02  0.33146383461E+02  0.13773609686E+03  0.56133171876E+02 0.  0.
          5    1    5    5  501    0 -0.46275428587E+02 -0.85511214321E+01  0.62224849354E+02  0.78157269948E+02  0.47000000000E+01 0. -1.
        -11    1    6    6    0    0  0.69322735411E+02 -0.15362052282E+02  0.41463360278E+02  0.82224354912E+02  0.00000000000E+00 0.  1.
         12    1    6    6    0    0  0.39690422501E+02 -0.37908465445E+02 -0.83169768173E+01  0.55511741948E+02  0.00000000000E+00 0. -1.
         -5    1    3    3    0  503 -0.67405627104E+02  0.11383850076E+02 -0.83434757188E+02  0.10796554689E+03  0.47000000000E+01 0.  1.
         13    1    4    4    0    0  0.26749572023E+02  0.98509998062E+01 -0.20771004653E+02  0.35270617161E+02  0.00000000000E+00 0. -1.
        -14    1    4    4    0    0 -0.22081674243E+02  0.40586789276E+02  0.39503198869E+02  0.60789723820E+02  0.00000000000E+00 0.  1.
</event>
<event>
12    1  0.8526130E-002  0.2309398E+03  0.7818608E-02  0.1125992E+00
         21   -1    0    0  501  502  0.00000000000E+00  0.00000000000E+00  0.17363287078E+03  0.17363287078E+03  0.00000000000E+00 0. -1.
         21   -1    0    0  502  503 -0.00000000000E+00 -0.00000000000E+00 -0.45567007411E+03  0.45567007411E+03  0.00000000000E+00 0. -1.
         -6    2    1    2    0  503 -0.15052503976E+03  0.35593146169E+02 -0.32071944440E+03  0.39521408328E+03  0.17148921237E+03 0.  0.
        -24    2    3    3    0    0 -0.50551039799E+02 -0.33208841700E+02 -0.94586902733E+02  0.13853036622E+03  0.81152605661E+02 0.  0.
          6    2    1    2  501    0  0.15052503976E+03 -0.35593146169E+02  0.38682241072E+02  0.23408886161E+03  0.17139609012E+03 0.  0.
         24    2    5    5    0    0  0.39058050541E+02 -0.70102371047E+02  0.36035119610E+02  0.11727758844E+03  0.77560487151E+02 0.  0.
          5    1    5    5  501    0  0.11146698921E+03  0.34509224879E+02  0.26471214612E+01  0.11681127316E+03  0.47000000000E+01 0. -1.
        -11    1    6    6    0    0  0.27841512358E+02 -0.86881428671E+02  0.26845260789E+02  0.95101001494E+02  0.00000000000E+00 0.  1.
         12    1    6    6    0    0  0.11216538183E+02  0.16779057624E+02  0.91898588216E+01  0.22176586949E+02  0.00000000000E+00 0. -1.
         -5    1    3    3    0  503 -0.99973999956E+02  0.68801987869E+02 -0.22613254167E+03  0.25668371706E+03  0.47000000000E+01 0.  1.
         11    1    4    4    0    0 -0.68025954147E+02 -0.18011914220E+02 -0.44262940690E+02  0.83133431362E+02  0.00000000000E+00 0. -1.
        -12    1    4    4    0    0  0.17474914348E+02 -0.15196927480E+02 -0.50323962044E+02  0.55396934862E+02  0.00000000000E+00 0.  1.
</event>
<event>
12    1  0.8526130E-002  0.1781542E+03  0.7818608E-02  0.1171112E+00
         21   -1    0    0  501  502  0.00000000000E+00  0.00000000000E+00  0.78431229982E+02  0.78431229982E+02  0.00000000000E+00 0. -1.
         21   -1    0    0  502  503 -0.00000000000E+00 -0.00000000000E+00 -0.80507394084E+03  0.80507394084E+03  0.00000000000E+00 0. -1.
         -6    2    1    2    0  503  0.64958892536E+01 -0.45377849451E+02 -0.68313398589E+03  0.70598226834E+03  0.17215567008E+03 0.  0.
        -24    2    3    3    0    0  0.40905601606E+02 -0.65947580656E+02 -0.62729405900E+03  0.63708140056E+03  0.79702715439E+02 0.  0.
          6    2    1    2  501    0 -0.64958892536E+01  0.45377849451E+02 -0.43508724969E+02  0.17752290248E+03  0.16589160906E+03 0.  0.
         24    2    5    5    0    0  0.10024435272E+02 -0.36953015788E+02 -0.22173627989E+02  0.90755576505E+02  0.79239448573E+02 0.  0.
          5    1    5    5  501    0 -0.16520324526E+02  0.82330865239E+02 -0.21335096980E+02  0.86767325974E+02  0.47000000000E+01 0. -1.
        -13    1    6    6    0    0  0.17504126100E+02  0.20774677789E+02 -0.17593756945E+02  0.32365443782E+02  0.00000000000E+00 0.  1.
         14    1    6    6    0    0 -0.74796908280E+01 -0.57727693577E+02 -0.45798710434E+01  0.58390132723E+02  0.00000000000E+00 0. -1.
         -5    1    3    3    0  503 -0.34409712352E+02  0.20569731205E+02 -0.55839926893E+02  0.68900867784E+02  0.47000000000E+01 0.  1.
         11    1    4    4    0    0  0.35099262645E+02 -0.78566423117E+02 -0.60289861665E+03  0.60900852460E+03  0.00000000000E+00 0. -1.
        -12    1    4    4    0    0  0.58063389604E+01  0.12618842461E+02 -0.24395442346E+02  0.28072875956E+02  0.00000000000E+00 0.  1.
</event>
<event>
12    1  0.8526130E-002  0.1730664E+03  0.7818608E-02  0.1174989E+00
         21   -1    0    0  503  502  0.00000000000E+00  0.00000000000E+00  0.15564194266E+04  0.15564194266E+04  0.00000000000E+00 0. -1.
         21   -1    0    0  501  503 -0.00000000000E+00 -0.00000000000E+00 -0.20233646450E+02  0.20233646450E+02  0.00000000000E+00 0. -1.
          6    2    1    2  501    0 -0.60176382245E+01  0.16559877158E+02  0.58010450288E+03  0.60503412253E+03  0.17098132546E+03 0.  0.
         24    2    3    3    0    0 -0.27957809225E+01  0.34134583748E+02  0.58017578090E+03  0.58655857770E+03  0.79208851346E+02 0.  0.
         -6    2    1    2    0  502  0.60176382245E+01 -0.16559877158E+02  0.95608127729E+03  0.97161895055E+03  0.17216717101E+03 0.  0.
        -24    2    5    5    0    0 -0.38397545410E+02 -0.28296654786E+02  0.30905126107E+03  0.32294307434E+03  0.80650326270E+02 0.  0.
          5    1    3    3  501    0 -0.32218573020E+01 -0.17574706590E+02 -0.71278015418E-01  0.18475544829E+02  0.47000000000E+01 0. -1.
        -13    1    4    4    0    0  0.11919288884E+02  0.53684514854E+02  0.27756399104E+03  0.28295912374E+03  0.00000000000E+00 0.  1.
         14    1    4    4    0    0 -0.14715069806E+02 -0.19549931106E+02  0.30261178986E+03  0.30359945396E+03  0.00000000000E+00 0. -1.
         -5    1    5    5    0  502  0.44415183635E+02  0.11736777628E+02  0.64703001622E+03  0.64867587621E+03  0.47000000000E+01 0.  1.
         11    1    6    6    0    0 -0.89786463844E+01 -0.85856920052E+01  0.26977159575E+03  0.27005748290E+03  0.00000000000E+00 0. -1.
        -12    1    6    6    0    0 -0.29418899026E+02 -0.19710962781E+02  0.39279665318E+02  0.52885591432E+02  0.00000000000E+00 0.  1.
</event>
<event>
12    1  0.8526130E-002  0.1942850E+03  0.7818608E-02  0.1155114E+00
         21   -1    0    0  501  502  0.00000000000E+00  0.00000000000E+00  0.60833760758E+03  0.60833760758E+03  0.00000000000E+00 0. -1.
         21   -1    0    0  502  503 -0.00000000000E+00 -0.00000000000E+00 -0.65734148236E+02  0.65734148236E+02  0.00000000000E+00 0. -1.
         -6    2    1    2    0  503 -0.80909189247E+02  0.40195356050E+02  0.18320111193E+03  0.26551733002E+03  0.16963148758E+03 0.  0.
        -24    2    3    3    0    0 -0.55294860101E+02  0.35657700266E+02  0.24149275982E+02  0.10428377056E+03  0.77219972357E+02 0.  0.
          6    2    1    2  501    0  0.80909189247E+02 -0.40195356050E+02  0.35940234742E+03  0.40855442580E+03  0.17200205800E+03 0.  0.
         24    2    5    5    0    0  0.12123086489E+02 -0.70073433499E+02  0.13644939976E+03  0.17327940733E+03  0.79687257460E+02 0.  0.
          5    1    5    5  501    0  0.68786102758E+02  0.29878077449E+02  0.22295294766E+03  0.23527501847E+03  0.47000000000E+01 0. -1.
        -13    1    6    6    0    0 -0.21706600180E+02 -0.14966321103E+02  0.89680752793E+02  0.93476225214E+02  0.00000000000E+00 0.  1.
         14    1    6    6    0    0  0.33829686669E+02 -0.55107112396E+02  0.46768646967E+02  0.79803182116E+02  0.00000000000E+00 0. -1.
         -5    1    3    3    0  503 -0.25614329147E+02  0.45376557837E+01  0.15905183595E+03  0.16123355946E+03  0.47000000000E+01 0.  1.
         13    1    4    4    0    0 -0.66661030987E+02  0.94918266069E+01  0.67078343155E+00  0.67336749068E+02  0.00000000000E+00 0. -1.
        -14    1    4    4    0    0  0.11366170887E+02  0.26165873659E+02  0.23478492550E+02  0.36947021496E+02  0.00000000000E+00 0.  1.
</event>
<event>
12    1  0.8526130E-002  0.1883264E+03  0.7818608E-02  0.1160150E+00
         21   -1    0    0  503  502  0.00000000000E+00  0.00000000000E+00  0.21264355930E+03  0.21264355930E+03  0.00000000000E+00 0. -1.
         21   -1    0    0  501  503 -0.00000000000E+00 -0.00000000000E+00 -0.63064379716E+03  0.63064379716E+03  0.00000000000E+00 0. -1.
          6    2    1    2  501    0  0.16350104235E+02 -0.73695258296E+02 -0.57076125868E+03  0.60079457392E+03  0.17171892334E+03 0.  0.
         24    2    3    3    0    0  0.72531045391E+02 -0.68369847427E+02 -0.34606944757E+03  0.36907673229E+03  0.80736504688E+02 0.  0.
         -6    2    1    2    0  502 -0.16350104235E+02  0.73695258296E+02  0.15276102082E+03  0.24249278254E+03  0.17253551258E+03 0.  0.
        -24    2    5    5    0    0 -0.55286233703E+02  0.96031286954E+02  0.13965512711E+03  0.19549517831E+03  0.80226145998E+02 0.  0.
          5    1    3    3  501    0 -0.56180941157E+02 -0.53254108686E+01 -0.22469181111E+03  0.23171784163E+03  0.47000000000E+01 0. -1.
        -13    1    4    4    0    0  0.10739372867E+02  0.18443432119E+02 -0.68887418164E+02  0.72117755783E+02  0.00000000000E+00 0.  1.
         14    1    4    4    0    0  0.61791672525E+02 -0.86813279546E+02 -0.27718202941E+03  0.29695897650E+03  0.00000000000E+00 0. -1.
         -5    1    5    5    0  502  0.38936129469E+02 -0.22336028658E+02  0.13105893710E+02  0.46997604239E+02  0.47000000000E+01 0.  1.
         13    1    6    6    0    0 -0.75046396220E+02  0.74501637496E+02  0.12157958653E+03  0.16113364464E+03  0.00000000000E+00 0. -1.
        -14    1    6    6    0    0  0.19760162517E+02  0.21529649458E+02  0.18075540584E+02  0.34361533666E+02  0.00000000000E+00 0.  1.
</event>
<event>
12    1  0.8526130E-002  0.1851492E+03  0.7818608E-02  0.1162954E+00
         21   -1    0    0  503  502  0.00000000000E+00  0.00000000000E+00  0.48383962833E+02  0.48383962833E+02  0.00000000000E+00 0. -1.
         21   -1    0    0  501  503 -0.00000000000E+00 -0.00000000000E+00 -0.12494059125E+04  0.12494059125E+04  0.00000000000E+00 0.  1.
          6    2    1    2  501    0  0.42721608512E+02  0.47986145690E+02 -0.10279163583E+04  0.10444578875E+04  0.17364455949E+03 0.  0.
         24    2    3    3    0    0  0.33451520952E+02  0.10008593666E+03 -0.72191173586E+03  0.73387578610E+03  0.79252230730E+02 0.  0.
         -6    2    1    2    0  502 -0.42721608512E+02 -0.47986145690E+02 -0.17310559141E+03  0.25333198790E+03  0.17344666126E+03 0.  0.
        -24    2    5    5    0    0 -0.10681839739E+02  0.16262653482E+02 -0.60153642640E+01  0.71409782037E+02  0.68444114173E+02 0.  0.
          5    1    3    3  501    0  0.92700875601E+01 -0.52099790971E+02 -0.30600462242E+03  0.31058210136E+03  0.47000000000E+01 0. -1.
        -11    1    4    4    0    0  0.33204308956E+02  0.72972510623E+01 -0.11527087283E+03  0.12017965772E+03  0.00000000000E+00 0.  1.
         12    1    4    4    0    0  0.24721199524E+00  0.92788685599E+02 -0.60664086303E+03  0.61369612838E+03  0.00000000000E+00 0. -1.
         -5    1    5    5    0  502 -0.32039768773E+02 -0.64248799171E+02 -0.16709022715E+03  0.18192220586E+03  0.47000000000E+01 0.  1.
         11    1    6    6    0    0 -0.22740737835E+02  0.31260940489E+02 -0.23641062034E+02  0.45313214095E+02  0.00000000000E+00 0. -1.
        -12    1    6    6    0    0  0.12058898096E+02 -0.14998287008E+02  0.17625697771E+02  0.26096567942E+02  0.00000000000E+00 0.  1.
</event>
<event>
12    1  0.8526130E-002  0.1840619E+03  0.7818608E-02  0.1164981E+00
         21   -1    0    0  503  502  0.00000000000E+00  0.00000000000E+00  0.33455718844E+02  0.33455718844E+02  0.00000000000E+00 0. -1.
         21   -1    0    0  501  503 -0.00000000000E+00 -0.00000000000E+00 -0.19353022326E+04  0.19353022326E+04  0.00000000000E+00 0. -1.
          6    2    1    2  501    0 -0.65835165107E+02  0.21853416201E+00 -0.16335251166E+04  0.16433733503E+04  0.16714468371E+03 0.  0.
         24    2    3    3    0    0 -0.78275619551E+02 -0.26491103527E+02 -0.15557231922E+04  0.15600462893E+04  0.81491858271E+02 0.  0.
         -6    2    1    2    0  502  0.65835165107E+02 -0.21853416201E+00 -0.26832139720E+03  0.32538460116E+03  0.17188498990E+03 0.  0.
        -24    2    5    5    0    0  0.10308203544E+03  0.27800117126E+02 -0.16685383482E+03  0.21362534926E+03  0.79980216985E+02 0.  0.
          5    1    3    3  501    0  0.12440454444E+02  0.26709637689E+02 -0.77801924395E+02  0.83327060982E+02  0.47000000000E+01 0. -1.
        -11    1    4    4    0    0 -0.74779495010E+01 -0.79091592004E+01 -0.92892777311E+03  0.92899154042E+03  0.00000000000E+00 0.  1.
         12    1    4    4    0    0 -0.70797670050E+02 -0.18581944327E+02 -0.62679541907E+03  0.63105474889E+03  0.00000000000E+00 0. -1.
         -5    1    5    5    0  502 -0.37246870334E+02 -0.28018651288E+02 -0.10146756238E+03  0.11175925190E+03  0.47000000000E+01 0.  1.
         11    1    6    6    0    0  0.60860034932E+02  0.42745809326E+02 -0.14677396244E+03  0.16454101044E+03  0.00000000000E+00 0. -1.
        -12    1    6    6    0    0  0.42222000509E+02 -0.14945692201E+02 -0.20079872382E+02  0.49084338818E+02  0.00000000000E+00 0.  1.
</event>
<event>
12    1  0.8526130E-002  0.1804685E+03  0.7818608E-02  0.1167885E+00
         21   -1    0    0  503  502  0.00000000000E+00  0.00000000000E+00  0.18597265797E+04  0.18597265797E+04  0.00000000000E+00 0. -1.
         21   -1    0    0  501  503 -0.00000000000E+00 -0.00000000000E+00 -0.21479618982E+02  0.21479618982E+02  0.00000000000E+00 0. -1.
          6    2    1    2  501    0 -0.42065087253E+02 -0.31411143136E+02  0.50874273042E+03  0.53980372173E+03  0.17266372161E+03 0.  0.
         24    2    3    3    0    0 -0.16145727064E+02  0.49971807989E+02  0.26973721668E+03  0.28595194694E+03  0.79072648877E+02 0.  0.
         -6    2    1    2    0  502  0.42065087253E+02  0.31411143136E+02  0.13295042303E+04  0.13414024769E+04  0.17036130815E+03 0.  0.
        -24    2    5    5    0    0  0.75394563899E+02  0.38070306471E+02  0.12444329933E+04  0.12496724174E+04  0.77032378709E+02 0.  0.
          5    1    3    3  501    0 -0.25919360189E+02 -0.81382951125E+02  0.23900551374E+03  0.25385177479E+03  0.47000000000E+01 0. -1.
        -11    1    4    4    0    0  0.30528520196E+02  0.10500055867E+02  0.11875713227E+03  0.12306704752E+03  0.00000000000E+00 0.  1.
         12    1    4    4    0    0 -0.46674247260E+02  0.39471752122E+02  0.15098008440E+03  0.16288489942E+03  0.00000000000E+00 0. -1.
         -5    1    5    5    0  502 -0.33329476646E+02 -0.66591633350E+01  0.85071236955E+02  0.91730059560E+02  0.47000000000E+01 0.  1.
         11    1    6    6    0    0  0.25382390147E+02  0.24143335800E+02  0.15110249741E+03  0.15511006130E+03  0.00000000000E+00 0. -1.
        -12    1    6    6    0    0  0.50012173752E+02  0.13926970671E+02  0.10933304959E+04  0.10945623561E+04  0.00000000000E+00 0.  1.
</event>
<event>
12    1  0.8526130E-002  0.1763375E+03  0.7818608E-02  0.1171514E+00
         21   -1    0    0  503  502  0.00000000000E+00  0.00000000000E+00  0.12814344619E+03  0.12814344619E+03  0.00000000000E+00 0.  1.
         21   -1    0    0  501  503 -0.00000000000E+00 -0.00000000000E+00 -0.25898573497E+03  0.25898573497E+03  0.00000000000E+00 0.  1.
          6    2    1    2  501    0  0.10511444597E+02 -0.34331377107E+02 -0.11490888796E+03  0.21007324572E+03  0.17215569149E+03 0.  0.
         24    2    3    3    0    0 -0.22052064744E+02  0.41146161042E+02 -0.51339490742E+02  0.10605209802E+03  0.80199775915E+02 0.  0.
         -6    2    1    2    0  502 -0.10511444597E+02  0.34331377107E+02 -0.15933400829E+02  0.17705593544E+03  0.17264355503E+03 0.  0.
        -24    2    5    5    0    0 -0.51026574533E+02  0.71094055054E+02  0.22056863380E+01  0.11922785639E+03  0.80946529973E+02 0.  0.
          5    1    3    3  501    0  0.32563509341E+02 -0.75477538149E+02 -0.63569397216E+02  0.10402114770E+03  0.47000000000E+01 0. -1.
        -11    1    4    4    0    0  0.37881016218E+01  0.23672297621E+02 -0.66991402001E+02  0.71151776721E+02  0.00000000000E+00 0.  1.
         12    1    4    4    0    0 -0.25840166366E+02  0.17473863420E+02  0.15651911259E+02  0.34900321298E+02  0.00000000000E+00 0. -1.
         -5    1    5    5    0  502  0.40515129936E+02 -0.36762677947E+02 -0.18139087167E+02  0.57828079052E+02  0.47000000000E+01 0.  1.
         13    1    6    6    0    0 -0.16622363001E+02  0.66941568330E+02 -0.26838639259E+02  0.74012087388E+02  0.00000000000E+00 0. -1.
        -14    1    6    6    0    0 -0.34404211532E+02  0.41524867243E+01  0.29044325597E+02  0.45215769003E+02  0.00000000000E+00 0.  1.
</event>
<event>
12    1  0.8526130E-002  0.2055522E+03  0.7818608E-02  0.1145245E+00
         21   -1    0    0  501  502  0.00000000000E+00  0.00000000000E+00  0.46870110482E+03  0.46870110482E+03  0.00000000000E+00 0.  1.
         21   -1    0    0  502  503 -0.00000000000E+00 -0.00000000000E+00 -0.11689228598E+03  0.11689228598E+03  0.00000000000E+00 0.  1.
         -6    2    1    2    0  503  0.55757241441E+02 -0.96586909036E+02  0.35417142387E+02  0.20858111625E+03  0.17266675160E+03 0.  0.
        -24    2    3    3    0    0 -0.28630573090E+02 -0.86505007521E+02  0.16102340306E+02  0.12129939102E+03  0.78431057981E+02 0.  0.
          6    2    1    2  501    0 -0.55757241441E+02  0.96586909036E+02  0.31639167646E+03  0.37701227455E+03  0.17203680205E+03 0.  0.
         24    2    5    5    0    0 -0.72206381965E+02  0.29849062563E+02  0.27527843150E+03  0.29678196053E+03  0.78718416650E+02 0.  0.
          5    1    5    5  501    0  0.16449140524E+02  0.66737846474E+02  0.41113244962E+02  0.80230314017E+02  0.47000000000E+01 0. -1.
        -11    1    6    6    0    0 -0.84170737948E+02  0.77701787001E+01  0.19161828703E+03  0.20943413458E+03  0.00000000000E+00 0.  1.
         12    1    6    6    0    0  0.11964355983E+02  0.22078883863E+02  0.83660144468E+02  0.87347825956E+02  0.00000000000E+00 0. -1.
         -5    1    3    3    0  503  0.84387814531E+02 -0.10081901515E+02  0.19314802081E+02  0.87281725229E+02  0.47000000000E+01 0.  1.
         13    1    4    4    0    0 -0.44193630774E+02 -0.42020841254E+02 -0.17471098187E+02  0.63435537143E+02  0.00000000000E+00 0. -1.
        -14    1    4    4    0    0  0.15563057684E+02 -0.44484166267E+02  0.33573438493E+02  0.57863853874E+02  0.00000000000E+00 0.  1.
</event>
<event>
12    1  0.8526130E-002  0.1780019E+03  0.7818608E-02  0.1169881E+00
         21   -1    0    0  503  502  0.00000000000E+00  0.00000000000E+00  0.17580672887E+03  0.17580672887E+03  0.00000000000E+00 0. -1.
         21   -1    0    0  501  503 -0.00000000000E+00 -0.00000000000E+00 -0.24829550096E+03  0.24829550096E+03  0.00000000000E+00 0. -1.
          6    2    1    2  501    0  0.27176425009E+02  0.37253821790E+02 -0.14774880268E+03  0.23133176948E+03  0.17192519757E+03 0.  0.
         24    2    3    3    0    0  0.80517109068E+02  0.45910411800E+02 -0.93360302461E+02  0.15451794206E+03  0.81048612437E+02 0.  0.
         -6    2    1    2    0  502 -0.27176425009E+02 -0.37253821790E+02  0.75260030587E+02  0.19277046035E+03  0.17137669872E+03 0.  0.
        -24    2    5    5    0    0  0.13867040509E+02 -0.63896437410E+02  0.93112554166E+02  0.14047134346E+03  0.82384471021E+02 0.  0.
          5    1    3    3  501    0 -0.53340684059E+02 -0.86565900101E+01 -0.54388500220E+02  0.76813827418E+02  0.47000000000E+01 0. -1.
        -13    1    4    4    0    0 -0.16262990892E+02  0.13183536693E+02 -0.17068854879E+02  0.27011781122E+02  0.00000000000E+00 0.  1.
         14    1    4    4    0    0  0.96780099960E+02  0.32726875107E+02 -0.76291447581E+02  0.12750616094E+03  0.00000000000E+00 0. -1.
         -5    1    5    5    0  502 -0.41043465518E+02  0.26642615620E+02 -0.17852523579E+02  0.52299116885E+02  0.47000000000E+01 0.  1.
         11    1    6    6    0    0  0.84342809033E+01  0.17099808295E+02  0.37505952901E+02  0.42074184972E+02  0.00000000000E+00 0. -1.
        -12    1    6    6    0    0  0.54327596053E+01 -0.80996245705E+02  0.55606601266E+02  0.98397158493E+02  0.00000000000E+00 0.  1.
</event>
<event>
12    1  0.8526130E-002  0.2037439E+03  0.7818608E-02  0.1146649E+00
         21   -1    0    0  503  502  0.00000000000E+00  0.00000000000E+00  0.43891047838E+02  0.43891047838E+02  0.00000000000E+00 0. -1.
         21   -1    0    0  501  503 -0.00000000000E+00 -0.00000000000E+00 -0.10324251867E+04  0.10324251867E+04  0.00000000000E+00 0. -1.
          6    2    1    2  501    0  0.10919383226E+03 -0.72134658812E+01 -0.65061342332E+03  0.68172533507E+03  0.17168657135E+03 0.  0.
         24    2    3    3    0    0  0.14372039201E+03 -0.22525936060E+01 -0.58090812508E+03  0.60363812623E+03  0.79146145849E+02 0.  0.
         -6    2    1    2    0  502 -0.10919383226E+03  0.72134658812E+01 -0.33792071554E+03  0.39459089947E+03  0.17186110919E+03 0.  0.
        -24    2    5    5    0    0 -0.75498707295E+01  0.45778234194E+02 -0.18453447998E+03  0.20652664573E+03  0.80297159494E+02 0.  0.
          5    1    3    3  501    0 -0.34526559745E+02 -0.49608722751E+01 -0.69705298242E+02  0.78087208841E+02  0.47000000000E+01 0. -1.
        -13    1    4    4    0    0  0.10114952500E+03  0.32893715502E+02 -0.42968153709E+03  0.44265047864E+03  0.00000000000E+00 0.  1.
         14    1    4    4    0    0  0.42570867007E+02 -0.35146309108E+02 -0.15122658799E+03  0.16098764759E+03  0.00000000000E+00 0. -1.
         -5    1    5    5    0  502 -0.10164396153E+03 -0.38564768313E+02 -0.15338623556E+03  0.18806425373E+03  0.47000000000E+01 0.  1.
         13    1    6    6    0    0 -0.18577281056E+02  0.66617525601E+02 -0.13714384149E+03  0.15359506290E+03  0.00000000000E+00 0. -1.
        -14    1    6    6    0    0  0.11027410326E+02 -0.20839291407E+02 -0.47390638493E+02  0.52931582837E+02  0.00000000000E+00 0.  1.
</event>
<event>
12    1  0.8526130E-002  0.1919033E+03  0.7818608E-02  0.1157492E+00
         21   -1    0    0  501  502  0.00000000000E+00  0.00000000000E+00  0.14344499960E+03  0.14344499960E+03  0.00000000000E+00 0.  1.
         21   -1    0    0  502  503 -0.00000000000E+00 -0.00000000000E+00 -0.30107636310E+03  0.30107636310E+03  0.00000000000E+00 0. -1.
         -6    2    1    2    0  503 -0.33323994867E+02 -0.80875505285E+02  0.11147615234E+02  0.18895682840E+03  0.16711994999E+03 0.  0.
        -24    2    3    3    0    0 -0.15218820635E+02  0.17027490893E+02 -0.17890495679E+02  0.85139219683E+02  0.80044168713E+02 0.  0.
          6    2    1    2  501    0  0.33323994867E+02  0.80875505285E+02 -0.16877897873E+03  0.25556453431E+03  0.17080852304E+03 0.  0.
         24    2    5    5    0    0  0.33465841373E+02  0.58876228511E+02 -0.26114741760E+02  0.11113751879E+03  0.84161722436E+02 0.  0.
          5    1    5    5  501    0 -0.14184650548E+00  0.21999276774E+02 -0.14266423697E+03  0.14442701552E+03  0.47000000000E+01 0. -1.
        -13    1    6    6    0    0 -0.11308638430E+02 -0.16294463553E+02 -0.20488222147E-01  0.19834194346E+02  0.00000000000E+00 0.  1.
         14    1    6    6    0    0  0.44774479803E+02  0.75170692064E+02 -0.26094253538E+02  0.91303324445E+02  0.00000000000E+00 0. -1.
         -5    1    3    3    0  503 -0.18105174232E+02 -0.97902996178E+02  0.29038110912E+02  0.10381760872E+03  0.47000000000E+01 0.  1.
         13    1    4    4    0    0 -0.39563992627E+02 -0.14606142162E+02 -0.21438458811E+01  0.42228485369E+02  0.00000000000E+00 0. -1.
        -14    1    4    4    0    0  0.24345171991E+02  0.31633633055E+02 -0.15746649798E+02  0.42910734314E+02  0.00000000000E+00 0.  1.
</event>
<event>
12    1  0.8526130E-002  0.2152300E+03  0.7818608E-02  0.1137906E+00
         21   -1    0    0  501  502  0.00000000000E+00  0.00000000000E+00  0.12611802824E+03  0.12611802824E+03  0.00000000000E+00 0. -1.
         21   -1    0    0  502  503 -0.00000000000E+00 -0.00000000000E+00 -0.45351438120E+03  0.45351438120E+03  0.00000000000E+00 0. -1.
         -6    2    1    2    0  503  0.85792771641E+02  0.95873933549E+02 -0.29338041499E+03  0.36386265987E+03  0.17254494066E+03 0.  0.
        -24    2    3    3    0    0  0.29872838870E+02  0.12313050864E+03 -0.23280968778E+03  0.27690943818E+03  0.80155957808E+02 0.  0.
          6    2    1    2  501    0 -0.85792771641E+02 -0.95873933549E+02 -0.34015937974E+02  0.21576974957E+03  0.16984489981E+03 0.  0.
         24    2    5    5    0    0 -0.24358599670E+02 -0.47008038007E+02  0.45351871797E+02  0.10404073605E+03  0.77230728782E+02 0.  0.
          5    1    5    5  501    0 -0.61434171971E+02 -0.48865895542E+02 -0.79367809771E+02  0.11172901351E+03  0.47000000000E+01 0. -1.
        -13    1    6    6    0    0 -0.22017824166E+01 -0.31034849187E+02 -0.17367331366E+02  0.35631922607E+02  0.00000000000E+00 0.  1.
         14    1    6    6    0    0 -0.22156817253E+02 -0.15973188819E+02  0.62719203163E+02  0.68408813447E+02  0.00000000000E+00 0. -1.
         -5    1    3    3    0  503  0.55919932771E+02 -0.27256575090E+02 -0.60570727214E+02  0.86953221688E+02  0.47000000000E+01 0.  1.
         11    1    4    4    0    0  0.50855133660E+02  0.52689761147E+02 -0.14465263036E+03  0.16213216528E+03  0.00000000000E+00 0. -1.
        -12    1    4    4    0    0 -0.20982294790E+02  0.70440747492E+02 -0.88157057414E+02  0.11477727290E+03  0.00000000000E+00 0.  1.
</event>
<event>
12    1  0.8526130E-002  0.2190088E+03  0.7818608E-02  0.1134828E+00
         21   -1    0    0  501  502  0.00000000000E+00  0.00000000000E+00  0.87140546349E+02  0.87140546349E+02  0.00000000000E+00 0.  1.
         21   -1    0    0  502  503 -0.00000000000E+00 -0.00000000000E+00 -0.10669477465E+04  0.10669477465E+04  0.00000000000E+00 0.  1.
         -6    2    1    2    0  503  0.10352480009E+03  0.89280778987E+02 -0.89307384400E+03  0.91953561049E+03  0.17110349612E+03 0.  0.
        -24    2    3    3    0    0  0.27946582637E+02 -0.16358917373E+01 -0.52895607055E+03  0.53667564796E+03  0.86270150756E+02 0.  0.
          6    2    1    2  501    0 -0.10352480009E+03 -0.89280778987E+02 -0.86733356176E+02  0.23455268239E+03  0.16971695264E+03 0.  0.
         24    2    5    5    0    0 -0.13028556219E+03 -0.39371177027E+02 -0.44937609237E+02  0.16401133835E+03  0.79723980639E+02 0.  0.
          5    1    5    5  501    0  0.26760762104E+02 -0.49909601959E+02 -0.41795746939E+02  0.70541344035E+02  0.47000000000E+01 0. -1.
        -11    1    6    6    0    0 -0.66930750747E+02  0.11637501722E+02 -0.47066690963E+02  0.82646416983E+02  0.00000000000E+00 0.  1.
         12    1    6    6    0    0 -0.63354811443E+02 -0.51008678749E+02  0.21290817264E+01  0.81364921371E+02  0.00000000000E+00 0. -1.
         -5    1    3    3    0  503  0.75578217449E+02  0.90916670724E+02 -0.36411777345E+03  0.38285996253E+03  0.47000000000E+01 0.  1.
         13    1    4    4    0    0 -0.22914714576E+02  0.17364124709E+02 -0.29979790179E+03  0.30117333695E+03  0.00000000000E+00 0. -1.
        -14    1    4    4    0    0  0.50861297213E+02 -0.19000016446E+02 -0.22915816876E+03  0.23550231101E+03  0.00000000000E+00 0.  1.
</event>
<event>
12    1  0.8526130E-002  0.1981498E+03  0.7818608E-02  0.1151905E+00
         21   -1    0    0  503  502  0.00000000000E+00  0.00000000000E+00  0.23611758481E+03  0.23611758481E+03  0.00000000000E+00 0. -1.
         21   -1    0    0  501  503 -0.00000000000E+00 -0.00000000000E+00 -0.67318948808E+03  0.67318948808E+03  0.00000000000E+00 0. -1.
          6    2    1    2  501    0 -0.49075711947E+02 -0.77997340394E+02 -0.61358378078E+03  0.64393978589E+03  0.17228285230E+03 0.  0.
         24    2    3    3    0    0 -0.77904589396E+02 -0.10328534391E+03 -0.41512364682E+03  0.44175397513E+03  0.77986826347E+02 0.  0.
         -6    2    1    2    0  502  0.49075711947E+02  0.77997340394E+02  0.17651187751E+03  0.26536728700E+03  0.17541762596E+03 0.  0.
        -24    2    5    5    0    0 -0.17443592213E+02  0.66446816147E+02  0.16527984459E+03  0.19676348973E+03  0.81725060897E+02 0.  0.
          5    1    3    3  501    0  0.28828877449E+02  0.25288003513E+02 -0.19846013396E+03  0.20218581075E+03  0.47000000000E+01 0. -1.
        -13    1    4    4    0    0 -0.30150050474E+02 -0.17906011834E+01 -0.39401695700E+02  0.49646001050E+02  0.00000000000E+00 0.  1.
         14    1    4    4    0    0 -0.47754538922E+02 -0.10149474272E+03 -0.37572195112E+03  0.39210797409E+03  0.00000000000E+00 0. -1.
         -5    1    5    5    0  502  0.66519304160E+02  0.11550524247E+02  0.11232032921E+02  0.68603797270E+02  0.47000000000E+01 0.  1.
         11    1    6    6    0    0 -0.45315554076E+02  0.18173216695E+02  0.97211480522E+02  0.10878344172E+03  0.00000000000E+00 0. -1.
        -12    1    6    6    0    0  0.27871961863E+02  0.48273599452E+02  0.68068364068E+02  0.87980048016E+02  0.00000000000E+00 0.  1.
</event>
<event>
12    1  0.8526130E-002  0.2035276E+03  0.7818608E-02  0.1147499E+00
         21   -1    0    0  503  502  0.00000000000E+00  0.00000000000E+00  0.35934635891E+03  0.35934635891E+03  0.00000000000E+00 0. -1.
         21   -1    0    0  501  503 -0.00000000000E+00 -0.00000000000E+00 -0.11755000422E+03  0.11755000422E+03  0.00000000000E+00 0. -1.
          6    2    1    2  501    0  0.10892740999E+03 -0.18942159541E+01  0.74961685218E+02  0.21372858755E+03  0.16790439596E+03 0.  0.
         24    2    3    3    0    0  0.10473623741E+03 -0.57349163937E+02  0.61636038419E+02  0.15634845121E+03  0.79920153481E+02 0.  0.
         -6    2    1    2    0  502 -0.10892740999E+03  0.18942159541E+01  0.16683466947E+03  0.26316777558E+03  0.17191481165E+03 0.  0.
        -24    2    5    5    0    0 -0.12222084340E+02 -0.45717177798E+02  0.71886493721E+02  0.11944578386E+03  0.82826249531E+02 0.  0.
          5    1    3    3  501    0  0.41911725796E+01  0.55454947982E+02  0.13325646799E+02  0.57380136336E+02  0.47000000000E+01 0. -1.
        -13    1    4    4    0    0  0.22046864136E+01 -0.39484457370E+02  0.19074326527E+02  0.43905727969E+02  0.00000000000E+00 0.  1.
         14    1    4    4    0    0  0.10253155100E+03 -0.17864706566E+02  0.42561711892E+02  0.11244272324E+03  0.00000000000E+00 0. -1.
         -5    1    5    5    0  502 -0.96705325652E+02  0.47611393752E+02  0.94948175749E+02  0.14372199171E+03  0.47000000000E+01 0.  1.
         11    1    6    6    0    0 -0.33796050492E+02 -0.44046825428E+01  0.63532140328E+02  0.72096512480E+02  0.00000000000E+00 0. -1.
        -12    1    6    6    0    0  0.21573966152E+02 -0.41312495255E+02  0.83543533926E+01  0.47349271381E+02  0.00000000000E+00 0.  1.
</event>
<event>
12    1  0.8526130E-002  0.3463816E+03  0.7818608E-02  0.1064132E+00
         21   -1    0    0  501  502  0.00000000000E+00  0.00000000000E+00  0.89299180734E+03  0.89299180734E+03  0.00000000000E+00 0. -1.
         21   -1    0    0  502  503 -0.00000000000E+00 -0.00000000000E+00 -0.31784350236E+03  0.31784350236E+03  0.00000000000E+00 0. -1.
         -6    2    1    2    0  503  0.29522138228E+03 -0.61937335795E+02 -0.17255570494E+03  0.38679554575E+03  0.16983352079E+03 0.  0.
        -24    2    3    3    0    0  0.27301413303E+03 -0.89213936059E+02 -0.18321409876E+03  0.34974333664E+03  0.79102163796E+02 0.  0.
          6    2    1    2  501    0 -0.29522138228E+03  0.61937335795E+02  0.74770400992E+03  0.82403976394E+03  0.17025964874E+03 0.  0.
         24    2    5    5    0    0 -0.10348315743E+03 -0.27183074538E+02  0.33728813875E+03  0.36233718466E+03  0.77956804927E+02 0.  0.
          5    1    5    5  501    0 -0.19173822486E+03  0.89120410333E+02  0.41041587117E+03  0.46170257928E+03  0.47000000000E+01 0. -1.
        -13    1    6    6    0    0 -0.34474535525E+01  0.20228665660E+02  0.72277694394E+02  0.75134206306E+02  0.00000000000E+00 0.  1.
         14    1    6    6    0    0 -0.10003570387E+03 -0.47411740197E+02  0.26501044436E+03  0.28720297836E+03  0.00000000000E+00 0. -1.
         -5    1    3    3    0  503  0.22207249249E+02  0.27276600263E+02  0.10658393820E+02  0.37052209111E+02  0.47000000000E+01 0.  1.
         13    1    4    4    0    0  0.22262900321E+03 -0.37779876726E+02 -0.13497409379E+03  0.26307603112E+03  0.00000000000E+00 0. -1.
        -14    1    4    4    0    0  0.50385129826E+02 -0.51434059333E+02 -0.48240004969E+02  0.86667305522E+02  0.00000000000E+00 0.  1.
</event>
<event>
12    1  0.8526130E-002  0.1870586E+03  0.7818608E-02  0.1161301E+00
         21   -1    0    0  503  502  0.00000000000E+00  0.00000000000E+00  0.56403443338E+03  0.56403443338E+03  0.00000000000E+00 0.  1.
         21   -1    0    0  501  503 -0.00000000000E+00 -0.00000000000E+00 -0.78283603032E+02  0.78283603032E+02  0.00000000000E+00 0.  1.
          6    2    1    2  501    0 -0.72881293552E+02 -0.68363098101E+01  0.95892383663E+02  0.21020529882E+03  0.17214093158E+03 0.  0.
         24    2    3    3    0    0  0.50026789452E+01  0.13093506121E+02 -0.48352597389E+01  0.81243060623E+02  0.79878585763E+02 0.  0.
         -6    2    1    2    0  502  0.72881293552E+02  0.68363098101E+01  0.38985844669E+03  0.43211273760E+03  0.17138667235E+03 0.  0.
        -24    2    5    5    0    0 -0.90540225555E+00  0.71113187893E+01  0.33671313997E+03  0.34105744816E+03  0.53787114717E+02 0.  0.
          5    1    3    3  501    0 -0.77883972497E+02 -0.19929815931E+02  0.10072764340E+03  0.12896223819E+03  0.47000000000E+01 0. -1.
        -11    1    4    4    0    0 -0.98725161056E+01 -0.20833019614E+01  0.34820058774E+02  0.36252492526E+02  0.00000000000E+00 0.  1.
         12    1    4    4    0    0  0.14875195051E+02  0.15176808083E+02 -0.39655318513E+02  0.44990568097E+02  0.00000000000E+00 0. -1.
         -5    1    5    5    0  502  0.73786695807E+02 -0.27500897925E+00  0.53145306720E+02  0.91055289437E+02  0.47000000000E+01 0.  1.
         11    1    6    6    0    0  0.10045501417E+02  0.26312603276E+02  0.12197071714E+03  0.12518035401E+03  0.00000000000E+00 0. -1.
        -12    1    6    6    0    0 -0.10950903673E+02 -0.19201284487E+02  0.21474242283E+03  0.21587709415E+03  0.00000000000E+00 0.  1.
</event>
<event>
12    1  0.8526130E-002  0.2551263E+03  0.7818608E-02  0.1110419E+00
         21   -1    0    0  503  502  0.00000000000E+00  0.00000000000E+00  0.74385223995E+03  0.74385223995E+03  0.00000000000E+00 0. -1.
         21   -1    0    0  501  503 -0.00000000000E+00 -0.00000000000E+00 -0.12108419591E+03  0.12108419591E+03  0.00000000000E+00 0. -1.
          6    2    1    2  501    0 -0.17992048560E+03 -0.56790657331E+02  0.82194971377E+02  0.26803998843E+03  0.17173486011E+03 0.  0.
         24    2    3    3    0    0 -0.17131973617E+03 -0.96227163980E+02  0.57687001052E+02  0.22058536213E+03  0.81975562249E+02 0.  0.
         -6    2    1    2    0  502  0.17992048560E+03  0.56790657331E+02  0.54057307266E+03  0.59689644743E+03  0.16872925700E+03 0.  0.
        -24    2    5    5    0    0  0.19377967898E+03  0.20621461558E+02  0.48718745871E+03  0.53077230856E+03  0.79948827061E+02 0.  0.
          5    1    3    3  501    0 -0.86007494293E+01  0.39436506649E+02  0.24507970326E+02  0.47454626296E+02  0.47000000000E+01 0. -1.
        -13    1    4    4    0    0 -0.43985138315E+02 -0.59669496019E+02 -0.44412644327E+01  0.74262143637E+02  0.00000000000E+00 0.  1.
         14    1    4    4    0    0 -0.12733459786E+03 -0.36557667960E+02  0.62128265484E+02  0.14632321849E+03  0.00000000000E+00 0. -1.
         -5    1    5    5    0  502 -0.13859193382E+02  0.36169195772E+02  0.53385613957E+02  0.66124138872E+02  0.47000000000E+01 0.  1.
         11    1    6    6    0    0  0.10049293752E+03 -0.29505083338E+02  0.24252695950E+03  0.26417552218E+03  0.00000000000E+00 0. -1.
        -12    1    6    6    0    0  0.93286741458E+02  0.50126544896E+02  0.24466049921E+03  0.26659678638E+03  0.00000000000E+00 0.  1.
</event>
<event>
12    1  0.8526130E-002  0.1805014E+03  0.7818608E-02  0.1167621E+00
         21   -1    0    0  501  502  0.00000000000E+00  0.00000000000E+00  0.26550553681E+03  0.26550553681E+03  0.00000000000E+00 0. -1.
         21   -1    0    0  502  503 -0.00000000000E+00 -0.00000000000E+00 -0.25389061509E+03  0.25389061509E+03  0.00000000000E+00 0. -1.
         -6    2    1    2    0  503  0.46767892979E+02  0.23235385615E+02 -0.18145604105E+03  0.25594347043E+03  0.17278207738E+03 0.  0.
        -24    2    3    3    0    0  0.79614354195E+02  0.14024647721E+02 -0.18907304307E+03  0.22067540518E+03  0.80086719862E+02 0.  0.
          6    2    1    2  501    0 -0.46767892979E+02 -0.23235385615E+02  0.19307096277E+03  0.26345268147E+03  0.17147536194E+03 0.  0.
         24    2    5    5    0    0 -0.33806742484E+01  0.45695607350E+02  0.13802043778E+03  0.16503224232E+03  0.78015910379E+02 0.  0.
          5    1    5    5  501    0 -0.43387218731E+02 -0.68930992966E+02  0.55050524994E+02  0.98420439150E+02  0.47000000000E+01 0. -1.
        -11    1    6    6    0    0  0.26796610640E+02  0.43424678826E+02  0.11850184959E+03  0.12902112009E+03  0.00000000000E+00 0.  1.
         12    1    6    6    0    0 -0.30177284888E+02  0.22709285238E+01  0.19518588186E+02  0.36011122232E+02  0.00000000000E+00 0. -1.
         -5    1    3    3    0  503 -0.32846461216E+02  0.92107378941E+01  0.76170020155E+01  0.35268065253E+02  0.47000000000E+01 0.  1.
         11    1    4    4    0    0  0.57233427310E+02  0.37678778784E+02 -0.16914472403E+03  0.18249737872E+03  0.00000000000E+00 0. -1.
        -12    1    4    4    0    0  0.22380926885E+02 -0.23654131063E+02 -0.19928319036E+02  0.38178026458E+02  0.00000000000E+00 0.  1.
</event>
<event>
12    1  0.8526130E-002  0.2067084E+03  0.7818608E-02  0.1145068E+00
         21   -1    0    0  503  502  0.00000000000E+00  0.00000000000E+00  0.11836168402E+03  0.11836168402E+03  0.00000000000E+00 0.  1.
         21   -1    0    0  501  503 -0.00000000000E+00 -0.00000000000E+00 -0.47197557328E+03  0.47197557328E+03  0.00000000000E+00 0.  1.
          6    2    1    2  501    0  0.10418899898E+03  0.32459945279E+02 -0.32599273510E+03  0.38600467222E+03  0.17555440205E+03 0.  0.
         24    2    3    3    0    0 -0.32386086532E+01  0.52690064220E+02 -0.16686954514E+03  0.19289271459E+03  0.81088980723E+02 0.  0.
         -6    2    1    2    0  502 -0.10418899898E+03 -0.32459945279E+02 -0.27621154159E+02  0.20433258508E+03  0.17052824286E+03 0.  0.
        -24    2    5    5    0    0 -0.13303530372E+03 -0.15163960636E+02 -0.50283001456E+02  0.16350477954E+03  0.79228119753E+02 0.  0.
          5    1    3    3  501    0  0.10742760764E+03 -0.20230118941E+02 -0.15912318996E+03  0.19311195763E+03  0.47000000000E+01 0. -1.
        -13    1    4    4    0    0 -0.95137728319E+01  0.57429433578E+02 -0.17324863321E+03  0.18276690243E+03  0.00000000000E+00 0.  1.
         14    1    4    4    0    0  0.62751641788E+01 -0.47393693579E+01  0.63790880702E+01  0.10125812164E+02  0.00000000000E+00 0. -1.
         -5    1    5    5    0  502  0.28846304742E+02 -0.17295984643E+02  0.22661847297E+02  0.40827805537E+02  0.47000000000E+01 0.  1.
         11    1    6    6    0    0 -0.44264135182E+02 -0.13750177485E+02 -0.58163603056E+02  0.74373286634E+02  0.00000000000E+00 0. -1.
        -12    1    6    6    0    0 -0.88771168541E+02 -0.14137831511E+01  0.78806015993E+01  0.89131492911E+02  0.00000000000E+00 0.  1.
</event>
<event>
12    1  0.8526130E-002  0.2108322E+03  0.7818608E-02  0.1141032E+00
         21   -1    0    0  501  502  0.00000000000E+00  0.00000000000E+00  0.67647479782E+03  0.67647479782E+03  0.00000000000E+00 0.  1.
         21   -1    0    0  502  503 -0.00000000000E+00 -0.00000000000E+00 -0.67155475898E+02  0.67155475898E+02  0.00000000000E+00 0. -1.
         -6    2    1    2    0  503  0.10293802607E+03 -0.64450395612E+02  0.36324655508E+03  0.41999794636E+03  0.17233724050E+03 0.  0.
        -24    2    3    3    0    0  0.57818213774E+02  0.21866929241E+02  0.11607160042E+03  0.15428376487E+03  0.80683054241E+02 0.  0.
          6    2    1    2  501    0 -0.10293802607E+03  0.64450395612E+02  0.24607276685E+03  0.32363232736E+03  0.17156918728E+03 0.  0.
         24    2    5    5    0    0 -0.59665515808E+02  0.10918970649E+03  0.16307836292E+03  0.21978495298E+03  0.78920892820E+02 0.  0.
          5    1    5    5  501    0 -0.43272510264E+02 -0.44739310880E+02  0.82994403930E+02  0.10384737438E+03  0.47000000000E+01 0. -1.
        -11    1    6    6    0    0 -0.63081607051E+01  0.63817212482E+01  0.71675621614E+02  0.72235129898E+02  0.00000000000E+00 0.  1.
         12    1    6    6    0    0 -0.53357355103E+02  0.10280798524E+03  0.91402741303E+02  0.14754982308E+03  0.00000000000E+00 0. -1.
         -5    1    3    3    0  503  0.45119812299E+02 -0.86317324853E+02  0.24717495466E+03  0.26571418149E+03  0.47000000000E+01 0.  1.
         11    1    4    4    0    0  0.14890719280E+02  0.47545353020E+02  0.72364770735E+02  0.87857578831E+02  0.00000000000E+00 0. -1.
        -12    1    4    4    0    0  0.42927494493E+02 -0.25678423779E+02  0.43706829681E+02  0.66426186041E+02  0.00000000000E+00 0.  1.
</event>
<event>
12    1  0.8526130E-002  0.1778988E+03  0.7818608E-02  0.1169900E+00
         21   -1    0    0  501  502  0.00000000000E+00  0.00000000000E+00  0.18332073810E+03  0.18332073810E+03  0.00000000000E+00 0.  1.
         21   -1    0    0  502  503 -0.00000000000E+00 -0.00000000000E+00 -0.87450586987E+03  0.87450586987E+03  0.00000000000E+00 0.  1.
         -6    2    1    2    0  503 -0.11752722429E+01  0.40077534090E+02 -0.81953255096E+03  0.83861886551E+03  0.17332169368E+03 0.  0.
        -24    2    3    3    0    0  0.33744027649E+02  0.82007940565E+02 -0.47575272675E+03  0.49050369201E+03  0.79932803896E+02 0.  0.
          6    2    1    2  501    0  0.11752722429E+01 -0.40077534090E+02  0.12834741919E+03  0.21920774247E+03  0.17312245476E+03 0.  0.
         24    2    5    5    0    0  0.63334699264E+02 -0.42537868410E+02  0.10998114162E+03  0.15417499868E+03  0.76507021423E+02 0.  0.
          5    1    5    5  501    0 -0.62159427021E+02  0.24603343192E+01  0.18366277571E+02  0.65032743786E+02  0.47000000000E+01 0. -1.
        -11    1    6    6    0    0  0.21140257571E+02 -0.38715828985E+02  0.94940540592E+01  0.45121646320E+02  0.00000000000E+00 0.  1.
         12    1    6    6    0    0  0.42194441693E+02 -0.38220394247E+01  0.10048708756E+03  0.10905335236E+03  0.00000000000E+00 0. -1.
         -5    1    3    3    0  503 -0.34919299892E+02 -0.41930406474E+02 -0.34377982421E+03  0.34811517350E+03  0.47000000000E+01 0.  1.
         11    1    4    4    0    0  0.43165517960E+02  0.27299597761E+02 -0.11957571002E+03  0.13002646040E+03  0.00000000000E+00 0. -1.
        -12    1    4    4    0    0 -0.94214903109E+01  0.54708342804E+02 -0.35617701674E+03  0.36047723160E+03  0.00000000000E+00 0.  1.
</event>
<event>
12    1  0.8526130E-002  0.1879337E+03  0.7818608E-02  0.1160394E+00
         21   -1    0    0  501  502  0.00000000000E+00  0.00000000000E+00  0.56003377993E+03  0.56003377993E+03  0.00000000000E+00 0.  1.
         21   -1    0    0  502  503 -0.00000000000E+00 -0.00000000000E+00 -0.30361060715E+03  0.30361060715E+03  0.00000000000E+00 0.  1.
         -6    2    1    2    0  503  0.69867265576E+02  0.25054195762E+02 -0.25620200775E+03  0.31773977086E+03  0.17265556953E+03 0.  0.
        -24    2    3    3    0    0  0.89462778369E+02  0.54807066203E+02 -0.12543196441E+03  0.18212225114E+03  0.80174393948E+02 0.  0.
          6    2    1    2  501    0 -0.69867265576E+02 -0.25054195762E+02  0.51262518052E+03  0.54590461622E+03  0.17238946250E+03 0.  0.
         24    2    5    5    0    0 -0.10450807847E+03  0.18682561049E+02  0.35948039708E+03  0.38284541068E+03  0.77932509557E+02 0.  0.
          5    1    5    5  501    0  0.34640812891E+02 -0.43736756811E+02  0.15314478344E+03  0.16305920554E+03  0.47000000000E+01 0. -1.
        -13    1    6    6    0    0 -0.61576664399E+02 -0.86317346690E+01  0.95170538639E+02  0.11368211762E+03  0.00000000000E+00 0.  1.
         14    1    6    6    0    0 -0.42931414068E+02  0.27314295718E+02  0.26430985844E+03  0.26916329306E+03  0.00000000000E+00 0. -1.
         -5    1    3    3    0  503 -0.19595512794E+02 -0.29752870441E+02 -0.13077004333E+03  0.13561751972E+03  0.47000000000E+01 0.  1.
         13    1    4    4    0    0  0.56703331868E+01  0.45077552002E+02 -0.28533047148E+02  0.53649540096E+02  0.00000000000E+00 0. -1.
        -14    1    4    4    0    0  0.83792445182E+02  0.97295142010E+01 -0.96898917265E+02  0.12847271105E+03  0.00000000000E+00 0.  1.
</event>
<event>
12    1  0.8526130E-002  0.1855347E+03  0.7818608E-02  0.1162660E+00
         21   -1    0    0  503  502  0.00000000000E+00  0.00000000000E+00  0.78624658848E+03  0.78624658848E+03  0.00000000000E+00 0.  1.
         21   -1    0    0  501  503 -0.00000000000E+00 -0.00000000000E+00 -0.14478981655E+03  0.14478981655E+03  0.00000000000E+00 0.  1.
          6    2    1    2  501    0 -0.12794486174E+02 -0.69781283939E+02 -0.68421298397E+02  0.19731301511E+03  0.17093222456E+03 0.  0.
         24    2    3    3    0    0  0.43956979987E+02 -0.55054662199E+01 -0.63242522764E+02  0.11128383766E+03  0.80137067525E+02 0.  0.
         -6    2    1    2    0  502  0.12794486174E+02  0.69781283939E+02  0.70987807033E+03  0.73372338992E+03  0.17143515308E+03 0.  0.
        -24    2    5    5    0    0  0.36179066439E+02  0.10835626292E+03  0.49175558377E+03  0.51093565071E+03  0.78623663336E+02 0.  0.
          5    1    3    3  501    0 -0.56751466161E+02 -0.64275817719E+02 -0.51787756332E+01  0.86029177445E+02  0.47000000000E+01 0. -1.
        -11    1    4    4    0    0 -0.13019451906E+02 -0.27381667025E+02 -0.24635492561E+02  0.39066217001E+02  0.00000000000E+00 0.  1.
         12    1    4    4    0    0  0.56976431893E+02  0.21876200805E+02 -0.38607030202E+02  0.72217620662E+02  0.00000000000E+00 0. -1.
         -5    1    5    5    0  502 -0.23384580265E+02 -0.38574978980E+02  0.21812248656E+03  0.22278773920E+03  0.47000000000E+01 0.  1.
         13    1    6    6    0    0  0.19170911127E+02  0.11079282616E+03  0.46973669838E+03  0.48300635603E+03  0.00000000000E+00 0. -1.
        -14    1    6    6    0    0  0.17008155312E+02 -0.24365632384E+01  0.22018885393E+02  0.27929294683E+02  0.00000000000E+00 0.  1.
</event>
<event>
12    1  0.8526130E-002  0.1833129E+03  0.7818608E-02  0.1164724E+00
         21   -1    0    0  501  502  0.00000000000E+00  0.00000000000E+00  0.80589650053E+02  0.80589650053E+02  0.00000000000E+00 0.  1.
         21   -1    0    0  502  503 -0.00000000000E+00 -0.00000000000E+00 -0.13472693128E+04  0.13472693128E+04  0.00000000000E+00 0.  1.
         -6    2    1    2    0  503 -0.62959459894E+02 -0.84658725088E+01 -0.12266635234E+04  0.12402292933E+04  0.17155097121E+03 0.  0.
        -24    2    3    3    0    0 -0.65258294504E+02 -0.51231303131E+02 -0.11115173340E+04  0.11172866171E+04  0.77300126454E+02 0.  0.
          6    2    1    2  501    0  0.62959459894E+02  0.84658725088E+01 -0.40016139356E+02  0.18762966957E+03  0.17195358939E+03 0.  0.
         24    2    5    5    0    0  0.12932994546E+02 -0.51105864200E+02 -0.53451142285E+02  0.10854725462E+03  0.78399044451E+02 0.  0.
          5    1    5    5  501    0  0.50026465348E+02  0.59571736709E+02  0.13435002928E+02  0.79082414945E+02  0.47000000000E+01 0. -1.
        -13    1    6    6    0    0  0.27691545099E+02 -0.22713879293E+02  0.10256482001E+02  0.37255031949E+02  0.00000000000E+00 0.  1.
         14    1    6    6    0    0 -0.14758550553E+02 -0.28391984907E+02 -0.63707624286E+02  0.71292222672E+02  0.00000000000E+00 0. -1.
         -5    1    3    3    0  503  0.22988346101E+01  0.42765430622E+02 -0.11514618941E+03  0.12294267621E+03  0.47000000000E+01 0.  1.
         13    1    4    4    0    0 -0.44713169191E+02 -0.50917024118E+02 -0.41735976091E+03  0.42282500029E+03  0.00000000000E+00 0. -1.
        -14    1    4    4    0    0 -0.20545125313E+02 -0.31427901333E+00 -0.69415757306E+03  0.69446161678E+03  0.00000000000E+00 0.  1.
</event>
<event>
12    1  0.8526130E-002  0.2224585E+03  0.7818608E-02  0.1132192E+00
         21   -1    0    0  503  502  0.00000000000E+00  0.00000000000E+00  0.10967844060E+03  0.10967844060E+03  0.00000000000E+00 0. -1.
         21   -1    0    0  501  503 -0.00000000000E+00 -0.00000000000E+00 -0.50953488064E+03  0.50953488064E+03  0.00000000000E+00 0. -1.
          6    2    1    2  501    0 -0.97839748392E+02 -0.10190368274E+03 -0.30566573055E+03  0.37763586344E+03  0.17093954955E+03 0.  0.
         24    2    3    3    0    0 -0.28496648661E+02  0.11863544126E+02 -0.86715166857E+02  0.12129061435E+03  0.78987912378E+02 0.  0.
         -6    2    1    2    0  502  0.97839748392E+02  0.10190368274E+03 -0.94190709485E+02  0.24157745781E+03  0.17184528346E+03 0.  0.
        -24    2    5    5    0    0  0.10739601100E+03  0.74378832458E+02 -0.92997846655E+01  0.15170255222E+03  0.76557589160E+02 0.  0.
          5    1    3    3  501    0 -0.69343099732E+02 -0.11376722686E+03 -0.21895056369E+03  0.25634524909E+03  0.47000000000E+01 0. -1.
        -11    1    4    4    0    0 -0.17218371514E+02  0.15695122294E+02  0.88970768548E+01  0.24939269395E+02  0.00000000000E+00 0.  1.
         12    1    4    4    0    0 -0.11278277147E+02 -0.38315781681E+01 -0.95612243712E+02  0.96351344953E+02  0.00000000000E+00 0. -1.
         -5    1    5    5    0  502 -0.95562626075E+01  0.27524850277E+02 -0.84890924819E+02  0.89874905588E+02  0.47000000000E+01 0.  1.
         11    1    6    6    0    0  0.73743849960E+02  0.49553828392E+01  0.65613944549E+00  0.73913068837E+02  0.00000000000E+00 0. -1.
        -12    1    6    6    0    0  0.33652161040E+02  0.69423449619E+02 -0.99559241109E+01  0.77789483380E+02  0.00000000000E+00 0.  1.
</event>
<event>
12    1  0.8526130E-002  0.1836027E+03  0.7818608E-02  0.1164397E+00
         21   -1    0    0  503  502  0.00000000000E+00  0.00000000000E+00  0.14764689164E+03  0.14764689164E+03  0.00000000000E+00 0. -1.
         21   -1    0    0  501  503 -0.00000000000E+00 -0.00000000000E+00 -0.28217437289E+03  0.28217437289E+03  0.00000000000E+00 0. -1.
          6    2    1    2  501    0  0.46949297249E+02 -0.41580772450E+02 -0.16134517518E+03  0.24442223303E+03  0.17255945438E+03 0.  0.
         24    2    3    3    0    0  0.85129072858E+02 -0.36641176050E+02 -0.16524062134E+03  0.20544327231E+03  0.79454014183E+02 0.  0.
         -6    2    1    2    0  502 -0.46949297249E+02  0.41580772450E+02  0.26817693933E+02  0.18539903151E+03  0.17239609922E+03 0.  0.
        -24    2    5    5    0    0 -0.24959425055E+02 -0.30278785592E+02 -0.29413797792E+02  0.91423389860E+02  0.77157546338E+02 0.  0.
          5    1    3    3  501    0 -0.38179775609E+02 -0.49395963998E+01  0.38954461539E+01  0.38978960721E+02  0.47000000000E+01 0. -1.
        -11    1    4    4    0    0 -0.51121848659E+01  0.31858000801E+01  0.55655962968E+01  0.82011961562E+01  0.00000000000E+00 0.  1.
         12    1    4    4    0    0  0.90241257724E+02 -0.39826976130E+02 -0.17080621764E+03  0.19724207616E+03  0.00000000000E+00 0. -1.
         -5    1    5    5    0  502 -0.21989872194E+02  0.71859558041E+02  0.56231491725E+02  0.93975641646E+02  0.47000000000E+01 0.  1.
         13    1    6    6    0    0 -0.44530760244E+02 -0.93520283726E+01  0.59713777080E+01  0.45892334810E+02  0.00000000000E+00 0. -1.
        -14    1    6    6    0    0  0.19571335189E+02 -0.20926757219E+02 -0.35385175500E+02  0.45531055050E+02  0.00000000000E+00 0.  1.
</event>
<event>
12    1  0.8526130E-002  0.1747031E+03  0.7818608E-02  0.1173080E+00
         21   -1    0    0  503  502  0.00000000000E+00  0.00000000000E+00  0.12387892233E+03  0.12387892233E+03  0.00000000000E+00 0.  1.
         21   -1    0    0  501  503 -0.00000000000E+00 -0.00000000000E+00 -0.39974579836E+03  0.39974579836E+03  0.00000000000E+00 0.  1.
          6    2    1    2  501    0  0.25956778207E+02 -0.16668765166E+02 -0.30029594504E+03  0.34741736975E+03  0.17195805340E+03 0.  0.
         24    2    3    3    0    0 -0.27558048566E+02  0.40688506994E+02 -0.13345618214E+03  0.16299586927E+03  0.79637304111E+02 0.  0.
         -6    2    1    2    0  502 -0.25956778207E+02  0.16668765166E+02  0.24429069011E+02  0.17620735094E+03  0.17175752980E+03 0.  0.
        -24    2    5    5    0    0 -0.34764968217E+02  0.18959803040E+02 -0.49286450967E+02  0.10178355802E+03  0.79766291681E+02 0.  0.
          5    1    3    3  501    0  0.53514826773E+02 -0.57357272160E+02 -0.16683976291E+03  0.18442150048E+03  0.47000000000E+01 0. -1.
        -11    1    4    4    0    0 -0.47223972183E+02  0.18702295279E+02 -0.12051987185E+03  0.13078577487E+03  0.00000000000E+00 0.  1.
         12    1    4    4    0    0  0.19665923617E+02  0.21986211715E+02 -0.12936310284E+02  0.32210094397E+02  0.00000000000E+00 0. -1.
         -5    1    5    5    0  502  0.88081900100E+01 -0.22910378735E+01  0.73715519978E+02  0.74423792912E+02  0.47000000000E+01 0.  1.
         11    1    6    6    0    0  0.12910164488E+02  0.36101841668E+02 -0.19535839791E+02  0.43030969722E+02  0.00000000000E+00 0. -1.
        -12    1    6    6    0    0 -0.47675132705E+02 -0.17142038628E+02 -0.29750611176E+02  0.58752588301E+02  0.00000000000E+00 0.  1.
</event>
<event>
12    1  0.8526130E-002  0.1786669E+03  0.7818608E-02  0.1169278E+00
         21   -1    0    0  501  502  0.00000000000E+00  0.00000000000E+00  0.34423380919E+03  0.34423380919E+03  0.00000000000E+00 0. -1.
         21   -1    0    0  502  503 -0.00000000000E+00 -0.00000000000E+00 -0.96599632920E+02  0.96599632920E+02  0.00000000000E+00 0. -1.
         -6    2    1    2    0  503  0.28885860410E+02 -0.41602347692E+02  0.16977618403E+03  0.24593926641E+03  0.17057849171E+03 0.  0.
        -24    2    3    3    0    0 -0.34099852316E+02 -0.46540262038E+02  0.45028468476E+02  0.10602620218E+03  0.76715035406E+02 0.  0.
          6    2    1    2  501    0 -0.28885860410E+02  0.41602347692E+02  0.77857992240E+02  0.19489417570E+03  0.17133804161E+03 0.  0.
         24    2    5    5    0    0 -0.30003860009E+02  0.64529055506E+01 -0.23591022815E+02  0.87419872438E+02  0.78382562692E+02 0.  0.
          5    1    5    5  501    0  0.11179995983E+01  0.35149442142E+02  0.10144901506E+03  0.10747430326E+03  0.47000000000E+01 0. -1.
        -13    1    6    6    0    0  0.93660362750E+01 -0.29425969490E+02 -0.75375876129E+01  0.31787191492E+02  0.00000000000E+00 0.  1.
         14    1    6    6    0    0 -0.39369896284E+02  0.35878875040E+02 -0.16053435202E+02  0.55632680947E+02  0.00000000000E+00 0. -1.
         -5    1    3    3    0  503  0.62985712726E+02  0.49379143457E+01  0.12474771556E+03  0.13991306423E+03  0.47000000000E+01 0.  1.
         11    1    4    4    0    0 -0.18934065141E+02 -0.16767051275E+02  0.63142226706E+02  0.68018921078E+02  0.00000000000E+00 0. -1.
        -12    1    4    4    0    0 -0.15165787174E+02 -0.29773210763E+02 -0.18113758230E+02  0.38007281104E+02  0.00000000000E+00 0.  1.
</event>
<event>
12    1  0.8526130E-002  0.1771838E+03  0.7818608E-02  0.1170837E+00
         21   -1    0    0  501  502  0.00000000000E+00  0.00000000000E+00  0.22450878635E+03  0.22450878635E+03  0.00000000000E+00 0. -1.
         21   -1    0    0  502  503 -0.00000000000E+00 -0.00000000000E+00 -0.80007688581E+03  0.80007688581E+03  0.00000000000E+00 0. -1.
         -6    2    1    2    0  503 -0.41370975498E+02 -0.12775191823E+02 -0.75363293035E+03  0.77418130266E+03  0.17181191034E+03 0.  0.
        -24    2    3    3    0    0 -0.46437395948E+02  0.74477334111E+01 -0.74557598113E+03  0.75134186851E+03  0.80119655969E+02 0.  0.
          6    2    1    2  501    0  0.41370975498E+02  0.12775191823E+02  0.17806483090E+03  0.25040436950E+03  0.17064730036E+03 0.  0.
         24    2    5    5    0    0  0.70862203892E+02 -0.36972666601E+02  0.14479390749E+03  0.18351919689E+03  0.79533577603E+02 0.  0.
          5    1    5    5  501    0 -0.29491228393E+02  0.49747858424E+02  0.33270923411E+02  0.66885172606E+02  0.47000000000E+01 0. -1.
        -11    1    6    6    0    0 -0.64660306278E+01  0.13937979374E+02  0.56129566545E+01  0.16357937019E+02  0.00000000000E+00 0.  1.
         12    1    6    6    0    0  0.77328234519E+02 -0.50910645975E+02  0.13918095084E+03  0.16716125987E+03  0.00000000000E+00 0. -1.
         -5    1    3    3    0  503  0.50664204499E+01 -0.20222925234E+02 -0.80569492258E+01  0.22839434144E+02  0.47000000000E+01 0.  1.
         13    1    4    4    0    0 -0.47564824239E+02  0.37422794833E+02 -0.41224178659E+03  0.41666073572E+03  0.00000000000E+00 0. -1.
        -14    1    4    4    0    0  0.11274282910E+01 -0.29975061422E+02 -0.33333419454E+03  0.33468113279E+03  0.00000000000E+00 0.  1.
</event>
<event>
12    1  0.8526130E-002  0.1965814E+03  0.7818608E-02  0.1152700E+00
         21   -1    0    0  501  502  0.00000000000E+00  0.00000000000E+00  0.10665859136E+03  0.10665859136E+03  0.00000000000E+00 0.  1.
         21   -1    0    0  502  503 -0.00000000000E+00 -0.00000000000E+00 -0.66225089156E+03  0.66225089156E+03  0.00000000000E+00 0.  1.
         -6    2    1    2    0  503  0.59682673726E+02 -0.73351430931E+02 -0.53660896346E+03  0.57141360498E+03  0.17211006457E+03 0.  0.
        -24    2    3    3    0    0  0.55474623264E+02 -0.83387193604E+02 -0.54297903068E+03  0.55795656305E+03  0.80364423793E+02 0.  0.
          6    2    1    2  501    0 -0.59682673726E+02  0.73351430931E+02 -0.18983336744E+02  0.19749587795E+03  0.17234210388E+03 0.  0.
         24    2    5    5    0    0 -0.20317952361E+02  0.11312241050E+03 -0.18189019145E+02  0.14133509943E+03  0.80220140662E+02 0.  0.
          5    1    5    5  501    0 -0.39364721365E+02 -0.39770979564E+02 -0.79431759861E+00  0.56160778521E+02  0.47000000000E+01 0. -1.
        -11    1    6    6    0    0  0.15101691523E+02 -0.34146719464E+01 -0.11618005551E+02  0.19357146596E+02  0.00000000000E+00 0.  1.
         12    1    6    6    0    0 -0.35419643884E+02  0.11653708244E+03 -0.65710135944E+01  0.12197795283E+03  0.00000000000E+00 0. -1.
         -5    1    3    3    0  503  0.42080504623E+01  0.10035762673E+02  0.63700672175E+01  0.13457041929E+02  0.47000000000E+01 0.  1.
         13    1    4    4    0    0  0.75997376559E+02 -0.69072515446E+02 -0.45786043789E+03  0.46923639481E+03  0.00000000000E+00 0. -1.
        -14    1    4    4    0    0 -0.20522753295E+02 -0.14314678158E+02 -0.85118592791E+02  0.88720168238E+02  0.00000000000E+00 0.  1.
</event>
<event>
12    1  0.8526130E-002  0.1976010E+03  0.7818608E-02  0.1152085E+00
         21   -1    0    0  501  502  0.00000000000E+00  0.00000000000E+00  0.18317696605E+03  0.18317696605E+03  0.00000000000E+00 0. -1.
         21   -1    0    0  502  503 -0.00000000000E+00 -0.00000000000E+00 -0.22064334109E+03  0.22064334109E+03  0.00000000000E+00 0.  1.
         -6    2    1    2    0  503  0.19127580276E+02 -0.93467030453E+02 -0.59477532045E+02  0.20499718581E+03  0.17141854994E+03 0.  0.
        -24    2    3    3    0    0  0.74079356622E+02 -0.36689184892E+02 -0.53463134557E+02  0.12561403617E+03  0.78017510603E+02 0.  0.
          6    2    1    2  501    0 -0.19127580276E+02  0.93467030453E+02  0.22011157003E+02  0.19882312132E+03  0.17304390319E+03 0.  0.
         24    2    5    5    0    0 -0.67543375875E+02  0.14833296956E+02  0.22198138943E+02  0.10635973252E+03  0.77701357806E+02 0.  0.
          5    1    5    5  501    0  0.48415795600E+02  0.78633733497E+02 -0.18698193949E+00  0.92463388806E+02  0.47000000000E+01 0. -1.
        -11    1    6    6    0    0 -0.41268938957E+01 -0.27309373969E+02  0.26379216953E+01  0.27745121926E+02  0.00000000000E+00 0.  1.
         12    1    6    6    0    0 -0.63416481980E+02  0.42142670925E+02  0.19560217247E+02  0.78614610589E+02  0.00000000000E+00 0. -1.
         -5    1    3    3    0  503 -0.54951776347E+02 -0.56777845561E+02 -0.60143974876E+01  0.79383149644E+02  0.47000000000E+01 0.  1.
         11    1    4    4    0    0 -0.79522839671E+01 -0.73339016644E+01  0.12355085113E+02  0.16421725307E+02  0.00000000000E+00 0. -1.
        -12    1    4    4    0    0  0.82031640589E+02 -0.29355283228E+02 -0.65818219670E+02  0.10919231086E+03  0.00000000000E+00 0.  1.
</event>
<event>
12    1  0.8526130E-002  0.1940470E+03  0.7818608E-02  0.1155029E+00
         21   -1    0    0  501  502  0.00000000000E+00  0.00000000000E+00  0.81491519084E+03  0.81491519084E+03  0.00000000000E+00 0. -1.
         21   -1    0    0  502  503 -0.00000000000E+00 -0.00000000000E+00 -0.78739524552E+02  0.78739524552E+02  0.00000000000E+00 0.  1.
         -6    2    1    2    0  503 -0.86061789999E+02 -0.15711379216E+02  0.80496641861E+02  0.21008080506E+03  0.17320726361E+03 0.  0.
        -24    2    3    3    0    0 -0.26856785606E+02  0.30608853306E+02  0.88922380320E+02  0.13429241838E+03  0.92027577822E+02 0.  0.
          6    2    1    2  501    0  0.86061789999E+02  0.15711379216E+02  0.65567902443E+03  0.68357391034E+03  0.17235088826E+03 0.  0.
         24    2    5    5    0    0  0.19004570663E+02  0.64640616690E+02  0.44946600788E+03  0.46123039426E+03  0.78576086200E+02 0.  0.
          5    1    5    5  501    0  0.67057219336E+02 -0.48929237475E+02  0.20621301655E+03  0.22234351607E+03  0.47000000000E+01 0. -1.
        -11    1    6    6    0    0 -0.12949313659E+01  0.22399718911E+02  0.22765423824E+02  0.31963866731E+02  0.00000000000E+00 0.  1.
         12    1    6    6    0    0  0.20299502029E+02  0.42240897780E+02  0.42670058405E+03  0.42926652753E+03  0.00000000000E+00 0. -1.
         -5    1    3    3    0  503 -0.59205004393E+02 -0.46320232522E+02 -0.84257384596E+01  0.75788386673E+02  0.47000000000E+01 0.  1.
         13    1    4    4    0    0  0.16359754062E+02  0.50646528199E+01  0.81817679220E+02  0.83590818240E+02  0.00000000000E+00 0. -1.
        -14    1    4    4    0    0 -0.43216539669E+02  0.25544200486E+02  0.71047011004E+01  0.50701600144E+02  0.00000000000E+00 0.  1.
</event>
<event>
12    1  0.8526130E-002  0.2247444E+03  0.7818608E-02  0.1130503E+00
         21   -1    0    0  503  502  0.00000000000E+00  0.00000000000E+00  0.68382260797E+03  0.68382260797E+03  0.00000000000E+00 0. -1.
         21   -1    0    0  501  503 -0.00000000000E+00 -0.00000000000E+00 -0.85872755348E+02  0.85872755348E+02  0.00000000000E+00 0.  1.
          6    2    1    2  501    0  0.14127891202E+03  0.31032326190E+02  0.15355107492E+03  0.27169905847E+03  0.17122999012E+03 0.  0.
         24    2    3    3    0    0  0.16135017434E+02  0.52696015596E+02  0.67423299795E+02  0.11817253491E+03  0.79885153839E+02 0.  0.
         -6    2    1    2    0  502 -0.14127891202E+03 -0.31032326190E+02  0.44439877771E+03  0.49799630485E+03  0.17200962114E+03 0.  0.
        -24    2    5    5    0    0 -0.14100133307E+03 -0.35726568679E+02  0.23114409889E+03  0.28463801230E+03  0.80208727438E+02 0.  0.
          5    1    3    3  501    0  0.12514389458E+03 -0.21663689406E+02  0.86127775121E+02  0.15352652356E+03  0.47000000000E+01 0. -1.
        -13    1    4    4    0    0  0.31961467972E+02  0.57509949981E+02  0.75177546792E+02  0.99902919494E+02  0.00000000000E+00 0.  1.
         14    1    4    4    0    0 -0.15826450537E+02 -0.48139343853E+01 -0.77542469968E+01  0.18269615414E+02  0.00000000000E+00 0. -1.
         -5    1    5    5    0  502 -0.27757895266E+00  0.46942424895E+01  0.21325467882E+03  0.21335829255E+03  0.47000000000E+01 0.  1.
         13    1    6    6    0    0 -0.12232592367E+03 -0.58529163891E+02  0.20110239780E+03  0.24255199242E+03  0.00000000000E+00 0. -1.
        -14    1    6    6    0    0 -0.18675409392E+02  0.22802595212E+02  0.30041701090E+02  0.42086019873E+02  0.00000000000E+00 0.  1.
</event>
<event>
12    1  0.8526130E-002  0.2708386E+03  0.7818608E-02  0.1100900E+00
         21   -1    0    0  501  502  0.00000000000E+00  0.00000000000E+00  0.14387908913E+04  0.14387908913E+04  0.00000000000E+00 0.  1.
         21   -1    0    0  502  503 -0.00000000000E+00 -0.00000000000E+00 -0.52513875743E+02  0.52513875743E+02  0.00000000000E+00 0.  1.
         -6    2    1    2    0  503 -0.19985881854E+03  0.61488396023E+02  0.56135898110E+03  0.62327961091E+03  0.17213133800E+03 0.  0.
        -24    2    3    3    0    0 -0.21965544143E+03  0.37184544655E+02  0.46495079385E+03  0.52179457735E+03  0.80368755958E+02 0.  0.
          6    2    1    2  501    0  0.19985881854E+03 -0.61488396023E+02  0.82491803441E+03  0.86802515609E+03  0.17103665662E+03 0.  0.
         24    2    5    5    0    0  0.19464319163E+02 -0.12986309190E+02  0.26045283416E+03  0.27343480961E+03  0.79896259832E+02 0.  0.
          5    1    5    5  501    0  0.18039449938E+03 -0.48502086833E+02  0.56446520025E+03  0.59459034648E+03  0.47000000000E+01 0. -1.
        -11    1    6    6    0    0  0.29642880976E+02 -0.42391292934E+02  0.14921153945E+03  0.15792341693E+03  0.00000000000E+00 0.  1.
         12    1    6    6    0    0 -0.10178561812E+02  0.29404983744E+02  0.11124129471E+03  0.11551139268E+03  0.00000000000E+00 0. -1.
         -5    1    3    3    0  503  0.19796622886E+02  0.24303851368E+02  0.96408187250E+02  0.10148503357E+03  0.47000000000E+01 0.  1.
         13    1    4    4    0    0 -0.14545980571E+03 -0.11483985150E+02  0.32241995558E+03  0.35389979478E+03  0.00000000000E+00 0. -1.
        -14    1    4    4    0    0 -0.74195635719E+02  0.48668529805E+02  0.14253083827E+03  0.16789478256E+03  0.00000000000E+00 0.  1.
</event>
<event>
12    1  0.8526130E-002  0.1840192E+03  0.7818608E-02  0.1165160E+00
         21   -1    0    0  501  502  0.00000000000E+00  0.00000000000E+00  0.40575196072E+03  0.40575196072E+03  0.00000000000E+00 0.  1.
         21   -1    0    0  502  503 -0.00000000000E+00 -0.00000000000E+00 -0.10448358560E+03  0.10448358560E+03  0.00000000000E+00 0.  1.
         -6    2    1    2    0  503 -0.46258833180E+02 -0.48953336760E+02  0.28623278359E+02  0.18130028994E+03  0.16587403124E+03 0.  0.
        -24    2    3    3    0    0  0.22479939832E+02  0.13857912663E+02 -0.43479343413E+01  0.82409123317E+02  0.77942091547E+02 0.  0.
          6    2    1    2  501    0  0.46258833180E+02  0.48953336760E+02  0.27264509676E+03  0.32893525638E+03  0.17125053365E+03 0.  0.
         24    2    5    5    0    0  0.69506302624E+02  0.86244071721E+02  0.23077194334E+03  0.26805426816E+03  0.79550203220E+02 0.  0.
          5    1    5    5  501    0 -0.23247469444E+02 -0.37290734961E+02  0.41873153415E+02  0.60880988218E+02  0.47000000000E+01 0. -1.
        -11    1    6    6    0    0  0.57876079722E+02  0.97593851785E+01  0.90602689509E+02  0.10795245967E+03  0.00000000000E+00 0.  1.
         12    1    6    6    0    0  0.11630222902E+02  0.76484686542E+02  0.14016925384E+03  0.16010180849E+03  0.00000000000E+00 0. -1.
         -5    1    3    3    0  503 -0.68738773011E+02 -0.62811249423E+02  0.32971212701E+02  0.98891166623E+02  0.47000000000E+01 0.  1.
         11    1    4    4    0    0  0.40946105284E+02 -0.12301930124E+02  0.14628570038E+02  0.45187565591E+02  0.00000000000E+00 0. -1.
        -12    1    4    4    0    0 -0.18466165452E+02  0.26159842787E+02 -0.18976504379E+02  0.37221557727E+02  0.00000000000E+00 0.  1.
</event>
<event>
12    1  0.8526130E-002  0.1763340E+03  0.7818608E-02  0.1171630E+00
         21   -1    0    0  503  502  0.00000000000E+00  0.00000000000E+00  0.83270522328E+03  0.83270522328E+03  0.00000000000E+00 0. -1.
         21   -1    0    0  501  503 -0.00000000000E+00 -0.00000000000E+00 -0.37152023474E+02  0.37152023474E+02  0.00000000000E+00 0. -1.
          6    2    1    2  501    0  0.28836201994E+02  0.22116103057E+02  0.39058428725E+03  0.42816333018E+03  0.17160158307E+03 0.  0.
         24    2    3    3    0    0  0.72403896104E+02  0.10260034016E+02  0.15302010938E+03  0.18630068539E+03  0.77105116773E+02 0.  0.
         -6    2    1    2    0  502 -0.28836201994E+02 -0.22116103057E+02  0.40496891256E+03  0.44169391657E+03  0.17254868077E+03 0.  0.
        -24    2    5    5    0    0  0.14113185086E+02  0.45280349709E+02  0.25915587217E+03  0.27534950144E+03  0.80038052211E+02 0.  0.
          5    1    3    3  501    0 -0.43567694110E+02  0.11856069041E+02  0.23756417786E+03  0.24186264479E+03  0.47000000000E+01 0. -1.
        -13    1    4    4    0    0  0.32902115781E+02 -0.13098586636E+02  0.11049682108E+02  0.37097407854E+02  0.00000000000E+00 0.  1.
         14    1    4    4    0    0  0.39501780323E+02  0.23358620653E+02  0.14197042727E+03  0.14920327754E+03  0.00000000000E+00 0. -1.
         -5    1    5    5    0  502 -0.42949387080E+02 -0.67396452766E+02  0.14581304039E+03  0.16634441513E+03  0.47000000000E+01 0.  1.
         11    1    6    6    0    0 -0.54709313141E+01  0.51856858700E+02  0.83235232711E+02  0.98220002281E+02  0.00000000000E+00 0. -1.
        -12    1    6    6    0    0  0.19584116400E+02 -0.65765089909E+01  0.17592063946E+03  0.17712949916E+03  0.00000000000E+00 0.  1.
</event>
<event>
12    1  0.8526130E-002  0.3028966E+03  0.7818608E-02  0.1084506E+00
         21   -1    0    0  503  502  0.00000000000E+00  0.00000000000E+00  0.10010974163E+03  0.10010974163E+03  0.00000000000E+00 0.  1.
         21   -1    0    0  501  503 -0.00000000000E+00 -0.00000000000E+00 -0.10021256308E+04  0.10021256308E+04  0.00000000000E+00 0. -1.
          6    2    1    2  501    0  0.24274705391E+03  0.20339233731E+01 -0.27841995377E+03  0.41141708096E+03  0.18115207650E+03 0.  0.
         24    2    3    3    0    0  0.21471570869E+03  0.46592171660E+01 -0.13654398858E+03  0.26669829164E+03  0.79744429818E+02 0.  0.
         -6    2    1    2    0  502 -0.24274705391E+03 -0.20339233731E+01 -0.62359593535E+03  0.69081829142E+03  0.17154518980E+03 0.  0.
        -24    2    5    5    0    0 -0.41197010436E+02  0.23367527551E+02 -0.22948404846E+03  0.24740660559E+03  0.79396882695E+02 0.  0.
          5    1    3    3  501    0  0.28031345229E+02 -0.26252937929E+01 -0.14187596519E+03  0.14471878932E+03  0.47000000000E+01 0. -1.
        -13    1    4    4    0    0  0.20237876785E+03 -0.10037833972E+02 -0.14117579724E+03  0.24695855829E+03  0.00000000000E+00 0.  1.
         14    1    4    4    0    0  0.12336940838E+02  0.14697051138E+02  0.46318086595E+01  0.19739733353E+02  0.00000000000E+00 0. -1.
         -5    1    5    5    0  502 -0.20155004348E+03 -0.25401450924E+02 -0.39411188689E+03  0.44341168582E+03  0.47000000000E+01 0.  1.
         13    1    6    6    0    0 -0.57515018422E+02  0.17822303660E+02 -0.21923822653E+03  0.22735657418E+03  0.00000000000E+00 0. -1.
        -14    1    6    6    0    0  0.16318007986E+02  0.55452238907E+01 -0.10245821931E+02  0.20050031413E+02  0.00000000000E+00 0.  1.
</event>
<event>
12    1  0.8526130E-002  0.1737433E+03  0.7818608E-02  0.1174912E+00
         21   -1    0    0  501  502  0.00000000000E+00  0.00000000000E+00  0.11970604429E+03  0.11970604429E+03  0.00000000000E+00 0.  1.
         21   -1    0    0  502  503 -0.00000000000E+00 -0.00000000000E+00 -0.24783613990E+03  0.24783613990E+03  0.00000000000E+00 0. -1.
         -6    2    1    2    0  503  0.23604712980E+02  0.27622790736E+01 -0.52940199361E+02  0.17822691701E+03  0.16851515237E+03 0.  0.
        -24    2    3    3    0    0  0.41267695567E+02  0.37588428811E+02  0.15388743025E+02  0.99386724046E+02  0.80777440085E+02 0.  0.
          6    2    1    2  501    0 -0.23604712980E+02 -0.27622790736E+01 -0.75189896251E+02  0.18931526718E+03  0.17211024730E+03 0.  0.
         24    2    5    5    0    0  0.46015694614E+02  0.29941188454E+02 -0.40428666145E+02  0.10477562523E+03  0.79558379062E+02 0.  0.
          5    1    5    5  501    0 -0.69620407594E+02 -0.32703467528E+02 -0.34761230106E+02  0.84539641947E+02  0.47000000000E+01 0. -1.
        -13    1    6    6    0    0  0.24906908205E+02 -0.10932703329E+02  0.16321666395E+02  0.31721835892E+02  0.00000000000E+00 0.  1.
         14    1    6    6    0    0  0.21108786409E+02  0.40873891783E+02 -0.56750332539E+02  0.73053789337E+02  0.00000000000E+00 0. -1.
         -5    1    3    3    0  503 -0.17662982587E+02 -0.34826149737E+02 -0.68328942386E+02  0.78840192966E+02  0.47000000000E+01 0.  1.
         11    1    4    4    0    0  0.28965299157E+02 -0.22282273322E+02  0.10733955042E+02  0.38088135298E+02  0.00000000000E+00 0. -1.
        -12    1    4    4    0    0  0.12302396410E+02  0.59870702132E+02  0.46547879832E+01  0.61298588747E+02  0.00000000000E+00 0.  1.
</event>
<event>
12    1  0.8526130E-002  0.2181517E+03  0.7818608E-02  0.1135306E+00
         21   -1    0    0  503  502  0.00000000000E+00  0.00000000000E+00  0.62842970273E+02  0.62842970273E+02  0.00000000000E+00 0.  1.
         21   -1    0    0  501  503 -0.00000000000E+00 -0.00000000000E+00 -0.80850180645E+03  0.80850180645E+03  0.00000000000E+00 0. -1.
          6    2    1    2  501    0  0.75860846719E+02 -0.11026254470E+03 -0.48337840503E+03  0.53032520968E+03  0.17227143916E+03 0.  0.
         24    2    3    3    0    0  0.44616470887E+02 -0.70116292984E+02 -0.13015359810E+03  0.17342496202E+03  0.78926132170E+02 0.  0.
         -6    2    1    2    0  502 -0.75860846719E+02  0.11026254470E+03 -0.26228043115E+03  0.34101956704E+03  0.17201925390E+03 0.  0.
        -24    2    5    5    0    0 -0.94966789757E+02  0.11985353161E+03 -0.15597973596E+03  0.23248868716E+03  0.79609995812E+02 0.  0.
          5    1    3    3  501    0  0.31244375832E+02 -0.40146251719E+02 -0.35322480693E+03  0.35690024766E+03  0.47000000000E+01 0. -1.
        -11    1    4    4    0    0  0.41842638835E+02 -0.11644024259E+02 -0.18201738249E+02  0.47092387930E+02  0.00000000000E+00 0.  1.
         12    1    4    4    0    0  0.27738320523E+01 -0.58472268724E+02 -0.11195185985E+03  0.12633257409E+03  0.00000000000E+00 0. -1.
         -5    1    5    5    0  502  0.19105943038E+02 -0.95909869039E+01 -0.10630069519E+03  0.10853087988E+03  0.47000000000E+01 0.  1.
         13    1    6    6    0    0 -0.21185949513E+02  0.86549376657E+02 -0.10071462202E+03  0.13447332131E+03  0.00000000000E+00 0. -1.
        -14    1    6    6    0    0 -0.73780840244E+02  0.33304154950E+02 -0.55265113946E+02  0.98015365854E+02  0.00000000000E+00 0.  1.
</event>
<event>
12    1  0.8526130E-002  0.2483576E+03  0.7818608E-02  0.1114526E+00
         21   -1    0    0  501  502  0.00000000000E+00  0.00000000000E+00  0.49383720217E+03  0.49383720217E+03  0.00000000000E+00 0. -1.
         21   -1    0    0  502  503 -0.00000000000E+00 -0.00000000000E+00 -0.12461383734E+03  0.12461383734E+03  0.00000000000E+00 0. -1.
         -6    2    1    2    0  503  0.34087253613E+02 -0.17576093513E+03  0.19954588026E+03  0.31859074004E+03  0.17212685478E+03 0.  0.
        -24    2    3    3    0    0  0.65605196682E+02 -0.51740886603E+02  0.59928213843E+02  0.12914540242E+03  0.78140789434E+02 0.  0.
          6    2    1    2  501    0 -0.34087253613E+02  0.17576093513E+03  0.16967748457E+03  0.29986029947E+03  0.17050484817E+03 0.  0.
         24    2    5    5    0    0  0.29651057671E+02  0.47710927998E+02  0.34807510757E+02  0.10320990794E+03  0.79279281149E+02 0.  0.
          5    1    5    5  501    0 -0.63738311283E+02  0.12805000714E+03  0.13486997381E+03  0.19665039153E+03  0.47000000000E+01 0. -1.
        -13    1    6    6    0    0  0.24115283016E+01 -0.22092058978E+02  0.86003432020E+01  0.23829402884E+02  0.00000000000E+00 0.  1.
         14    1    6    6    0    0  0.27239529369E+02  0.69802986976E+02  0.26207167555E+02  0.79380505051E+02  0.00000000000E+00 0. -1.
         -5    1    3    3    0  503 -0.31517943069E+02 -0.12402004853E+03  0.13961766641E+03  0.18944533762E+03  0.47000000000E+01 0.  1.
         13    1    4    4    0    0  0.23238395687E+02 -0.64175887243E+02  0.47893185568E+02  0.83380601829E+02  0.00000000000E+00 0. -1.
        -14    1    4    4    0    0  0.42366800995E+02  0.12435000640E+02  0.12035028276E+02  0.45764800590E+02  0.00000000000E+00 0.  1.
</event>
<event>
12    1  0.8526130E-002  0.1803702E+03  0.7818608E-02  0.1168094E+00
         21   -1    0    0  501  502  0.00000000000E+00  0.00000000000E+00  0.69322208039E+03  0.69322208039E+03  0.00000000000E+00 0. -1.
         21   -1    0    0  502  503 -0.00000000000E+00 -0.00000000000E+00 -0.52569555025E+02  0.52569555025E+02  0.00000000000E+00 0. -1.
         -6    2    1    2    0  503  0.32636011939E+02  0.30557810509E+02  0.45182147340E+03  0.48649361511E+03  0.17474125060E+03 0.  0.
        -24    2    3    3    0    0 -0.27667219703E+02 -0.15281228937E+02  0.34354765804E+03  0.35427029502E+03  0.80519920419E+02 0.  0.
          6    2    1    2  501    0 -0.32636011939E+02 -0.30557810509E+02  0.18883105197E+03  0.25929802031E+03  0.17198665090E+03 0.  0.
         24    2    5    5    0    0 -0.52018231278E+02 -0.56040856983E+02  0.59087466117E+02  0.12557986838E+03  0.80202871859E+02 0.  0.
          5    1    5    5  501    0  0.19382219339E+02  0.25483046474E+02  0.12974358585E+03  0.13371815192E+03  0.47000000000E+01 0. -1.
        -11    1    6    6    0    0  0.52040165551E+01 -0.42296936454E+02  0.50545960260E+02  0.66113589528E+02  0.00000000000E+00 0.  1.
         12    1    6    6    0    0 -0.57222247833E+02 -0.13743920529E+02  0.85415058572E+01  0.59466278856E+02  0.00000000000E+00 0. -1.
         -5    1    3    3    0  503  0.60303231642E+02  0.45839039445E+02  0.10827381536E+03  0.13222332009E+03  0.47000000000E+01 0.  1.
         11    1    4    4    0    0  0.14000455538E+02 -0.24516516237E+02  0.24827494418E+03  0.24987500921E+03  0.00000000000E+00 0. -1.
        -12    1    4    4    0    0 -0.41667675241E+02  0.92352873002E+01  0.95272713866E+02  0.10439528581E+03  0.00000000000E+00 0.  1.
</event>
<event>
12    1  0.8526130E-002  0.1819070E+03  0.7818608E-02  0.1165976E+00
         21   -1    0    0  501  502  0.00000000000E+00  0.00000000000E+00  0.39731915522E+02  0.39731915522E+02  0.00000000000E+00 0.  1.
         21   -1    0    0  502  503 -0.00000000000E+00 -0.00000000000E+00 -0.29946685410E+04  0.29946685410E+04  0.00000000000E+00 0. -1.
         -6    2    1    2    0  503  0.57087293562E+02 -0.10646126430E+02 -0.27666113404E+04  0.27725851584E+04  0.17238866746E+03 0.  0.
        -24    2    3    3    0    0  0.37951657916E+02  0.60890740394E+02 -0.17986826808E+04  0.18018165578E+04  0.78329503380E+02 0.  0.
          6    2    1    2  501    0 -0.57087293562E+02  0.10646126430E+02 -0.18832528509E+03  0.26181529813E+03  0.17236164955E+03 0.  0.
         24    2    5    5    0    0  0.25713549712E+02 -0.16465353440E+02 -0.51553680495E+02  0.99582213308E+02  0.79539554512E+02 0.  0.
          5    1    5    5  501    0 -0.82800843274E+02  0.27111479871E+02 -0.13677160459E+03  0.16223308482E+03  0.47000000000E+01 0. -1.
        -11    1    6    6    0    0 -0.18690814333E+02 -0.25664275050E+02 -0.11331534234E+01  0.31769255436E+02  0.00000000000E+00 0.  1.
         12    1    6    6    0    0  0.44404364045E+02  0.91989216100E+01 -0.50420527072E+02  0.67812957871E+02  0.00000000000E+00 0. -1.
         -5    1    3    3    0  503  0.19135635646E+02 -0.71536866824E+02 -0.96792865953E+03  0.97076860055E+03  0.47000000000E+01 0.  1.
         11    1    4    4    0    0 -0.26105268192E+01  0.20158603132E+02 -0.12434476496E+04  0.12436137831E+04  0.00000000000E+00 0. -1.
        -12    1    4    4    0    0  0.40562184735E+02  0.40732137262E+02 -0.55523503119E+03  0.55820277471E+03  0.00000000000E+00 0.  1.
</event>
<event>
12    1  0.8526130E-002  0.1759434E+03  0.7818608E-02  0.1172522E+00
         21   -1    0    0  501  502  0.00000000000E+00  0.00000000000E+00  0.84493063169E+03  0.84493063169E+03  0.00000000000E+00 0.  1.
         21   -1    0    0  502  503 -0.00000000000E+00 -0.00000000000E+00 -0.46258019476E+02  0.46258019476E+02  0.00000000000E+00 0.  1.
         -6    2    1    2    0  503  0.31105462576E+02 -0.14792756143E+02  0.60623295667E+03  0.63044145906E+03  0.16956314490E+03 0.  0.
        -24    2    3    3    0    0  0.22071030949E+02  0.50023042104E+02  0.37360333340E+03  0.38873639026E+03  0.92450501565E+02 0.  0.
          6    2    1    2  501    0 -0.31105462576E+02  0.14792756143E+02  0.19243965554E+03  0.26074719210E+03  0.17253898612E+03 0.  0.
         24    2    5    5    0    0  0.23000069816E+02 -0.32524012627E+02  0.52652931464E+02  0.10349356426E+03  0.79698005262E+02 0.  0.
          5    1    5    5  501    0 -0.54105532392E+02  0.47316768770E+02  0.13978672408E+03  0.15725362784E+03  0.47000000000E+01 0. -1.
        -13    1    6    6    0    0  0.87008271959E+01  0.12510356664E+01 -0.20144359225E+02  0.21978732737E+02  0.00000000000E+00 0.  1.
         14    1    6    6    0    0  0.14299242620E+02 -0.33775048293E+02  0.72797290689E+02  0.81514831524E+02  0.00000000000E+00 0. -1.
         -5    1    3    3    0  503  0.90344316277E+01 -0.64815798248E+02  0.23262962327E+03  0.24170506880E+03  0.47000000000E+01 0.  1.
         11    1    4    4    0    0 -0.24662219762E+01  0.18901788888E+02  0.74842650341E+01  0.20478625371E+02  0.00000000000E+00 0. -1.
        -12    1    4    4    0    0  0.24537252925E+02  0.31121253216E+02  0.36611906836E+03  0.36825776489E+03  0.00000000000E+00 0.  1.
</event>
<event>
12    1  0.8526130E-002  0.2044569E+03  0.7818608E-02  0.1146706E+00
         21   -1    0    0  501  502  0.00000000000E+00  0.00000000000E+00  0.10789392522E+03  0.10789392522E+03  0.00000000000E+00 0. -1.
         21   -1    0    0  502  503 -0.00000000000E+00 -0.00000000000E+00 -0.38809701040E+03  0.38809701040E+03  0.00000000000E+00 0. -1.
         -6    2    1    2    0  503  0.85934710340E+02 -0.57136141605E+02 -0.17403838921E+03  0.26849950233E+03  0.17650299917E+03 0.  0.
        -24    2    3    3    0    0  0.18076927303E+02  0.40398661361E+02 -0.78826367547E+02  0.11616718279E+03  0.72954718804E+02 0.  0.
          6    2    1    2  501    0 -0.85934710340E+02  0.57136141605E+02 -0.10616469598E+03  0.22749143329E+03  0.17271970481E+03 0.  0.
         24    2    5    5    0    0  0.13835609561E+02  0.42330178931E+02 -0.21249380333E+02  0.95559503514E+02  0.81834066299E+02 0.  0.
          5    1    5    5  501    0 -0.99770319901E+02  0.14805962674E+02 -0.84915315643E+02  0.13193192978E+03  0.47000000000E+01 0. -1.
        -13    1    6    6    0    0  0.27804571954E+02  0.13305006019E+02  0.24661657312E+02  0.39475495539E+02  0.00000000000E+00 0.  1.
         14    1    6    6    0    0 -0.13968962393E+02  0.29025172912E+02 -0.45911037645E+02  0.56084007975E+02  0.00000000000E+00 0. -1.
         -5    1    3    3    0  503  0.67857783037E+02 -0.97534802966E+02 -0.95212021659E+02  0.15233231954E+03  0.47000000000E+01 0.  1.
         11    1    4    4    0    0  0.75612835401E+01 -0.96719172542E+01  0.85172295988E+01  0.14941960788E+02  0.00000000000E+00 0. -1.
        -12    1    4    4    0    0  0.10515643763E+02  0.50070578615E+02 -0.87343597146E+02  0.10122522200E+03  0.00000000000E+00 0.  1.
</event>
<event>
12    1  0.8526130E-002  0.1785155E+03  0.7818608E-02  0.1169288E+00
         21   -1    0    0  503  502  0.00000000000E+00  0.00000000000E+00  0.66097127065E+03  0.66097127065E+03  0.00000000000E+00 0.  1.
         21   -1    0    0  501  503 -0.00000000000E+00 -0.00000000000E+00 -0.50089267710E+02  0.50089267710E+02  0.00000000000E+00 0.  1.
          6    2    1    2  501    0  0.44730589270E+02  0.59744403029E+01  0.23569073967E+03  0.29556532180E+03  0.17254626954E+03 0.  0.
         24    2    3    3    0    0  0.38213322034E+02  0.45721394242E+02  0.62368922507E+02  0.11756296950E+03  0.79877815635E+02 0.  0.
         -6    2    1    2    0  502 -0.44730589270E+02 -0.59744403029E+01  0.37519126327E+03  0.41549521656E+03  0.17271731643E+03 0.  0.
        -24    2    5    5    0    0 -0.16118564933E+02 -0.27181569553E+02  0.81803541526E+02  0.11991640213E+03  0.81789230559E+02 0.  0.
          5    1    3    3  501    0  0.65172672355E+01 -0.39746953939E+02  0.17332181717E+03  0.17800235230E+03  0.47000000000E+01 0. -1.
        -11    1    4    4    0    0  0.36494186861E+02  0.40148676201E+02 -0.66450920472E+00  0.54260330333E+02  0.00000000000E+00 0.  1.
         12    1    4    4    0    0  0.17191351732E+01  0.55727180409E+01  0.63033431712E+02  0.63302639167E+02  0.00000000000E+00 0. -1.
         -5    1    5    5    0  502 -0.28612024337E+02  0.21207129250E+02  0.29338772174E+03  0.29557881442E+03  0.47000000000E+01 0.  1.
         11    1    6    6    0    0 -0.16826252068E+02  0.27862807446E+02  0.32947602898E+02  0.46314180703E+02  0.00000000000E+00 0. -1.
        -12    1    6    6    0    0  0.70768713543E+00 -0.55044376999E+02  0.48855938627E+02  0.73602221430E+02  0.00000000000E+00 0.  1.
</event>
<event>
12    1  0.8526130E-002  0.2451388E+03  0.7818608E-02  0.1116503E+00
         21   -1    0    0  501  502  0.00000000000E+00  0.00000000000E+00  0.12250578978E+04  0.12250578978E+04  0.00000000000E+00 0. -1.
         21   -1    0    0  502  503 -0.00000000000E+00 -0.00000000000E+00 -0.56343264388E+02  0.56343264388E+02  0.00000000000E+00 0.  1.
         -6    2    1    2    0  503 -0.14066377607E+03  0.10293683747E+03  0.35163985282E+03  0.42834533042E+03  0.17160083217E+03 0.  0.
        -24    2    3    3    0    0 -0.74100056085E+01  0.15440321459E+02  0.87432262882E+02  0.11973562832E+03  0.79993177119E+02 0.  0.
          6    2    1    2  501    0  0.14066377607E+03 -0.10293683747E+03  0.81707478063E+03  0.85305583180E+03  0.17236810790E+03 0.  0.
         24    2    5    5    0    0  0.97777423160E+02 -0.13990008306E+03  0.63771615728E+03  0.66491459082E+03  0.79354004916E+02 0.  0.
          5    1    5    5  501    0  0.42886352909E+02  0.36963245596E+02  0.17935862335E+03  0.18814124099E+03  0.47000000000E+01 0. -1.
        -13    1    6    6    0    0  0.76268999481E+02 -0.54253024993E+02  0.24209902792E+03  0.25956172738E+03  0.00000000000E+00 0.  1.
         14    1    6    6    0    0  0.21508423679E+02 -0.85647058069E+02  0.39561712937E+03  0.40535286343E+03  0.00000000000E+00 0. -1.
         -5    1    3    3    0  503 -0.13325377046E+03  0.87496516007E+02  0.26420758993E+03  0.30860970211E+03  0.47000000000E+01 0.  1.
         13    1    4    4    0    0 -0.37593270579E+02  0.23660224627E+02  0.72610126943E+02  0.85119273710E+02  0.00000000000E+00 0. -1.
        -14    1    4    4    0    0  0.30183264971E+02 -0.82199031678E+01  0.14822135939E+02  0.34616354606E+02  0.00000000000E+00 0.  1.
</event>
<event>
12    1  0.8526130E-002  0.2159766E+03  0.7818608E-02  0.1137161E+00
         21   -1    0    0  501  502  0.00000000000E+00  0.00000000000E+00  0.68873807349E+03  0.68873807349E+03  0.00000000000E+00 0. -1.
         21   -1    0    0  502  503 -0.00000000000E+00 -0.00000000000E+00 -0.10640945800E+03  0.10640945800E+03  0.00000000000E+00 0. -1.
         -6    2    1    2    0  503 -0.82511185538E+02  0.95332011710E+02  0.50771288172E+02  0.22186391253E+03  0.17535559239E+03 0.  0.
        -24    2    3    3    0    0 -0.83375273578E+02  0.38632816867E+01 -0.36268594233E+01  0.11533446269E+03  0.79514294224E+02 0.  0.
          6    2    1    2  501    0  0.82511185538E+02 -0.95332011710E+02  0.53155732733E+03  0.57328361896E+03  0.17379478513E+03 0.  0.
         24    2    5    5    0    0  0.64447573374E+02 -0.13585174553E+03  0.41744233781E+03  0.45075825936E+03  0.79471482349E+02 0.  0.
          5    1    5    5  501    0  0.18063612164E+02  0.40519733821E+02  0.11411498952E+03  0.12252535960E+03  0.47000000000E+01 0. -1.
        -13    1    6    6    0    0  0.63783427567E+02 -0.12705812810E+03  0.28962591419E+03  0.32263797625E+03  0.00000000000E+00 0.  1.
         14    1    6    6    0    0  0.66414580669E+00 -0.87936174337E+01  0.12781642362E+03  0.12812028311E+03  0.00000000000E+00 0. -1.
         -5    1    3    3    0  503  0.86408803999E+00  0.91468730023E+02  0.54398147595E+02  0.10652944983E+03  0.47000000000E+01 0.  1.
         13    1    4    4    0    0 -0.74523925132E+02  0.34874157418E+02 -0.85038580842E+01  0.82718425245E+02  0.00000000000E+00 0. -1.
        -14    1    4    4    0    0 -0.88513484462E+01 -0.31010875731E+02  0.48769986609E+01  0.32616037449E+02  0.00000000000E+00 0.  1.
</event>
<event>
12    1  0.8526130E-002  0.1783706E+03  0.7818608E-02  0.1170474E+00
         21   -1    0    0  501  502  0.00000000000E+00  0.00000000000E+00  0.38912075818E+03  0.38912075818E+03  0.00000000000E+00 0.  1.
         21   -1    0    0  502  503 -0.00000000000E+00 -0.00000000000E+00 -0.85918049783E+02  0.85918049783E+02  0.00000000000E+00 0.  1.
         -6    2    1    2    0  503 -0.23411566823E+02 -0.38593713791E+02  0.89831788607E+02  0.19971436763E+03  0.17256448704E+03 0.  0.
        -24    2    3    3    0    0  0.28591488333E+02 -0.39193850940E+02 -0.23031596475E+01  0.93810559386E+02  0.80258864628E+02 0.  0.
          6    2    1    2  501    0  0.23411566823E+02  0.38593713791E+02  0.21337091979E+03  0.27532444033E+03  0.16804410679E+03 0.  0.
         24    2    5    5    0    0  0.80091457170E+02  0.29294637617E+02  0.13671622192E+03  0.17942284758E+03  0.78920311662E+02 0.  0.
          5    1    5    5  501    0 -0.56679890347E+02  0.92990761745E+01  0.76654697864E+02  0.95901592751E+02  0.47000000000E+01 0. -1.
        -11    1    6    6    0    0 -0.22510896538E+01  0.12308148626E+01 -0.91951783631E+01  0.95463927734E+01  0.00000000000E+00 0.  1.
         12    1    6    6    0    0  0.82342546824E+02  0.28063822754E+02  0.14591140028E+03  0.16987645481E+03  0.00000000000E+00 0. -1.
         -5    1    3    3    0  503 -0.52003055156E+02  0.60013714874E+00  0.92134948255E+02  0.10590380824E+03  0.47000000000E+01 0.  1.
         13    1    4    4    0    0  0.33799477677E+02 -0.39084478404E+02  0.30896573693E+02  0.60204646078E+02  0.00000000000E+00 0. -1.
        -14    1    4    4    0    0 -0.52079893445E+01 -0.10937253534E+00 -0.33199733341E+02  0.33605913308E+02  0.00000000000E+00 0.  1.
</event>
<event>
12    1  0.8526130E-002  0.1817316E+03  0.7818608E-02  0.1166591E+00
         21   -1    0    0  503  502  0.00000000000E+00  0.00000000000E+00  0.75539431758E+02  0.75539431758E+02  0.00000000000E+00 0. -1.
         21   -1    0    0  501  503 -0.00000000000E+00 -0.00000000000E+00 -0.45589292306E+03  0.45589292306E+03  0.00000000000E+00 0. -1.
          6    2    1    2  501    0 -0.38791959949E+02 -0.31551087568E+02 -0.12928394767E+03  0.22149319626E+03  0.17275592488E+03 0.  0.
         24    2    3    3    0    0  0.20746555590E+02 -0.67563893476E+02 -0.58244496372E+02  0.12194194984E+03  0.80511604773E+02 0.  0.
         -6    2    1    2    0  502  0.38791959949E+02  0.31551087568E+02 -0.25106954364E+03  0.30993915857E+03  0.17471713994E+03 0.  0.
        -24    2    5    5    0    0  0.82956369410E+01  0.69539478091E+02 -0.23441231369E+03  0.25824102668E+03  0.82672476933E+02 0.  0.
          5    1    3    3  501    0 -0.59538515539E+02  0.36012805908E+02 -0.71039451297E+02  0.99551246414E+02  0.47000000000E+01 0. -1.
        -11    1    4    4    0    0 -0.24369722377E+02 -0.81425752233E+01 -0.35732759925E+02  0.44011532942E+02  0.00000000000E+00 0.  1.
         12    1    4    4    0    0  0.45116277967E+02 -0.59421318253E+02 -0.22511736447E+02  0.77930416901E+02  0.00000000000E+00 0. -1.
         -5    1    5    5    0  502  0.30496323008E+02 -0.37988390522E+02 -0.16657229943E+02  0.51698131890E+02  0.47000000000E+01 0.  1.
         13    1    6    6    0    0 -0.25702899483E+02  0.45571935594E+02 -0.63194376475E+02  0.82042486394E+02  0.00000000000E+00 0. -1.
        -14    1    6    6    0    0  0.33998536424E+02  0.23967542496E+02 -0.17121793722E+03  0.17619854028E+03  0.00000000000E+00 0.  1.
</event>
<event>
12    1  0.8526130E-002  0.1836360E+03  0.7818608E-02  0.1164337E+00
         21   -1    0    0  503  502  0.00000000000E+00  0.00000000000E+00  0.66362527628E+03  0.66362527628E+03  0.00000000000E+00 0. -1.
         21   -1    0    0  501  503 -0.00000000000E+00 -0.00000000000E+00 -0.50878242977E+02  0.50878242977E+02  0.00000000000E+00 0.  1.
          6    2    1    2  501    0  0.55731400595E+02 -0.28556266656E+02  0.29296150771E+03  0.34575804708E+03  0.17262888734E+03 0.  0.
         24    2    3    3    0    0 -0.12346153653E+02  0.30575999178E+02  0.11199701021E+03  0.14351705813E+03  0.83465540456E+02 0.  0.
         -6    2    1    2    0  502 -0.55731400595E+02  0.28556266656E+02  0.31978552559E+03  0.36874547218E+03  0.17259487679E+03 0.  0.
        -24    2    5    5    0    0 -0.17793942842E+02  0.79123561240E+02  0.24829542401E+03  0.27319848579E+03  0.80060181805E+02 0.  0.
          5    1    3    3  501    0  0.68077554248E+02 -0.59132265834E+02  0.18096449751E+03  0.20224098895E+03  0.47000000000E+01 0. -1.
        -13    1    4    4    0    0  0.34709792827E+02  0.24039707309E+02  0.53945501792E+02  0.68503973674E+02  0.00000000000E+00 0.  1.
         14    1    4    4    0    0 -0.47055946479E+02  0.65362918682E+01  0.58051508414E+02  0.75013084456E+02  0.00000000000E+00 0. -1.
         -5    1    5    5    0  502 -0.37937457753E+02 -0.50567294584E+02  0.71490101588E+02  0.95546986386E+02  0.47000000000E+01 0.  1.
         11    1    6    6    0    0 -0.29159773910E+02  0.14729702045E+02  0.16014437274E+03  0.16344257909E+03  0.00000000000E+00 0. -1.
        -12    1    6    6    0    0  0.11365831068E+02  0.64393859195E+02  0.88151051263E+02  0.10975590670E+03  0.00000000000E+00 0.  1.
</event>
<event>
12    1  0.8526130E-002  0.1891768E+03  0.7818608E-02  0.1159320E+00
         21   -1    0    0  503  502  0.00000000000E+00  0.00000000000E+00  0.31578619723E+03  0.31578619723E+03  0.00000000000E+00 0.  1.
         21   -1    0    0  501  503 -0.00000000000E+00 -0.00000000000E+00 -0.12976122983E+03  0.12976122983E+03  0.00000000000E+00 0.  1.
          6    2    1    2  501    0  0.73617171645E+02  0.27881419763E+02  0.12909649069E+02  0.18911660845E+03  0.17146886313E+03 0.  0.
         24    2    3    3    0    0  0.11062748550E+03  0.27508202818E+02 -0.18437293921E+02  0.14038650013E+03  0.79832912013E+02 0.  0.
         -6    2    1    2    0  502 -0.73617171645E+02 -0.27881419763E+02  0.17311531833E+03  0.25643081861E+03  0.17202031787E+03 0.  0.
        -24    2    5    5    0    0 -0.11444592985E+03 -0.38575346826E+02  0.11811189162E+03  0.18694114655E+03  0.80066504154E+02 0.  0.
          5    1    3    3  501    0 -0.37010313855E+02  0.37321694462E+00  0.31346942990E+02  0.48730108325E+02  0.47000000000E+01 0. -1.
        -11    1    4    4    0    0  0.40600480976E+02  0.51029619830E+02 -0.11138603902E+02  0.66155042531E+02  0.00000000000E+00 0.  1.
         12    1    4    4    0    0  0.70027004523E+02 -0.23521417012E+02 -0.72986900193E+01  0.74231457595E+02  0.00000000000E+00 0. -1.
         -5    1    5    5    0  502  0.40828758209E+02  0.10693927063E+02  0.55003426710E+02  0.69489672059E+02  0.47000000000E+01 0.  1.
         11    1    6    6    0    0 -0.65418757622E+01 -0.29038796356E+02  0.47474160429E+01  0.30142756864E+02  0.00000000000E+00 0. -1.
        -12    1    6    6    0    0 -0.10790405409E+03 -0.95365504698E+01  0.11336447558E+03  0.15679838968E+03  0.00000000000E+00 0.  1.
</event>
<event>
12    1  0.8526130E-002  0.2633104E+03  0.7818608E-02  0.1105556E+00
         21   -1    0    0  501  502  0.00000000000E+00  0.00000000000E+00  0.19401992914E+04  0.19401992914E+04  0.00000000000E+00 0. -1.
         21   -1    0    0  502  503 -0.00000000000E+00 -0.00000000000E+00 -0.69811237387E+02  0.69811237387E+02  0.00000000000E+00 0. -1.
         -6    2    1    2    0  503 -0.17046601658E+03 -0.96295456483E+02  0.22707904995E+03  0.34573985808E+03  0.17216177506E+03 0.  0.
        -24    2    3    3    0    0 -0.92332598132E+02 -0.91982266510E+02  0.21908147596E+03  0.26693956699E+03  0.79208543017E+02 0.  0.
          6    2    1    2  501    0  0.17046601658E+03  0.96295456483E+02  0.16433090041E+04  0.16642706707E+04  0.17607073805E+03 0.  0.
         24    2    5    5    0    0  0.20750735400E+02  0.16790547892E+02  0.33749089644E+03  0.34748719720E+03  0.78324526934E+02 0.  0.
          5    1    5    5  501    0  0.14971528118E+03  0.79504908591E+02  0.13058181076E+04  0.13167834735E+04  0.47000000000E+01 0. -1.
        -11    1    6    6    0    0  0.20682497263E+02  0.20388167718E+02  0.37291596290E+02  0.47266332942E+02  0.00000000000E+00 0.  1.
         12    1    6    6    0    0  0.68238136468E-01 -0.35976198257E+01  0.30019930015E+03  0.30022086426E+03  0.00000000000E+00 0. -1.
         -5    1    3    3    0  503 -0.78133418451E+02 -0.43131899728E+01  0.79975739965E+01  0.78800291094E+02  0.47000000000E+01 0.  1.
         11    1    4    4    0    0  0.28112222410E+01 -0.33754217599E+02  0.21722052284E+02  0.40238013515E+02  0.00000000000E+00 0. -1.
        -12    1    4    4    0    0 -0.95143820373E+02 -0.58228048911E+02  0.19735942367E+03  0.22670155348E+03  0.00000000000E+00 0.  1.
</event>
<event>
12    1  0.8526130E-002  0.2589907E+03  0.7818608E-02  0.1107865E+00
         21   -1    0    0  503  502  0.00000000000E+00  0.00000000000E+00  0.90748467044E+03  0.90748467044E+03  0.00000000000E+00 0. -1.
         21   -1    0    0  501  503 -0.00000000000E+00 -0.00000000000E+00 -0.14494247275E+03  0.14494247275E+03  0.00000000000E+00 0.  1.
          6    2    1    2  501    0  0.19274211290E+03  0.40683284829E-01  0.12632472745E+02  0.25929860709E+03  0.17299324996E+03 0.  0.
         24    2    3    3    0    0  0.37931356597E+02 -0.29193552418E+02  0.35478552898E+02  0.10003453650E+03  0.80356265842E+02 0.  0.
         -6    2    1    2    0  502 -0.19274211290E+03 -0.40683284829E-01  0.74990972494E+03  0.79312853611E+03  0.17186842491E+03 0.  0.
        -24    2    5    5    0    0 -0.21779490189E+03 -0.12508596322E+01  0.64131571955E+03  0.68157650891E+03  0.76318421255E+02 0.  0.
          5    1    3    3  501    0  0.15481075630E+03  0.29234235702E+02 -0.22846080153E+02  0.15926407059E+03  0.47000000000E+01 0. -1.
        -11    1    4    4    0    0  0.28538193349E+02  0.52322744578E+00 -0.21062434120E+02  0.35472924571E+02  0.00000000000E+00 0.  1.
         12    1    4    4    0    0  0.93931632483E+01 -0.29716779863E+02  0.56540987018E+02  0.64561611924E+02  0.00000000000E+00 0. -1.
         -5    1    5    5    0  502  0.25052788991E+02  0.12101763474E+01  0.10859400540E+03  0.11155202719E+03  0.47000000000E+01 0.  1.
         13    1    6    6    0    0 -0.85710721976E+02 -0.74540147832E+01  0.36842850492E+03  0.37834039361E+03  0.00000000000E+00 0. -1.
        -14    1    6    6    0    0 -0.13208417991E+03  0.62031551510E+01  0.27288721463E+03  0.30323611530E+03  0.00000000000E+00 0.  1.
</event>
<event>
12    1  0.8526130E-002  0.2483875E+03  0.7818608E-02  0.1114431E+00
         21   -1    0    0  503  502  0.00000000000E+00  0.00000000000E+00  0.65388989592E+02  0.65388989592E+02  0.00000000000E+00 0. -1.
         21   -1    0    0  501  503 -0.00000000000E+00 -0.00000000000E+00 -0.94230900468E+03  0.94230900468E+03  0.00000000000E+00 0.  1.
          6    2    1    2  501    0  0.16814610485E+03 -0.59303051296E+02 -0.42077565913E+03  0.48861899370E+03  0.17293467327E+03 0.  0.
         24    2    3    3    0    0  0.33129101094E+02  0.21206269250E+02 -0.18764559786E+03  0.20740189346E+03  0.79103930502E+02 0.  0.
         -6    2    1    2    0  502 -0.16814610485E+03  0.59303051296E+02 -0.45614435595E+03  0.51907900057E+03  0.17200398512E+03 0.  0.
        -24    2    5    5    0    0 -0.10011548406E+03  0.78067711097E+02 -0.40532772866E+03  0.43198883217E+03  0.78778841297E+02 0.  0.
          5    1    3    3  501    0  0.13501700375E+03 -0.80509320546E+02 -0.23313006127E+03  0.28121710024E+03  0.47000000000E+01 0. -1.
        -11    1    4    4    0    0 -0.11708062243E+02 -0.21581559971E+02 -0.73832155382E+02  0.77807645001E+02  0.00000000000E+00 0.  1.
         12    1    4    4    0    0  0.44837163338E+02  0.42787829221E+02 -0.11381344248E+03  0.12959424846E+03  0.00000000000E+00 0. -1.
         -5    1    5    5    0  502 -0.68030620789E+02 -0.18764659801E+02 -0.50816627294E+02  0.87090168400E+02  0.47000000000E+01 0.  1.
         13    1    6    6    0    0 -0.68110411351E+01  0.19375231509E+02 -0.12622011898E+02  0.24106120835E+02  0.00000000000E+00 0. -1.
        -14    1    6    6    0    0 -0.93304442922E+02  0.58692479588E+02 -0.39270571676E+03  0.40788271133E+03  0.00000000000E+00 0.  1.
</event>
<event>
12    1  0.8526130E-002  0.1713383E+03  0.7818608E-02  0.1176877E+00
         21   -1    0    0  501  502  0.00000000000E+00  0.00000000000E+00  0.12456956969E+03  0.12456956969E+03  0.00000000000E+00 0.  1.
         21   -1    0    0  502  503 -0.00000000000E+00 -0.00000000000E+00 -0.39024332107E+03  0.39024332107E+03  0.00000000000E+00 0.  1.
         -6    2    1    2    0  503 -0.13411094039E+02  0.27821273889E+01 -0.29636651527E+03  0.34233013337E+03  0.17078996214E+03 0.  0.
        -24    2    3    3    0    0  0.48493298279E+02  0.15096747921E+02 -0.10509994976E+03  0.14086352882E+03  0.78848097868E+02 0.  0.
          6    2    1    2  501    0  0.13411094039E+02 -0.27821273889E+01  0.30692763885E+02  0.17248275739E+03  0.16917641138E+03 0.  0.
         24    2    5    5    0    0 -0.12822998333E+02 -0.47747757953E+02  0.62523719838E+02  0.11128279586E+03  0.77655440483E+02 0.  0.
          5    1    5    5  501    0  0.26234092371E+02  0.44965630564E+02 -0.31830955953E+02  0.61199961531E+02  0.47000000000E+01 0. -1.
        -13    1    6    6    0    0 -0.17628858683E+02 -0.64731815260E+02  0.28377178824E+02  0.72844003483E+02  0.00000000000E+00 0.  1.
         14    1    6    6    0    0  0.48058603510E+01  0.16984057307E+02  0.34146541014E+02  0.38438792379E+02  0.00000000000E+00 0. -1.
         -5    1    3    3    0  503 -0.61904392318E+02 -0.12314620532E+02 -0.19126656551E+03  0.20146660455E+03  0.47000000000E+01 0.  1.
         13    1    4    4    0    0  0.42571673745E+02  0.45583705851E+02 -0.75851107258E+02  0.98201894670E+02  0.00000000000E+00 0. -1.
        -14    1    4    4    0    0  0.59216245338E+01 -0.30486957930E+02 -0.29248842502E+02  0.42661634153E+02  0.00000000000E+00 0.  1.
</event>
<event>
12    1  0.8526130E-002  0.2019955E+03  0.7818608E-02  0.1148078E+00
         21   -1    0    0  501  502  0.00000000000E+00  0.00000000000E+00  0.58739561486E+03  0.58739561486E+03  0.00000000000E+00 0. -1.
         21   -1    0    0  502  503 -0.00000000000E+00 -0.00000000000E+00 -0.19528663994E+03  0.19528663994E+03  0.00000000000E+00 0. -1.
         -6    2    1    2    0  503 -0.29457246503E+02  0.10229943817E+03 -0.11808394769E+03  0.23397864346E+03  0.17166619490E+03 0.  0.
        -24    2    3    3    0    0  0.16885237190E+02  0.37060673775E+02  0.12389742122E+01  0.90229654362E+02  0.80506215248E+02 0.  0.
          6    2    1    2  501    0  0.29457246503E+02 -0.10229943817E+03  0.51019292260E+03  0.54870361134E+03  0.17159816551E+03 0.  0.
         24    2    5    5    0    0  0.45170024679E+02 -0.98147194110E+02  0.51416976179E+03  0.53132437722E+03  0.79131833315E+02 0.  0.
          5    1    5    5  501    0 -0.15712778176E+02 -0.41522440587E+01 -0.39768391932E+01  0.17379234123E+02  0.47000000000E+01 0. -1.
        -13    1    6    6    0    0  0.12723434610E+02  0.11663624613E+02  0.10606917352E+03  0.10746439177E+03  0.00000000000E+00 0.  1.
         14    1    6    6    0    0  0.32446590069E+02 -0.10981081872E+03  0.40810058827E+03  0.42385998545E+03  0.00000000000E+00 0. -1.
         -5    1    3    3    0  503 -0.46342483693E+02  0.65238764393E+02 -0.11932292190E+03  0.14374898909E+03  0.47000000000E+01 0.  1.
         13    1    4    4    0    0  0.27522656588E+02  0.40226804395E+02 -0.29893578158E+02  0.57177954078E+02  0.00000000000E+00 0. -1.
        -14    1    4    4    0    0 -0.10637419398E+02 -0.31661306202E+01  0.31132552370E+02  0.33051700283E+02  0.00000000000E+00 0.  1.
</event>
<event>
12    1  0.8526130E-002  0.1772965E+03  0.7818608E-02  0.1170706E+00
         21   -1    0    0  501  502  0.00000000000E+00  0.00000000000E+00  0.77570970363E+02  0.77570970363E+02  0.00000000000E+00 0.  1.
         21   -1    0    0  502  503 -0.00000000000E+00 -0.00000000000E+00 -0.54574013214E+03  0.54574013214E+03  0.00000000000E+00 0.  1.
         -6    2    1    2    0  503  0.37068858396E+02  0.26832631952E+00 -0.39305274095E+03  0.43075847893E+03  0.17230275025E+03 0.  0.
        -24    2    3    3    0    0 -0.56850038255E+01  0.56841734853E+02 -0.16540645764E+03  0.19227710945E+03  0.79673637408E+02 0.  0.
          6    2    1    2  501    0 -0.37068858396E+02 -0.26832631952E+00 -0.75116420833E+02  0.19255262358E+03  0.17337780684E+03 0.  0.
         24    2    5    5    0    0 -0.14604767594E+02 -0.29885312358E+02  0.21998620048E+02  0.88460249202E+02  0.78961036427E+02 0.  0.
          5    1    5    5  501    0 -0.22464090801E+02  0.29616986039E+02 -0.97115040881E+02  0.10409237437E+03  0.47000000000E+01 0. -1.
        -11    1    6    6    0    0 -0.34296948119E+02  0.13391642110E+02  0.17304683537E+02  0.40682536806E+02  0.00000000000E+00 0.  1.
         12    1    6    6    0    0  0.19692180524E+02 -0.43276954468E+02  0.46939365111E+01  0.47777712396E+02  0.00000000000E+00 0. -1.
         -5    1    3    3    0  503  0.42753862221E+02 -0.56573408534E+02 -0.22764628331E+03  0.23848136948E+03  0.47000000000E+01 0.  1.
         11    1    4    4    0    0 -0.10748241313E+02  0.48441121041E+02 -0.17293481666E+03  0.17991252794E+03  0.00000000000E+00 0. -1.
        -12    1    4    4    0    0  0.50632374874E+01  0.84006138121E+01  0.75283590150E+01  0.12364581503E+02  0.00000000000E+00 0.  1.
</event>
<event>
12    1  0.8526130E-002  0.1847831E+03  0.7818608E-02  0.1163598E+00
         21   -1    0    0  501  502  0.00000000000E+00  0.00000000000E+00  0.23318258894E+04  0.23318258894E+04  0.00000000000E+00 0. -1.
         21   -1    0    0  502  503 -0.00000000000E+00 -0.00000000000E+00 -0.22340900804E+02  0.22340900804E+02  0.00000000000E+00 0.  1.
         -6    2    1    2    0  503  0.50969552375E+02 -0.42628399830E+02  0.46159908486E+03  0.49721073628E+03  0.17242309993E+03 0.  0.
        -24    2    3    3    0    0 -0.75503459031E+01  0.14379744686E+02  0.34271192362E+03  0.35288210383E+03  0.82525946447E+02 0.  0.
          6    2    1    2  501    0 -0.50969552375E+02  0.42628399830E+02  0.18478859038E+04  0.18569560540E+04  0.17084612150E+03 0.  0.
         24    2    5    5    0    0 -0.26697716993E+02 -0.40705817087E+02  0.74450524392E+03  0.75015675678E+03  0.77957487633E+02 0.  0.
          5    1    5    5  501    0 -0.24271835382E+02  0.83334216918E+02  0.11033806598E+04  0.11067992972E+04  0.47000000000E+01 0. -1.
        -11    1    6    6    0    0 -0.32867144258E+02 -0.12402251070E+02  0.65786039487E+03  0.65879766555E+03  0.00000000000E+00 0.  1.
         12    1    6    6    0    0  0.61694272650E+01 -0.28303566017E+02  0.86644849052E+02  0.91359091225E+02  0.00000000000E+00 0. -1.
         -5    1    3    3    0  503  0.58519898278E+02 -0.57008144517E+02  0.11888716124E+03  0.14432863245E+03  0.47000000000E+01 0.  1.
         11    1    4    4    0    0 -0.76965561541E+01 -0.33721615333E+02  0.17614013575E+03  0.17950412736E+03  0.00000000000E+00 0. -1.
        -12    1    4    4    0    0  0.14621025096E+00  0.48101360020E+02  0.16657178787E+03  0.17337797648E+03  0.00000000000E+00 0.  1.
</event>
<event>
12    1  0.8526130E-002  0.1980316E+03  0.7818608E-02  0.1151411E+00
         21   -1    0    0  503  502  0.00000000000E+00  0.00000000000E+00  0.26068078809E+03  0.26068078809E+03  0.00000000000E+00 0. -1.
         21   -1    0    0  501  503 -0.00000000000E+00 -0.00000000000E+00 -0.34139973701E+03  0.34139973701E+03  0.00000000000E+00 0. -1.
          6    2    1    2  501    0 -0.95014917577E+02  0.21276987090E+02 -0.26550755752E+03  0.33122382118E+03  0.17243668946E+03 0.  0.
         24    2    3    3    0    0 -0.11564397893E+03 -0.12050833853E+02 -0.12130517083E+03  0.18171556004E+03  0.69187049594E+02 0.  0.
         -6    2    1    2    0  502  0.95014917577E+02 -0.21276987090E+02  0.18478860861E+03  0.27085670392E+03  0.17244123476E+03 0.  0.
        -24    2    5    5    0    0  0.40730382062E+02 -0.11005780496E+02  0.19490203239E+03  0.21449466153E+03  0.79000420046E+02 0.  0.
          5    1    3    3  501    0  0.20629061349E+02  0.33327820942E+02 -0.14420238669E+03  0.14950826114E+03  0.47000000000E+01 0. -1.
        -11    1    4    4    0    0 -0.86740807499E+02 -0.13990431768E+02 -0.12470508656E+03  0.15254854467E+03  0.00000000000E+00 0.  1.
         12    1    4    4    0    0 -0.28903171427E+02  0.19395979157E+01  0.33999157297E+01  0.29167015370E+02  0.00000000000E+00 0. -1.
         -5    1    5    5    0  502  0.54284535515E+02 -0.10271206593E+02 -0.10113423787E+02  0.56362042384E+02  0.47000000000E+01 0.  1.
         11    1    6    6    0    0  0.55075914764E+02 -0.17715780998E+02  0.81244452153E+02  0.99738990817E+02  0.00000000000E+00 0. -1.
        -12    1    6    6    0    0 -0.14345532702E+02  0.67100005021E+01  0.11365758024E+03  0.11475567072E+03  0.00000000000E+00 0.  1.
</event>
<event>
12    1  0.8526130E-002  0.1758137E+03  0.7818608E-02  0.1172815E+00
         21   -1    0    0  501  502  0.00000000000E+00  0.00000000000E+00  0.35351631344E+03  0.35351631344E+03  0.00000000000E+00 0. -1.
         21   -1    0    0  502  503 -0.00000000000E+00 -0.00000000000E+00 -0.91806254805E+02  0.91806254805E+02  0.00000000000E+00 0. -1.
         -6    2    1    2    0  503  0.12352889710E+02  0.46859623235E+01  0.18963857453E+03  0.25859864853E+03  0.17531662769E+03 0.  0.
        -24    2    3    3    0    0 -0.14181903534E+02  0.13276465442E+02  0.59605570841E+02  0.12552511981E+03  0.10874898025E+03 0.  0.
          6    2    1    2  501    0 -0.12352889710E+02 -0.46859623235E+01  0.72071484099E+02  0.18672391971E+03  0.17174682310E+03 0.  0.
         24    2    5    5    0    0 -0.14934037520E+02 -0.19728964378E+02  0.11569953898E+03  0.14026478275E+03  0.75336368699E+02 0.  0.
          5    1    5    5  501    0  0.25811478101E+01  0.15043002055E+02 -0.43628054877E+02  0.46459136961E+02  0.47000000000E+01 0. -1.
        -11    1    6    6    0    0  0.10817883425E+02 -0.41366472823E+02  0.45583991664E+02  0.62498895764E+02  0.00000000000E+00 0.  1.
         12    1    6    6    0    0 -0.25751920946E+02  0.21637508445E+02  0.70115547311E+02  0.77765886987E+02  0.00000000000E+00 0. -1.
         -5    1    3    3    0  503  0.26534793245E+02 -0.85905031188E+01  0.13003300369E+03  0.13307352872E+03  0.47000000000E+01 0.  1.
         11    1    4    4    0    0 -0.12911069608E+02 -0.47498455983E+02  0.32387812966E+02  0.58921723226E+02  0.00000000000E+00 0. -1.
        -12    1    4    4    0    0 -0.12708339263E+01  0.60774921425E+02  0.27217757875E+02  0.66603396587E+02  0.00000000000E+00 0.  1.
</event>
<event>
12    1  0.8526130E-002  0.2415319E+03  0.7818608E-02  0.1118993E+00
         21   -1    0    0  501  502  0.00000000000E+00  0.00000000000E+00  0.61914218835E+02  0.61914218835E+02  0.00000000000E+00 0.  1.
         21   -1    0    0  502  503 -0.00000000000E+00 -0.00000000000E+00 -0.93991153192E+03  0.93991153192E+03  0.00000000000E+00 0.  1.
         -6    2    1    2    0  503 -0.11858877574E+03 -0.11934998019E+03 -0.46494703474E+03  0.52334045006E+03  0.17146943182E+03 0.  0.
        -24    2    3    3    0    0 -0.12503514446E+01 -0.10425781385E+02 -0.22166212472E+03  0.23206322069E+03  0.67889473172E+02 0.  0.
          6    2    1    2  501    0  0.11858877574E+03  0.11934998019E+03 -0.41305027834E+03  0.47848530069E+03  0.17329147423E+03 0.  0.
         24    2    5    5    0    0  0.81303684824E+02  0.83880975718E+02 -0.40104290884E+03  0.42543348446E+03  0.80696516162E+02 0.  0.
          5    1    5    5  501    0  0.37285090913E+02  0.35469004475E+02 -0.12007369503E+02  0.53051816229E+02  0.47000000000E+01 0. -1.
        -13    1    6    6    0    0  0.61884176148E+01  0.77559387390E+01  0.45859414047E+00  0.99328448535E+01  0.00000000000E+00 0.  1.
         14    1    6    6    0    0  0.75115267209E+02  0.76125036979E+02 -0.40150150298E+03  0.41550063961E+03  0.00000000000E+00 0. -1.
         -5    1    3    3    0  503 -0.11733842429E+03 -0.10892419881E+03 -0.24328491003E+03  0.29127722937E+03  0.47000000000E+01 0.  1.
         11    1    4    4    0    0  0.10809793209E+02 -0.30954407426E+02 -0.18796643829E+03  0.19080463540E+03  0.00000000000E+00 0. -1.
        -12    1    4    4    0    0 -0.12060144654E+02  0.20528626041E+02 -0.33695686430E+02  0.41258585291E+02  0.00000000000E+00 0.  1.
</event>
<event>
12    1  0.8526130E-002  0.3086338E+03  0.7818608E-02  0.1081083E+00
         21   -1    0    0  501  502  0.00000000000E+00  0.00000000000E+00  0.22414674041E+03  0.22414674041E+03  0.00000000000E+00 0.  1.
         21   -1    0    0  502  503 -0.00000000000E+00 -0.00000000000E+00 -0.46095360401E+03  0.46095360401E+03  0.00000000000E+00 0. -1.
         -6    2    1    2    0  503 -0.24985336307E+03  0.53217223396E+02 -0.21521617743E+03  0.37571223489E+03  0.17199681542E+03 0.  0.
        -24    2    3    3    0    0 -0.49722928541E+02 -0.16315672403E+02 -0.56630412115E+02  0.11102647898E+03  0.79883068724E+02 0.  0.
          6    2    1    2  501    0  0.24985336307E+03 -0.53217223396E+02 -0.21590686167E+02  0.30938810954E+03  0.17319373168E+03 0.  0.
         24    2    5    5    0    0  0.23669799736E+03  0.89005589610E+00 -0.67961698615E+00  0.24972217174E+03  0.79586223846E+02 0.  0.
          5    1    5    5  501    0  0.13155365709E+02 -0.54107279292E+02 -0.20911069181E+02  0.59665937801E+02  0.47000000000E+01 0. -1.
        -11    1    6    6    0    0  0.11542932827E+03 -0.29665270885E+02  0.25679670972E+02  0.12191555940E+03  0.00000000000E+00 0.  1.
         12    1    6    6    0    0  0.12126866908E+03  0.30555326781E+02 -0.26359287958E+02  0.12780661234E+03  0.00000000000E+00 0. -1.
         -5    1    3    3    0  503 -0.20013043452E+03  0.69532895799E+02 -0.15858576531E+03  0.26468575591E+03  0.47000000000E+01 0.  1.
         13    1    4    4    0    0 -0.62676644749E+02  0.12423988657E+02 -0.35797658339E+02  0.73240628300E+02  0.00000000000E+00 0. -1.
        -14    1    4    4    0    0  0.12953716208E+02 -0.28739661060E+02 -0.20832753776E+02  0.37785850676E+02  0.00000000000E+00 0.  1.
</event>
<event>
12    1  0.8526130E-002  0.2046932E+03  0.7818608E-02  0.1145872E+00
         21   -1    0    0  503  502  0.00000000000E+00  0.00000000000E+00  0.83527110493E+03  0.83527110493E+03  0.00000000000E+00 0.  1.
         21   -1    0    0  501  503 -0.00000000000E+00 -0.00000000000E+00 -0.19577900006E+03  0.19577900006E+03  0.00000000000E+00 0.  1.
          6    2    1    2  501    0  0.10980393511E+03 -0.14836512990E+02 -0.12488497637E+03  0.23978235360E+03  0.17211128228E+03 0.  0.
         24    2    3    3    0    0  0.89466913895E+02 -0.73090584629E+02 -0.67472481231E+02  0.15537017501E+03  0.78998691870E+02 0.  0.
         -6    2    1    2    0  502 -0.10980393511E+03  0.14836512990E+02  0.76437708125E+03  0.79126775139E+03  0.17191656630E+03 0.  0.
        -24    2    5    5    0    0 -0.71960601893E+02  0.54651766401E+02  0.67930001470E+03  0.68988940299E+03  0.79584763515E+02 0.  0.
          5    1    3    3  501    0  0.20337021211E+02  0.58254071639E+02 -0.57412495144E+02  0.84412178581E+02  0.47000000000E+01 0. -1.
        -13    1    4    4    0    0  0.61688916318E+02 -0.24989517992E+02 -0.73899102267E+02  0.99453887414E+02  0.00000000000E+00 0.  1.
         14    1    4    4    0    0  0.27777997577E+02 -0.48101066638E+02  0.64266210356E+01  0.55916287600E+02  0.00000000000E+00 0. -1.
         -5    1    5    5    0  502 -0.37843333213E+02 -0.39815253410E+02  0.85077066551E+02  0.10137834841E+03  0.47000000000E+01 0.  1.
         11    1    6    6    0    0 -0.64625498308E+01 -0.87870383393E+01  0.28398490458E+03  0.28419430434E+03  0.00000000000E+00 0. -1.
        -12    1    6    6    0    0 -0.65498052062E+02  0.63438804740E+02  0.39531511012E+03  0.40569509864E+03  0.00000000000E+00 0.  1.
</event>
<event>
12    1  0.8526130E-002  0.2366164E+03  0.7818608E-02  0.1122412E+00
         21   -1    0    0  503  502  0.00000000000E+00  0.00000000000E+00  0.16890026099E+04  0.16890026099E+04  0.00000000000E+00 0.  1.
         21   -1    0    0  501  503 -0.00000000000E+00 -0.00000000000E+00 -0.38108392292E+02  0.38108392292E+02  0.00000000000E+00 0.  1.
          6    2    1    2  501    0 -0.53591667641E+02 -0.15023527238E+03  0.50820361941E+03  0.56058740644E+03  0.17477018502E+03 0.  0.
         24    2    3    3    0    0 -0.63622202325E+02 -0.52344595584E+02  0.38290611612E+03  0.40119872880E+03  0.86922867613E+02 0.  0.
         -6    2    1    2    0  502  0.53591667641E+02  0.15023527238E+03  0.11426905982E+04  0.11665235958E+04  0.17202555721E+03 0.  0.
        -24    2    5    5    0    0  0.93125164001E+02  0.15175104834E+03  0.98164860594E+03  0.10006266151E+04  0.76934780879E+02 0.  0.
          5    1    3    3  501    0  0.10030534683E+02 -0.97890676792E+02  0.12529750329E+03  0.15938867764E+03  0.47000000000E+01 0. -1.
        -11    1    4    4    0    0 -0.56207507392E+02  0.32702624483E+01  0.26095755797E+03  0.26696221749E+03  0.00000000000E+00 0.  1.
         12    1    4    4    0    0 -0.74146949326E+01 -0.55614858033E+02  0.12194855814E+03  0.13423651131E+03  0.00000000000E+00 0. -1.
         -5    1    5    5    0  502 -0.39533496360E+02 -0.15157759666E+01  0.16104199226E+03  0.16589698063E+03  0.47000000000E+01 0.  1.
         11    1    6    6    0    0 -0.73255025260E+01  0.51023790137E+02  0.24370942203E+03  0.24910112913E+03  0.00000000000E+00 0. -1.
        -12    1    6    6    0    0  0.10045066653E+03  0.10072725821E+03  0.73793918391E+03  0.75152548600E+03  0.00000000000E+00 0.  1.
</event>
<event>
12    1  0.8526130E-002  0.1895801E+03  0.7818608E-02  0.1159588E+00
         21   -1    0    0  501  502  0.00000000000E+00  0.00000000000E+00  0.89157795755E+03  0.89157795755E+03  0.00000000000E+00 0. -1.
         21   -1    0    0  502  503 -0.00000000000E+00 -0.00000000000E+00 -0.67677768408E+02  0.67677768408E+02  0.00000000000E+00 0. -1.
         -6    2    1    2    0  503 -0.28158304029E+02 -0.77947097545E+02  0.10522433242E+03  0.21682426692E+03  0.17050502189E+03 0.  0.
        -24    2    3    3    0    0 -0.68386304807E+02 -0.47036325861E+02  0.11683530070E+03  0.16456843053E+03  0.80889914084E+02 0.  0.
          6    2    1    2  501    0  0.28158304029E+02  0.77947097545E+02  0.71867585672E+03  0.74243145904E+03  0.16685575877E+03 0.  0.
         24    2    5    5    0    0  0.49720098434E+02 -0.68929786106E+01  0.33829389016E+03  0.35207869552E+03  0.83648373437E+02 0.  0.
          5    1    5    5  501    0 -0.21561794405E+02  0.84840076156E+02  0.38038196657E+03  0.39035276352E+03  0.47000000000E+01 0. -1.
        -13    1    6    6    0    0 -0.23775738297E+02 -0.10146014354E+01  0.79139596306E+02  0.82640128576E+02  0.00000000000E+00 0.  1.
         14    1    6    6    0    0  0.73495836730E+02 -0.58783771752E+01  0.25915429385E+03  0.26943856694E+03  0.00000000000E+00 0. -1.
         -5    1    3    3    0  503  0.40228000779E+02 -0.30910771684E+02 -0.11610968280E+02  0.52255836393E+02  0.47000000000E+01 0.  1.
         11    1    4    4    0    0 -0.34226907347E+02 -0.67717042287E+02  0.79609809489E+02  0.10997636459E+03  0.00000000000E+00 0. -1.
        -12    1    4    4    0    0 -0.34159397461E+02  0.20680716426E+02  0.37225491213E+02  0.54592065933E+02  0.00000000000E+00 0.  1.
</event>
<event>
12    1  0.8526130E-002  0.1889447E+03  0.7818608E-02  0.1159639E+00
         21   -1    0    0  501  502  0.00000000000E+00  0.00000000000E+00  0.50923250715E+02  0.50923250715E+02  0.00000000000E+00 0. -1.
         21   -1    0    0  502  503 -0.00000000000E+00 -0.00000000000E+00 -0.10111054326E+04  0.10111054326E+04  0.00000000000E+00 0. -1.
         -6    2    1    2    0  503  0.75041895793E+02 -0.13959300202E+02 -0.77671474115E+03  0.79936593567E+03  0.17284085690E+03 0.  0.
        -24    2    3    3    0    0  0.94855051887E+01  0.36306970072E+02 -0.19586601116E+03  0.21265333533E+03  0.73822596904E+02 0.  0.
          6    2    1    2  501    0 -0.75041895793E+02  0.13959300202E+02 -0.18346744079E+03  0.26266274769E+03  0.17177097837E+03 0.  0.
         24    2    5    5    0    0 -0.31808529453E+02 -0.11053097717E+02 -0.17931221050E+02  0.89691437760E+02  0.81173097784E+02 0.  0.
          5    1    5    5  501    0 -0.43233366340E+02  0.25012397919E+02 -0.16553621974E+03  0.17297130993E+03  0.47000000000E+01 0. -1.
        -11    1    6    6    0    0 -0.22051027195E+02 -0.15966741678E+02 -0.49386291135E+02  0.56393176824E+02  0.00000000000E+00 0.  1.
         12    1    6    6    0    0 -0.97575022583E+01  0.49136439617E+01  0.31455070085E+02  0.33298260936E+02  0.00000000000E+00 0. -1.
         -5    1    3    3    0  503  0.65556390604E+02 -0.50266270275E+02 -0.58084872999E+03  0.58671260035E+03  0.47000000000E+01 0.  1.
         11    1    4    4    0    0  0.10811795721E+02 -0.16882534204E+02 -0.17804522094E+02  0.26812607013E+02  0.00000000000E+00 0. -1.
        -12    1    4    4    0    0 -0.13262905326E+01  0.53189504277E+02 -0.17806148907E+03  0.18584072831E+03  0.00000000000E+00 0.  1.
</event>
<event>
12    1  0.8526130E-002  0.1758297E+03  0.7818608E-02  0.1171902E+00
         21   -1    0    0  503  502  0.00000000000E+00  0.00000000000E+00  0.24458490949E+03  0.24458490949E+03  0.00000000000E+00 0. -1.
         21   -1    0    0  501  503 -0.00000000000E+00 -0.00000000000E+00 -0.34305383769E+03  0.34305383769E+03  0.00000000000E+00 0. -1.
          6    2    1    2  501    0 -0.25284201610E+02 -0.28840869462E+02 -0.28273247672E+03  0.33294702726E+03  0.17159540486E+03 0.  0.
         24    2    3    3    0    0 -0.37016378330E+02 -0.61981338511E+02 -0.10536316693E+03  0.15206613631E+03  0.82527657648E+02 0.  0.
         -6    2    1    2    0  502  0.25284201610E+02  0.28840869462E+02  0.18426354852E+03  0.25469171991E+03  0.17159175469E+03 0.  0.
        -24    2    5    5    0    0 -0.32383874414E+02  0.43786409628E+02  0.16651322511E+03  0.19235280635E+03  0.79416515802E+02 0.  0.
          5    1    3    3  501    0  0.11732176720E+02  0.33140469048E+02 -0.17736930978E+03  0.18088089095E+03  0.47000000000E+01 0. -1.
        -11    1    4    4    0    0  0.79001428170E+01 -0.20865065089E+02  0.77377842510E+01  0.23614328337E+02  0.00000000000E+00 0.  1.
         12    1    4    4    0    0 -0.44916521147E+02 -0.41116273422E+02 -0.11310095118E+03  0.12845180797E+03  0.00000000000E+00 0. -1.
         -5    1    5    5    0  502  0.57668076024E+02 -0.14945540166E+02  0.17750323405E+02  0.62338913563E+02  0.47000000000E+01 0.  1.
         13    1    6    6    0    0  0.10962139718E+02 -0.15897661095E+02  0.58099377175E+02  0.61224519300E+02  0.00000000000E+00 0. -1.
        -14    1    6    6    0    0 -0.43346014132E+02  0.59684070723E+02  0.10841384794E+03  0.13112828705E+03  0.00000000000E+00 0.  1.
</event>
<event>
12    1  0.8526130E-002  0.2724009E+03  0.7818608E-02  0.1100098E+00
         21   -1    0    0  501  502  0.00000000000E+00  0.00000000000E+00  0.79722250486E+03  0.79722250486E+03  0.00000000000E+00 0. -1.
         21   -1    0    0  502  503 -0.00000000000E+00 -0.00000000000E+00 -0.92769356287E+02  0.92769356287E+02  0.00000000000E+00 0. -1.
         -6    2    1    2    0  503 -0.18528085106E+03 -0.10377895605E+03  0.36852036838E+03  0.45749551453E+03  0.16851058843E+03 0.  0.
        -24    2    3    3    0    0 -0.17142646424E+03 -0.63445726536E+02  0.36322870031E+03  0.41426583504E+03  0.79175125498E+02 0.  0.
          6    2    1    2  501    0  0.18528085106E+03  0.10377895605E+03  0.33593278019E+03  0.43249634662E+03  0.17059657540E+03 0.  0.
         24    2    5    5    0    0  0.13817446837E+03  0.71964845376E+02  0.33204168083E+03  0.37532660301E+03  0.79669683363E+02 0.  0.
          5    1    5    5  501    0  0.47106382698E+02  0.31814110678E+02  0.38910993664E+01  0.57169743601E+02  0.47000000000E+01 0. -1.
        -13    1    6    6    0    0 -0.69062341603E+01  0.17998100348E+02  0.50210262414E+02  0.53783809256E+02  0.00000000000E+00 0.  1.
         14    1    6    6    0    0  0.14508070253E+03  0.53966745028E+02  0.28183141841E+03  0.32154279376E+03  0.00000000000E+00 0. -1.
         -5    1    3    3    0  503 -0.13854386820E+02 -0.40333229518E+02  0.52916680711E+01  0.43229679486E+02  0.47000000000E+01 0.  1.
         11    1    4    4    0    0 -0.14162114804E+03 -0.19053250418E+02  0.23087664141E+03  0.27152090062E+03  0.00000000000E+00 0. -1.
        -12    1    4    4    0    0 -0.29805316209E+02 -0.44392476118E+02  0.13235205890E+03  0.14274493443E+03  0.00000000000E+00 0.  1.
</event>
<event>
12    1  0.8526130E-002  0.1761453E+03  0.7818608E-02  0.1171623E+00
         21   -1    0    0  503  502  0.00000000000E+00  0.00000000000E+00  0.24410742593E+03  0.24410742593E+03  0.00000000000E+00 0.  1.
         21   -1    0    0  501  503 -0.00000000000E+00 -0.00000000000E+00 -0.13163590530E+03  0.13163590530E+03  0.00000000000E+00 0.  1.
          6    2    1    2  501    0  0.91203766461E+01  0.36895311443E+02  0.91473273448E+02  0.19835083225E+03  0.17184658164E+03 0.  0.
         24    2    3    3    0    0  0.62173670781E+02  0.84258027069E+00  0.95101983331E+02  0.13393259741E+03  0.70903301311E+02 0.  0.
         -6    2    1    2    0  502 -0.91203766461E+01 -0.36895311443E+02  0.20998247184E+02  0.17739249898E+03  0.17199629947E+03 0.  0.
        -24    2    5    5    0    0  0.25999263718E+02 -0.77117446255E+02 -0.10893033288E+02  0.11501980433E+03  0.80547097914E+02 0.  0.
          5    1    3    3  501    0 -0.53053294135E+02  0.36052731172E+02 -0.36287098834E+01  0.64418234833E+02  0.47000000000E+01 0. -1.
        -13    1    4    4    0    0 -0.30153679404E+01 -0.23640354069E+02  0.16871373491E+02  0.29199349784E+02  0.00000000000E+00 0.  1.
         14    1    4    4    0    0  0.65189038722E+02  0.24482934340E+02  0.78230609840E+02  0.10473324763E+03  0.00000000000E+00 0. -1.
         -5    1    5    5    0  502 -0.35119640364E+02  0.40222134812E+02  0.31891280472E+02  0.62372694653E+02  0.47000000000E+01 0.  1.
         13    1    6    6    0    0  0.76846171963E+01 -0.48447586326E+02  0.33270721463E+02  0.59271939980E+02  0.00000000000E+00 0. -1.
        -14    1    6    6    0    0  0.18314646522E+02 -0.28669859929E+02 -0.44163754751E+02  0.55747864347E+02  0.00000000000E+00 0.  1.
</event>
<event>
12    1  0.8526130E-002  0.2339038E+03  0.7818608E-02  0.1124281E+00
         21   -1    0    0  503  502  0.00000000000E+00  0.00000000000E+00  0.28754787945E+03  0.28754787945E+03  0.00000000000E+00 0.  1.
         21   -1    0    0  501  503 -0.00000000000E+00 -0.00000000000E+00 -0.32644574834E+03  0.32644574834E+03  0.00000000000E+00 0.  1.
          6    2    1    2  501    0  0.15700042261E+03 -0.10529627156E+02 -0.21890117334E+03  0.31884591921E+03  0.17024978931E+03 0.  0.
         24    2    3    3    0    0  0.65855368729E+02  0.56752164465E+02 -0.12515253018E+03  0.17172298278E+03  0.79170002153E+02 0.  0.
         -6    2    1    2    0  502 -0.15700042261E+03  0.10529627156E+02  0.18000330445E+03  0.29514770858E+03  0.17306349851E+03 0.  0.
        -24    2    5    5    0    0 -0.29024040220E+02 -0.42016356473E+02  0.61781703869E+02  0.11311070221E+03  0.79807787205E+02 0.  0.
          5    1    3    3  501    0  0.91145053878E+02 -0.67281791621E+02 -0.93748643158E+02  0.14712293643E+03  0.47000000000E+01 0. -1.
        -11    1    4    4    0    0 -0.15925202237E+02  0.49078255106E+01 -0.37817392220E+02  0.41326189903E+02  0.00000000000E+00 0.  1.
         12    1    4    4    0    0  0.81780570966E+02  0.51844338954E+02 -0.87335137961E+02  0.13039679287E+03  0.00000000000E+00 0. -1.
         -5    1    5    5    0  502 -0.12797638239E+03  0.52545983629E+02  0.11822160058E+03  0.18203700637E+03  0.47000000000E+01 0.  1.
         11    1    6    6    0    0 -0.37942152775E+02 -0.21745918781E+02  0.75362884406E+02  0.87132406640E+02  0.00000000000E+00 0. -1.
        -12    1    6    6    0    0  0.89181125556E+01 -0.20270437691E+02 -0.13581180537E+02  0.25978295566E+02  0.00000000000E+00 0.  1.
</event>
<event>
12    1  0.8526130E-002  0.1742685E+03  0.7818608E-02  0.1173655E+00
         21   -1    0    0  503  502  0.00000000000E+00  0.00000000000E+00  0.89893661830E+02  0.89893661830E+02  0.00000000000E+00 0. -1.
         21   -1    0    0  501  503 -0.00000000000E+00 -0.00000000000E+00 -0.81009522792E+03  0.81009522792E+03  0.00000000000E+00 0. -1.
          6    2    1    2  501    0 -0.19151077945E+02  0.75213551178E+01 -0.70388263869E+03  0.72495793968E+03  0.17230760482E+03 0.  0.
         24    2    3    3    0    0  0.35845466580E+02  0.27359983181E+02 -0.21934357378E+03  0.23688172995E+03  0.77252083939E+02 0.  0.
         -6    2    1    2    0  502  0.19151077945E+02 -0.75213551178E+01 -0.16318927398E+02  0.17503095007E+03  0.17304967935E+03 0.  0.
        -24    2    5    5    0    0 -0.14738870076E+02  0.23104951516E+02  0.46490438762E+02  0.97226029197E+02  0.80873152414E+02 0.  0.
          5    1    3    3  501    0 -0.54996544525E+02 -0.19838628064E+02 -0.48453906491E+03  0.48807620972E+03  0.47000000000E+01 0. -1.
        -13    1    4    4    0    0  0.15356410081E+02 -0.27151838570E+02 -0.78996676523E+02  0.84932423550E+02  0.00000000000E+00 0.  1.
         14    1    4    4    0    0  0.20489056499E+02  0.54511821752E+02 -0.14034689726E+03  0.15194930641E+03  0.00000000000E+00 0. -1.
         -5    1    5    5    0  502  0.33889948020E+02 -0.30626306634E+02 -0.62809366160E+02  0.77804920875E+02  0.47000000000E+01 0.  1.
         11    1    6    6    0    0 -0.10363625683E+02  0.17949383038E+01  0.66705179980E+02  0.67529309022E+02  0.00000000000E+00 0. -1.
        -12    1    6    6    0    0 -0.43752443928E+01  0.21310013213E+02 -0.20214741218E+02  0.29696720175E+02  0.00000000000E+00 0.  1.
</event>
<event>
12    1  0.8526130E-002  0.1721234E+03  0.7818608E-02  0.1175925E+00
         21   -1    0    0  501  502  0.00000000000E+00  0.00000000000E+00  0.42959884033E+03  0.42959884033E+03  0.00000000000E+00 0. -1.
         21   -1    0    0  502  503 -0.00000000000E+00 -0.00000000000E+00 -0.11445290542E+03  0.11445290542E+03  0.00000000000E+00 0. -1.
         -6    2    1    2    0  503  0.13226105983E+02  0.20022896691E+02 -0.15015200808E+02  0.17171743183E+03  0.16936816073E+03 0.  0.
        -24    2    3    3    0    0  0.37104487249E+02  0.71998306550E+02 -0.16206182297E+02  0.11431421974E+03  0.79022790194E+02 0.  0.
          6    2    1    2  501    0 -0.13226105983E+02 -0.20022896691E+02  0.33016113571E+03  0.37233431391E+03  0.17044242285E+03 0.  0.
         24    2    5    5    0    0  0.48235501131E+02  0.90899283032E+01  0.12638987383E+03  0.15746248491E+03  0.80067119227E+02 0.  0.
          5    1    5    5  501    0 -0.61461607114E+02 -0.29112824995E+02  0.20377126189E+03  0.21487182900E+03  0.47000000000E+01 0. -1.
        -13    1    6    6    0    0  0.19891393219E+02  0.11720384895E+02 -0.44922807409E+01  0.23520534274E+02  0.00000000000E+00 0.  1.
         14    1    6    6    0    0  0.28344107912E+02 -0.26304565913E+01  0.13088215457E+03  0.13394195063E+03  0.00000000000E+00 0. -1.
         -5    1    3    3    0  503 -0.23878381266E+02 -0.51975409859E+02  0.11909814888E+01  0.57403212095E+02  0.47000000000E+01 0.  1.
         11    1    4    4    0    0  0.50306393444E+02  0.52882491878E+02  0.15884810663E+02  0.74696843162E+02  0.00000000000E+00 0. -1.
        -12    1    4    4    0    0 -0.13201906195E+02  0.19115814672E+02 -0.32090992960E+02  0.39617376578E+02  0.00000000000E+00 0.  1.
</event>
<event>
12    1  0.8526130E-002  0.1930454E+03  0.7818608E-02  0.1155813E+00
         21   -1    0    0  501  502  0.00000000000E+00  0.00000000000E+00  0.61638659591E+02  0.61638659591E+02  0.00000000000E+00 0. -1.
         21   -1    0    0  502  503 -0.00000000000E+00 -0.00000000000E+00 -0.12770083385E+04  0.12770083385E+04  0.00000000000E+00 0. -1.
         -6    2    1    2    0  503 -0.74372638681E+02 -0.45747499367E+02 -0.10939689798E+04  0.11108711313E+04  0.17216973711E+03 0.  0.
        -24    2    3    3    0    0 -0.38403808149E+02 -0.39559383334E+02 -0.10453600568E+04  0.10499041981E+04  0.80507014599E+02 0.  0.
          6    2    1    2  501    0  0.74372638681E+02  0.45747499367E+02 -0.12140069907E+03  0.22777586681E+03  0.17181266741E+03 0.  0.
         24    2    5    5    0    0  0.82405043347E+02 -0.15194561709E+02 -0.11947920884E+03  0.16609737414E+03  0.79319546629E+02 0.  0.
          5    1    5    5  501    0 -0.80324046665E+01  0.60942061076E+02 -0.19214902271E+01  0.61678492667E+02  0.47000000000E+01 0. -1.
        -13    1    6    6    0    0 -0.11388925258E+02  0.97800051004E+01 -0.32357745307E+02  0.35670433130E+02  0.00000000000E+00 0.  1.
         14    1    6    6    0    0  0.93793968605E+02 -0.24974566809E+02 -0.87121463536E+02  0.13042694102E+03  0.00000000000E+00 0. -1.
         -5    1    3    3    0  503 -0.35968830532E+02 -0.61881160329E+01 -0.48608923000E+02  0.60966933211E+02  0.47000000000E+01 0.  1.
         13    1    4    4    0    0 -0.57082445746E+02 -0.47683140993E+02 -0.69907004285E+03  0.70301565584E+03  0.00000000000E+00 0. -1.
        -14    1    4    4    0    0  0.18678637597E+02  0.81237576586E+01 -0.34629001398E+03  0.34688854222E+03  0.00000000000E+00 0.  1.
</event>
<event>
12    1  0.8526130E-002  0.2452970E+03  0.7818608E-02  0.1116503E+00
         21   -1    0    0  503  502  0.00000000000E+00  0.00000000000E+00  0.10640999866E+04  0.10640999866E+04  0.00000000000E+00 0. -1.
         21   -1    0    0  501  503 -0.00000000000E+00 -0.00000000000E+00 -0.16761153874E+03  0.16761153874E+03  0.00000000000E+00 0. -1.
          6    2    1    2  501    0 -0.13842170841E+03  0.10363718732E+03 -0.53323727067E+02  0.25102596991E+03  0.17398098099E+03 0.  0.
         24    2    3    3    0    0 -0.12280799224E+03  0.12152635078E+03 -0.90738656537E+02  0.20646390927E+03  0.67404637423E+02 0.  0.
         -6    2    1    2    0  502  0.13842170841E+03 -0.10363718732E+03  0.94981217488E+03  0.98068555537E+03  0.17233616860E+03 0.  0.
        -24    2    5    5    0    0  0.99156053240E+02 -0.13048423301E+03  0.58925176795E+03  0.61697075971E+03  0.81100026802E+02 0.  0.
          5    1    3    3  501    0 -0.15613716166E+02 -0.17889163458E+02  0.37414929471E+02  0.44562060646E+02  0.47000000000E+01 0. -1.
        -11    1    4    4    0    0 -0.12927389980E+02  0.11289595854E+01 -0.29696803167E+02  0.32408210068E+02  0.00000000000E+00 0.  1.
         12    1    4    4    0    0 -0.10988060226E+03  0.12039739120E+03 -0.61041853370E+02  0.17405569920E+03  0.00000000000E+00 0. -1.
         -5    1    5    5    0  502  0.39265655170E+02  0.26847045681E+02  0.36056040693E+03  0.36371479566E+03  0.47000000000E+01 0.  1.
         13    1    6    6    0    0  0.80436577411E+01 -0.55017075409E+02  0.10901489161E+03  0.12237575580E+03  0.00000000000E+00 0. -1.
        -14    1    6    6    0    0  0.91112395499E+02 -0.75467157596E+02  0.48023687634E+03  0.49459500391E+03  0.00000000000E+00 0.  1.
</event>
<event>
12    1  0.8526130E-002  0.2880348E+03  0.7818608E-02  0.1091572E+00
         21   -1    0    0  503  502  0.00000000000E+00  0.00000000000E+00  0.11463829051E+03  0.11463829051E+03  0.00000000000E+00 0. -1.
         21   -1    0    0  501  503 -0.00000000000E+00 -0.00000000000E+00 -0.77736226143E+03  0.77736226143E+03  0.00000000000E+00 0. -1.
          6    2    1    2  501    0  0.66867292372E+01 -0.23053564820E+03 -0.21104209882E+03  0.35707533097E+03  0.17254746324E+03 0.  0.
         24    2    3    3    0    0  0.23158887249E+01 -0.79109748694E+02 -0.24017578750E+02  0.11634899590E+03  0.81832322941E+02 0.  0.
         -6    2    1    2    0  502 -0.66867292372E+01  0.23053564820E+03 -0.45168187210E+03  0.53492522097E+03  0.17010902682E+03 0.  0.
        -24    2    5    5    0    0 -0.48749249678E+01  0.17641114061E+03 -0.20363708763E+03  0.28099402938E+03  0.79655041695E+02 0.  0.
          5    1    3    3  501    0  0.43708405123E+01 -0.15142589951E+03 -0.18702452007E+03  0.24072633508E+03  0.47000000000E+01 0. -1.
        -13    1    4    4    0    0  0.35842528799E+02 -0.11521286967E+02 -0.14325553021E+02  0.40282110091E+02  0.00000000000E+00 0.  1.
         14    1    4    4    0    0 -0.33526640074E+02 -0.67588461727E+02 -0.96920257293E+01  0.76066885804E+02  0.00000000000E+00 0. -1.
         -5    1    5    5    0  502 -0.18118042694E+01  0.54124507598E+02 -0.24804478447E+03  0.25393119158E+03  0.47000000000E+01 0.  1.
         13    1    6    6    0    0  0.19683408948E+02  0.11110396354E+03 -0.16871944797E+03  0.20297236124E+03  0.00000000000E+00 0. -1.
        -14    1    6    6    0    0 -0.24558333916E+02  0.65307177067E+02 -0.34917639657E+02  0.78021668147E+02  0.00000000000E+00 0.  1.
</event>
<event>
12    1  0.8526130E-002  0.1851003E+03  0.7818608E-02  0.1163213E+00
         21   -1    0    0  501  502  0.00000000000E+00  0.00000000000E+00  0.12955404686E+03  0.12955404686E+03  0.00000000000E+00 0. -1.
         21   -1    0    0  502  503 -0.00000000000E+00 -0.00000000000E+00 -0.32741573289E+03  0.32741573289E+03  0.00000000000E+00 0. -1.
         -6    2    1    2    0  503  0.31086499165E+02 -0.60999852629E+02 -0.20012126401E+03  0.27185565741E+03  0.17079117573E+03 0.  0.
        -24    2    3    3    0    0  0.24749099460E+02 -0.18617534174E+01 -0.19595875154E+03  0.21204851801E+03  0.77128189618E+02 0.  0.
          6    2    1    2  501    0 -0.31086499165E+02  0.60999852629E+02  0.22595779852E+01  0.18511412234E+03  0.17197319601E+03 0.  0.
         24    2    5    5    0    0 -0.10484467446E+01  0.49856800440E+02  0.65130251623E+02  0.11439450831E+03  0.79733017399E+02 0.  0.
          5    1    5    5  501    0 -0.30038052421E+02  0.11143052189E+02 -0.62870673638E+02  0.70719614033E+02  0.47000000000E+01 0. -1.
        -11    1    6    6    0    0 -0.63639785079E+01 -0.21205102185E+02  0.99761356372E+01  0.24283324801E+02  0.00000000000E+00 0.  1.
         12    1    6    6    0    0  0.53155317633E+01  0.71061902625E+02  0.55154115986E+02  0.90111183506E+02  0.00000000000E+00 0. -1.
         -5    1    3    3    0  503  0.63373997057E+01 -0.59138099212E+02 -0.41625124670E+01  0.59807139402E+02  0.47000000000E+01 0.  1.
         11    1    4    4    0    0  0.39587186392E+02 -0.29297363814E+02 -0.10728422402E+03  0.11804823411E+03  0.00000000000E+00 0. -1.
        -12    1    4    4    0    0 -0.14838086933E+02  0.27435610397E+02 -0.88674527522E+02  0.94000283898E+02  0.00000000000E+00 0.  1.
</event>
<event>
12    1  0.8526130E-002  0.1786852E+03  0.7818608E-02  0.1169101E+00
         21   -1    0    0  503  502  0.00000000000E+00  0.00000000000E+00  0.80066776139E+03  0.80066776139E+03  0.00000000000E+00 0.  1.
         21   -1    0    0  501  503 -0.00000000000E+00 -0.00000000000E+00 -0.50956077185E+02  0.50956077185E+02  0.00000000000E+00 0. -1.
          6    2    1    2  501    0 -0.69181471542E+01 -0.45253715560E+02  0.57362413181E+03  0.60081031454E+03  0.17272124922E+03 0.  0.
         24    2    3    3    0    0 -0.46158122432E+02 -0.60856078700E+02  0.51774385431E+03  0.53061127745E+03  0.87496254186E+02 0.  0.
         -6    2    1    2    0  502  0.69181471542E+01  0.45253715560E+02  0.17608755239E+03  0.25081352403E+03  0.17264077791E+03 0.  0.
        -24    2    5    5    0    0  0.33865243983E+02 -0.31748602797E+02  0.66411385272E+02  0.11404198206E+03  0.80251311817E+02 0.  0.
          5    1    3    3  501    0  0.39239975278E+02  0.15602363140E+02  0.55880277497E+02  0.70199037091E+02  0.47000000000E+01 0. -1.
        -11    1    4    4    0    0  0.84999968231E+01  0.15787332133E+02  0.14756849350E+03  0.14865379268E+03  0.00000000000E+00 0.  1.
         12    1    4    4    0    0 -0.54658119255E+02 -0.76643410833E+02  0.37017536081E+03  0.38195748477E+03  0.00000000000E+00 0. -1.
         -5    1    5    5    0  502 -0.26947096828E+02  0.77002318357E+02  0.10967616712E+03  0.13677154198E+03  0.47000000000E+01 0.  1.
         13    1    6    6    0    0 -0.19815737696E+02 -0.30082877554E+02  0.41153376098E+02  0.54692260391E+02  0.00000000000E+00 0. -1.
        -14    1    6    6    0    0  0.53680981678E+02 -0.16657252429E+01  0.25258009174E+02  0.59349721667E+02  0.00000000000E+00 0.  1.
</event>
<event>
12    1  0.8526130E-002  0.1733942E+03  0.7818608E-02  0.1174851E+00
         21   -1    0    0  503  502  0.00000000000E+00  0.00000000000E+00  0.53051564431E+03  0.53051564431E+03  0.00000000000E+00 0.  1.
         21   -1    0    0  501  503 -0.00000000000E+00 -0.00000000000E+00 -0.20435529737E+03  0.20435529737E+03  0.00000000000E+00 0.  1.
          6    2    1    2  501    0  0.20734158454E+00  0.58275983517E+01 -0.15019836112E+03  0.22793587959E+03  0.17135114130E+03 0.  0.
         24    2    3    3    0    0 -0.40606907689E+02  0.40131153881E+02 -0.14416708817E+03  0.17407491859E+03  0.79110666212E+02 0.  0.
         -6    2    1    2    0  502 -0.20734158454E+00 -0.58275983517E+01  0.47635870806E+03  0.50693506210E+03  0.17329608924E+03 0.  0.
        -24    2    5    5    0    0 -0.49251830055E+00 -0.72178446573E+02  0.30689193719E+03  0.32488124364E+03  0.78455022995E+02 0.  0.
          5    1    3    3  501    0  0.40814249274E+02 -0.34303555530E+02 -0.60312729541E+01  0.53860960994E+02  0.47000000000E+01 0. -1.
        -13    1    4    4    0    0  0.81899389968E+01  0.46933342042E+02 -0.80908550965E+02  0.93893595710E+02  0.00000000000E+00 0.  1.
         14    1    4    4    0    0 -0.48796846686E+02 -0.68021881612E+01 -0.63258537201E+02  0.80181322882E+02  0.00000000000E+00 0. -1.
         -5    1    5    5    0  502  0.28517671601E+00  0.66350848221E+02  0.16946677087E+03  0.18205381846E+03  0.47000000000E+01 0.  1.
         11    1    6    6    0    0 -0.21014567283E+02 -0.20013532894E+02  0.21707873819E+03  0.21900989044E+03  0.00000000000E+00 0. -1.
        -12    1    6    6    0    0  0.20522048982E+02 -0.52164913678E+02  0.89813198997E+02  0.10587135320E+03  0.00000000000E+00 0.  1.
</event>
<event>
12    1  0.8526130E-002  0.2131575E+03  0.7818608E-02  0.1139179E+00
         21   -1    0    0  503  502  0.00000000000E+00  0.00000000000E+00  0.19693781147E+03  0.19693781147E+03  0.00000000000E+00 0.  1.
         21   -1    0    0  501  503 -0.00000000000E+00 -0.00000000000E+00 -0.36922566099E+03  0.36922566099E+03  0.00000000000E+00 0. -1.
          6    2    1    2  501    0  0.12493107530E+03  0.24272325287E+02 -0.25978123467E+03  0.33574814480E+03  0.17042185159E+03 0.  0.
         24    2    3    3    0    0 -0.42198095557E+01 -0.17244587668E+00 -0.11815007846E+03  0.14246345243E+03  0.79489355933E+02 0.  0.
         -6    2    1    2    0  502 -0.12493107530E+03 -0.24272325287E+02  0.87493385143E+02  0.23041532766E+03  0.17099477018E+03 0.  0.
        -24    2    5    5    0    0 -0.76345857602E+02  0.27378215815E+02 -0.41019086212E+01  0.11448392719E+03  0.80693786981E+02 0.  0.
          5    1    3    3  501    0  0.12915088486E+03  0.24444771164E+02 -0.14163115620E+03  0.19328469237E+03  0.47000000000E+01 0. -1.
        -11    1    4    4    0    0 -0.88343112380E+01  0.88587477379E+01  0.86809080238E+01  0.15227627217E+02  0.00000000000E+00 0.  1.
         12    1    4    4    0    0  0.46145016823E+01 -0.90311936146E+01 -0.12683098649E+03  0.12723582521E+03  0.00000000000E+00 0. -1.
         -5    1    5    5    0  502 -0.48585217702E+02 -0.51650541102E+02  0.91595293764E+02  0.11593140047E+03  0.47000000000E+01 0.  1.
         11    1    6    6    0    0 -0.81208127828E+02  0.19617043835E+01  0.14629369441E+02  0.82538637981E+02  0.00000000000E+00 0. -1.
        -12    1    6    6    0    0  0.48622702263E+01  0.25416511431E+02 -0.18731278063E+02  0.31945289214E+02  0.00000000000E+00 0.  1.
</event>
<event>
12    1  0.8526130E-002  0.2320624E+03  0.7818608E-02  0.1125429E+00
         21   -1    0    0  503  502  0.00000000000E+00  0.00000000000E+00  0.12666176958E+03  0.12666176958E+03  0.00000000000E+00 0.  1.
         21   -1    0    0  501  503 -0.00000000000E+00 -0.00000000000E+00 -0.44415473513E+03  0.44415473513E+03  0.00000000000E+00 0. -1.
          6    2    1    2  501    0 -0.15307472193E+03  0.13789293665E+02 -0.96507098422E+02  0.25132959094E+03  0.17387043487E+03 0.  0.
         24    2    3    3    0    0 -0.78408659494E+02  0.73703440350E+02 -0.38758942027E+02  0.13942934331E+03  0.79738141340E+02 0.  0.
         -6    2    1    2    0  502  0.15307472193E+03 -0.13789293665E+02 -0.22098586713E+03  0.31948691378E+03  0.17209043987E+03 0.  0.
        -24    2    5    5    0    0  0.78354574115E+02 -0.25424836053E+01 -0.21651834456E+03  0.24364734638E+03  0.79611132127E+02 0.  0.
          5    1    3    3  501    0 -0.74666062437E+02 -0.59914146685E+02 -0.57748156394E+02  0.11190024763E+03  0.47000000000E+01 0. -1.
        -11    1    4    4    0    0 -0.23115277580E+02  0.73391571231E+02 -0.33379930255E+02  0.83874063507E+02  0.00000000000E+00 0.  1.
         12    1    4    4    0    0 -0.55293381914E+02  0.31186911926E+00 -0.53790117728E+01  0.55555279799E+02  0.00000000000E+00 0. -1.
         -5    1    5    5    0  502  0.74720147816E+02 -0.11246810060E+02 -0.44675225674E+01  0.75839567404E+02  0.47000000000E+01 0.  1.
         11    1    6    6    0    0  0.25769167956E+02  0.36169122205E+02 -0.65715883984E+02  0.79314770541E+02  0.00000000000E+00 0. -1.
        -12    1    6    6    0    0  0.52585406159E+02 -0.38711605811E+02 -0.15080246058E+03  0.16433257584E+03  0.00000000000E+00 0.  1.
</event>
<event>
12    1  0.8526130E-002  0.2905768E+03  0.7818608E-02  0.1090144E+00
         21   -1    0    0  503  502  0.00000000000E+00  0.00000000000E+00  0.40671009890E+03  0.40671009890E+03  0.00000000000E+00 0.  1.
         21   -1    0    0  501  503 -0.00000000000E+00 -0.00000000000E+00 -0.29648256153E+03  0.29648256153E+03  0.00000000000E+00 0. -1.
          6    2    1    2  501    0  0.15393083289E+03 -0.17638356588E+03 -0.13790825671E+03  0.32164196284E+03  0.17213076821E+03 0.  0.
         24    2    3    3    0    0  0.77479482255E+02 -0.14714505509E+03 -0.30276339997E+02  0.18634074695E+03  0.78431370015E+02 0.  0.
         -6    2    1    2    0  502 -0.15393083289E+03  0.17638356588E+03  0.24813579407E+03  0.38155069758E+03  0.17089089765E+03 0.  0.
        -24    2    5    5    0    0 -0.96320387404E+02  0.14224677238E+03  0.24983646644E+03  0.31439962622E+03  0.83169127189E+02 0.  0.
          5    1    3    3  501    0  0.76451350633E+02 -0.29238510793E+02 -0.10763191671E+03  0.13530121589E+03  0.47000000000E+01 0. -1.
        -13    1    4    4    0    0  0.29632289500E+02 -0.71298613436E+02  0.24805502254E+02  0.81097951891E+02  0.00000000000E+00 0.  1.
         14    1    4    4    0    0  0.47847192755E+02 -0.75846441653E+02 -0.55081842250E+02  0.10524279506E+03  0.00000000000E+00 0. -1.
         -5    1    5    5    0  502 -0.57610445483E+02  0.34136793497E+02 -0.17006723734E+01  0.67151071366E+02  0.47000000000E+01 0.  1.
         11    1    6    6    0    0 -0.67154135511E+02  0.27722800420E+02  0.92309989845E+02  0.11747070190E+03  0.00000000000E+00 0. -1.
        -12    1    6    6    0    0 -0.29166251893E+02  0.11452397196E+03  0.15752647660E+03  0.19692892432E+03  0.00000000000E+00 0.  1.
</event>
<event>
12    1  0.8526130E-002  0.1932951E+03  0.7818608E-02  0.1155808E+00
         21   -1    0    0  503  502  0.00000000000E+00  0.00000000000E+00  0.62532067853E+02  0.62532067853E+02  0.00000000000E+00 0.  1.
         21   -1    0    0  501  503 -0.00000000000E+00 -0.00000000000E+00 -0.86113339303E+03  0.86113339303E+03  0.00000000000E+00 0. -1.
          6    2    1    2  501    0 -0.47581232050E+02 -0.72534505518E+02 -0.65767621311E+03  0.68549325703E+03  0.17273614563E+03 0.  0.
         24    2    3    3    0    0 -0.28143847823E+02  0.74719121016E+01 -0.16336295125E+03  0.18434803894E+03  0.80304669717E+02 0.  0.
         -6    2    1    2    0  502  0.47581232050E+02  0.72534505518E+02 -0.14092511207E+03  0.23817220385E+03  0.17129180758E+03 0.  0.
        -24    2    5    5    0    0  0.66360664399E+02  0.10734023775E+03 -0.12707356323E+03  0.19600513755E+03  0.79653368121E+02 0.  0.
          5    1    3    3  501    0 -0.19437384226E+02 -0.80006417619E+02 -0.49431326186E+03  0.50114521809E+03  0.47000000000E+01 0. -1.
        -11    1    4    4    0    0  0.14894564483E+02  0.31829090475E+02 -0.55518839446E+02  0.65706016353E+02  0.00000000000E+00 0.  1.
         12    1    4    4    0    0 -0.43038412306E+02 -0.24357178373E+02 -0.10784411180E+03  0.11864202258E+03  0.00000000000E+00 0. -1.
         -5    1    5    5    0  502 -0.18779432349E+02 -0.34805732234E+02 -0.13851548841E+02  0.42167066308E+02  0.47000000000E+01 0.  1.
         11    1    6    6    0    0  0.24486493789E+00  0.41197443874E+02 -0.82908290582E+02  0.92580094987E+02  0.00000000000E+00 0. -1.
        -12    1    6    6    0    0  0.66115799461E+02  0.66142793878E+02 -0.44165272644E+02  0.10342504256E+03  0.00000000000E+00 0.  1.
</event>
<event>
12    1  0.8526130E-002  0.2172172E+03  0.7818608E-02  0.1137842E+00
         21   -1    0    0  503  502  0.00000000000E+00  0.00000000000E+00  0.41422777264E+03  0.41422777264E+03  0.00000000000E+00 0. -1.
         21   -1    0    0  501  503 -0.00000000000E+00 -0.00000000000E+00 -0.10927663205E+03  0.10927663205E+03  0.00000000000E+00 0. -1.
          6    2    1    2  501    0  0.67792401021E+02  0.10984060535E+03  0.13407044985E+03  0.24712869253E+03  0.16259439390E+03 0.  0.
         24    2    3    3    0    0  0.77006229055E+02  0.13751734140E+03  0.12414532111E+03  0.21595988560E+03  0.79910155406E+02 0.  0.
         -6    2    1    2    0  502 -0.67792401021E+02 -0.10984060535E+03  0.17088069074E+03  0.27637571216E+03  0.17470705648E+03 0.  0.
        -24    2    5    5    0    0 -0.10177587943E+03 -0.10057419124E+03  0.87797904560E+02  0.18601209894E+03  0.80115737085E+02 0.  0.
          5    1    3    3  501    0 -0.92138280339E+01 -0.27676736041E+02  0.99251287462E+01  0.31168806932E+02  0.47000000000E+01 0. -1.
        -11    1    4    4    0    0  0.10217736798E+02  0.89411665899E+02  0.88647699068E+02  0.12632205941E+03  0.00000000000E+00 0.  1.
         12    1    4    4    0    0  0.66788492257E+02  0.48105675497E+02  0.35497622038E+02  0.89637826185E+02  0.00000000000E+00 0. -1.
         -5    1    5    5    0  502  0.33983478404E+02 -0.92664141109E+01  0.83082786182E+02  0.90363613223E+02  0.47000000000E+01 0.  1.
         11    1    6    6    0    0 -0.15204801019E+02  0.93787465165E+01  0.29337191657E+02  0.34348474123E+02  0.00000000000E+00 0. -1.
        -12    1    6    6    0    0 -0.86571078406E+02 -0.10995293776E+03  0.58460712903E+02  0.15166362481E+03  0.00000000000E+00 0.  1.
</event>
<event>
12    1  0.8526130E-002  0.1904574E+03  0.7818608E-02  0.1158093E+00
         21   -1    0    0  501  502  0.00000000000E+00  0.00000000000E+00  0.82360718884E+02  0.82360718884E+02  0.00000000000E+00 0.  1.
         21   -1    0    0  502  503 -0.00000000000E+00 -0.00000000000E+00 -0.44816102073E+03  0.44816102073E+03  0.00000000000E+00 0.  1.
         -6    2    1    2    0  503  0.76162622333E+02 -0.18695670571E+02 -0.14716245998E+03  0.24068821027E+03  0.17356195377E+03 0.  0.
        -24    2    3    3    0    0 -0.24490956949E+02  0.10412868992E+02 -0.69151373600E+02  0.10997375164E+03  0.81265483237E+02 0.  0.
          6    2    1    2  501    0 -0.76162622333E+02  0.18695670571E+02 -0.21863784187E+03  0.28983352934E+03  0.17335136485E+03 0.  0.
         24    2    5    5    0    0 -0.52287756674E+02  0.76858575730E+02 -0.15643267206E+03  0.20126431405E+03  0.85993564067E+02 0.  0.
          5    1    5    5  501    0 -0.23874865659E+02 -0.58162905158E+02 -0.62205169806E+02  0.88569215291E+02  0.47000000000E+01 0. -1.
        -13    1    6    6    0    0 -0.45125921564E+02  0.27090450175E+02 -0.20768981348E+02  0.56582611056E+02  0.00000000000E+00 0.  1.
         14    1    6    6    0    0 -0.71618351099E+01  0.49768125555E+02 -0.13566369072E+03  0.14468170300E+03  0.00000000000E+00 0. -1.
         -5    1    3    3    0  503  0.10065357928E+03 -0.29108539564E+02 -0.78011086376E+02  0.13071445863E+03  0.47000000000E+01 0.  1.
         11    1    4    4    0    0  0.57033238158E+01 -0.18878826020E+02  0.86440148206E+01  0.21532695295E+02  0.00000000000E+00 0. -1.
        -12    1    4    4    0    0 -0.30194280765E+02  0.29291695013E+02 -0.77795388421E+02  0.88441056344E+02  0.00000000000E+00 0.  1.
</event>
<event>
12    1  0.8526130E-002  0.3468406E+03  0.7818608E-02  0.1063957E+00
         21   -1    0    0  501  502  0.00000000000E+00  0.00000000000E+00  0.20630563003E+03  0.20630563003E+03  0.00000000000E+00 0. -1.
         21   -1    0    0  502  503 -0.00000000000E+00 -0.00000000000E+00 -0.94092901939E+03  0.94092901939E+03  0.00000000000E+00 0.  1.
         -6    2    1    2    0  503 -0.28706237154E+03  0.89907621116E+02 -0.72146537033E+03  0.80050652900E+03  0.17265641286E+03 0.  0.
        -24    2    3    3    0    0 -0.19437978467E+03  0.78379179635E+00 -0.51563532600E+03  0.55776960142E+03  0.86272961205E+02 0.  0.
          6    2    1    2  501    0  0.28706237154E+03 -0.89907621116E+02 -0.13158019030E+02  0.34672812041E+03  0.17192751534E+03 0.  0.
         24    2    5    5    0    0  0.19312352963E+03 -0.13462629140E+03 -0.16324580735E+01  0.24194647104E+03  0.55807650862E+02 0.  0.
          5    1    5    5  501    0  0.93938841902E+02  0.44718670281E+02 -0.11525560956E+02  0.10478164937E+03  0.47000000000E+01 0. -1.
        -11    1    6    6    0    0  0.71684100317E+01 -0.25001097818E+02 -0.19682821024E+01  0.26082851242E+02  0.00000000000E+00 0.  1.
         12    1    6    6    0    0  0.18595511960E+03 -0.10962519358E+03  0.33582402891E+00  0.21586361980E+03  0.00000000000E+00 0. -1.
         -5    1    3    3    0  503 -0.92682586867E+02  0.89123829320E+02 -0.20583004433E+03  0.24273692758E+03  0.47000000000E+01 0.  1.
         11    1    4    4    0    0 -0.49691495606E+02  0.84198599273E+01 -0.25154364246E+03  0.25654306234E+03  0.00000000000E+00 0. -1.
        -12    1    4    4    0    0 -0.14468828906E+03 -0.76360681309E+01 -0.26409168354E+03  0.30122653908E+03  0.00000000000E+00 0.  1.
</event>
<event>
12    1  0.8526130E-002  0.2247406E+03  0.7818608E-02  0.1131356E+00
         21   -1    0    0  501  502  0.00000000000E+00  0.00000000000E+00  0.13711300209E+03  0.13711300209E+03  0.00000000000E+00 0.  1.
         21   -1    0    0  502  503 -0.00000000000E+00 -0.00000000000E+00 -0.41545365702E+03  0.41545365702E+03  0.00000000000E+00 0.  1.
         -6    2    1    2    0  503  0.21304829093E+02 -0.13503272964E+03 -0.23881463648E+03  0.32437674513E+03  0.17175595584E+03 0.  0.
        -24    2    3    3    0    0  0.46451586173E+02 -0.24514027035E+02 -0.39480130144E+02  0.95023135097E+02  0.68644214235E+02 0.  0.
          6    2    1    2  501    0 -0.21304829093E+02  0.13503272964E+03 -0.39526018444E+02  0.22818991399E+03  0.17838328648E+03 0.  0.
         24    2    5    5    0    0 -0.66204028408E+01  0.16809516252E+03 -0.42035603292E+02  0.19162292261E+03  0.81563099057E+02 0.  0.
          5    1    5    5  501    0 -0.14684426252E+02 -0.33062432880E+02  0.25095848482E+01  0.36566991378E+02  0.47000000000E+01 0. -1.
        -13    1    6    6    0    0 -0.24378401879E+02  0.23920833037E+02  0.12628541601E+02  0.36414183971E+02  0.00000000000E+00 0.  1.
         14    1    6    6    0    0  0.17757999038E+02  0.14417432949E+03 -0.54664144894E+02  0.15520873864E+03  0.00000000000E+00 0. -1.
         -5    1    3    3    0  503 -0.25146757080E+02 -0.11051870261E+03 -0.19933450634E+03  0.22935361003E+03  0.47000000000E+01 0.  1.
         13    1    4    4    0    0  0.90209857928E+01 -0.42638184441E+02 -0.12096631475E+02  0.45229652333E+02  0.00000000000E+00 0. -1.
        -14    1    4    4    0    0  0.37430600380E+02  0.18124157405E+02 -0.27383498669E+02  0.49793482764E+02  0.00000000000E+00 0.  1.
</event>
<event>
12    1  0.8526130E-002  0.1937679E+03  0.7818608E-02  0.1155527E+00
         21   -1    0    0  503  502  0.00000000000E+00  0.00000000000E+00  0.23960761766E+04  0.23960761766E+04  0.00000000000E+00 0.  1.
         21   -1    0    0  501  503 -0.00000000000E+00 -0.00000000000E+00 -0.16361506991E+02  0.16361506991E+02  0.00000000000E+00 0.  1.
          6    2    1    2  501    0  0.34140577669E+02  0.81502758221E+02  0.91012119979E+03  0.93012497728E+03  0.17030442273E+03 0.  0.
         24    2    3    3    0    0  0.55176891691E+02  0.29889979435E+01  0.53568010858E+03  0.54693421820E+03  0.95553319226E+02 0.  0.
         -6    2    1    2    0  502 -0.34140577669E+02 -0.81502758221E+02  0.14695934698E+04  0.14823127063E+04  0.17244626447E+03 0.  0.
        -24    2    5    5    0    0  0.24747679134E+02  0.18814952155E+02  0.49957661781E+03  0.50533458324E+03  0.69424735508E+02 0.  0.
          5    1    3    3  501    0 -0.21036314022E+02  0.78513760278E+02  0.37444109121E+03  0.38319075908E+03  0.47000000000E+01 0. -1.
        -13    1    4    4    0    0  0.68509510278E+02  0.34011484575E+02  0.35929763753E+03  0.36734878034E+03  0.00000000000E+00 0.  1.
         14    1    4    4    0    0 -0.13332618586E+02 -0.31022486631E+02  0.17638247106E+03  0.17958543786E+03  0.00000000000E+00 0. -1.
         -5    1    5    5    0  502 -0.58888256803E+02 -0.10031771038E+03  0.97001685201E+03  0.97697812309E+03  0.47000000000E+01 0.  1.
         11    1    6    6    0    0  0.20200757765E+02  0.16793797053E+02  0.57353654642E+02  0.63083626517E+02  0.00000000000E+00 0. -1.
        -12    1    6    6    0    0  0.45469213691E+01  0.20211551021E+01  0.44222296317E+03  0.44225095672E+03  0.00000000000E+00 0.  1.
</event>
<event>
12    1  0.8526130E-002  0.1994149E+03  0.7818608E-02  0.1152298E+00
         21   -1    0    0  503  502  0.00000000000E+00  0.00000000000E+00  0.15849769082E+03  0.15849769082E+03  0.00000000000E+00 0. -1.
         21   -1    0    0  501  503 -0.00000000000E+00 -0.00000000000E+00 -0.36940267004E+03  0.36940267004E+03  0.00000000000E+00 0. -1.
          6    2    1    2  501    0  0.86485630543E+02  0.28640765338E+02 -0.26052931439E+03  0.32240370023E+03  0.16663902466E+03 0.  0.
         24    2    3    3    0    0  0.12199715594E+03  0.29354231696E+01 -0.19776774995E+03  0.24570339369E+03  0.79788169473E+02 0.  0.
         -6    2    1    2    0  502 -0.86485630543E+02 -0.28640765338E+02  0.49624335165E+02  0.20549666063E+03  0.17738727451E+03 0.  0.
        -24    2    5    5    0    0 -0.11895612043E+03 -0.77418461604E+01  0.16898375830E+01  0.14376414412E+03  0.80341638099E+02 0.  0.
          5    1    3    3  501    0 -0.35511525395E+02  0.25705342168E+02 -0.62761564444E+02  0.76700306540E+02  0.47000000000E+01 0. -1.
        -11    1    4    4    0    0  0.76849225242E+01 -0.83319732657E+01  0.52121766515E+01  0.12475840579E+02  0.00000000000E+00 0.  1.
         12    1    4    4    0    0  0.11431223341E+03  0.11267396435E+02 -0.20297992660E+03  0.23322755311E+03  0.00000000000E+00 0. -1.
         -5    1    5    5    0  502  0.32470489887E+02 -0.20898919177E+02  0.47934497582E+02  0.61732516511E+02  0.47000000000E+01 0.  1.
         13    1    6    6    0    0 -0.25534073437E+02 -0.15619001725E+02  0.33346788592E+02  0.44810159903E+02  0.00000000000E+00 0. -1.
        -14    1    6    6    0    0 -0.93422046993E+02  0.78771555644E+01 -0.31656951009E+02  0.98953984212E+02  0.00000000000E+00 0.  1.
</event>
<event>
12    1  0.8526130E-002  0.1895447E+03  0.7818608E-02  0.1162985E+00
         21   -1    0    0  503  502  0.00000000000E+00  0.00000000000E+00  0.41894369323E+03  0.41894369323E+03  0.00000000000E+00 0.  1.
         21   -1    0    0  501  503 -0.00000000000E+00 -0.00000000000E+00 -0.78139242447E+02  0.78139242447E+02  0.00000000000E+00 0.  1.
          6    2    1    2  501    0  0.37461772194E+01 -0.69508156443E+01  0.17446916207E+03  0.25761728879E+03  0.18938012379E+03 0.  0.
         24    2    3    3    0    0 -0.27432030327E+01  0.43602022391E+02  0.17452797051E+02  0.92469081489E+02  0.79606968207E+02 0.  0.
         -6    2    1    2    0  502 -0.37461772194E+01  0.69508156443E+01  0.16633528871E+03  0.23946564689E+03  0.17208724557E+03 0.  0.
        -24    2    5    5    0    0 -0.20249883529E+02 -0.38520842357E+02  0.25710897163E+02  0.90679379035E+02  0.75284702765E+02 0.  0.
          5    1    3    3  501    0  0.64893802522E+01 -0.50552838035E+02  0.15701636502E+03  0.16514820730E+03  0.47000000000E+01 0. -1.
        -13    1    4    4    0    0  0.31157965234E+02 -0.49920837022E+01  0.62502144958E+01  0.32168383212E+02  0.00000000000E+00 0.  1.
         14    1    4    4    0    0 -0.33901168267E+02  0.48594106093E+02  0.11202582555E+02  0.60300698277E+02  0.00000000000E+00 0. -1.
         -5    1    5    5    0  502  0.16503706310E+02  0.45471658001E+02  0.14062439155E+03  0.14878626785E+03  0.47000000000E+01 0.  1.
         11    1    6    6    0    0 -0.28397155573E+01 -0.59426049246E+02  0.20859047619E+02  0.63044580902E+02  0.00000000000E+00 0. -1.
        -12    1    6    6    0    0 -0.17410167972E+02  0.20905206889E+02  0.48518495435E+01  0.27634798134E+02  0.00000000000E+00 0.  1.
</event>
<event>
12    1  0.8526130E-002  0.1877671E+03  0.7818608E-02  0.1160579E+00
         21   -1    0    0  503  502  0.00000000000E+00  0.00000000000E+00  0.27868092925E+03  0.27868092925E+03  0.00000000000E+00 0.  1.
         21   -1    0    0  501  503 -0.00000000000E+00 -0.00000000000E+00 -0.54728733383E+03  0.54728733383E+03  0.00000000000E+00 0.  1.
          6    2    1    2  501    0 -0.30838764859E+02  0.63062609454E+02 -0.49656512402E+03  0.53087985727E+03  0.17415102162E+03 0.  0.
         24    2    3    3    0    0  0.22861704054E+02  0.52486992975E+02 -0.44435524342E+03  0.45509367345E+03  0.79881958639E+02 0.  0.
         -6    2    1    2    0  502  0.30838764859E+02 -0.63062609454E+02  0.22795871945E+03  0.29508840580E+03  0.17373562484E+03 0.  0.
        -24    2    5    5    0    0 -0.38271636854E+02 -0.76139082475E+02  0.15155699805E+03  0.19113382532E+03  0.79377184724E+02 0.  0.
          5    1    3    3  501    0 -0.53700468914E+02  0.10575616478E+02 -0.52209880604E+02  0.75786183821E+02  0.47000000000E+01 0. -1.
        -11    1    4    4    0    0 -0.23775548344E+02 -0.49533765498E+01 -0.10826213290E+03  0.11095270189E+03  0.00000000000E+00 0.  1.
         12    1    4    4    0    0  0.46637252398E+02  0.57440369525E+02 -0.33609311052E+03  0.34414097156E+03  0.00000000000E+00 0. -1.
         -5    1    5    5    0  502  0.69110401714E+02  0.13076473021E+02  0.76401721398E+02  0.10395458049E+03  0.47000000000E+01 0.  1.
         13    1    6    6    0    0  0.89368199883E+01 -0.56242736371E+02  0.43885778612E+02  0.71896270490E+02  0.00000000000E+00 0. -1.
        -14    1    6    6    0    0 -0.47208456843E+02 -0.19896346104E+02  0.10767121944E+03  0.11923755483E+03  0.00000000000E+00 0.  1.
</event>
<event>
12    1  0.8526130E-002  0.1997628E+03  0.7818608E-02  0.1153825E+00
         21   -1    0    0  503  502  0.00000000000E+00  0.00000000000E+00  0.21914354068E+03  0.21914354068E+03  0.00000000000E+00 0. -1.
         21   -1    0    0  501  503 -0.00000000000E+00 -0.00000000000E+00 -0.17843560320E+03  0.17843560320E+03  0.00000000000E+00 0. -1.
          6    2    1    2  501    0 -0.29603303314E+02 -0.55340235490E+02 -0.31924278589E+02  0.18502184149E+03  0.17109945948E+03 0.  0.
         24    2    3    3    0    0 -0.24135543859E+02 -0.20635827814E+02 -0.84882779619E+02  0.12129598224E+03  0.80618032508E+02 0.  0.
         -6    2    1    2    0  502  0.29603303314E+02  0.55340235490E+02  0.72632216065E+02  0.21255730239E+03  0.18964775442E+03 0.  0.
        -24    2    5    5    0    0  0.67882518157E+02 -0.26451604799E+02  0.51438574766E+02  0.11967854347E+03  0.79807913928E+02 0.  0.
          5    1    3    3  501    0 -0.54677594549E+01 -0.34704407676E+02  0.52958501030E+02  0.63725859248E+02  0.47000000000E+01 0. -1.
        -13    1    4    4    0    0 -0.38866206254E+02 -0.38391624193E+02 -0.31310145521E+02  0.62966848494E+02  0.00000000000E+00 0.  1.
         14    1    4    4    0    0  0.14730662395E+02  0.17755796379E+02 -0.53572634098E+02  0.58329133749E+02  0.00000000000E+00 0. -1.
         -5    1    5    5    0  502 -0.38279214843E+02  0.81791840289E+02  0.21193641299E+02  0.92878758919E+02  0.47000000000E+01 0.  1.
         11    1    6    6    0    0  0.79637701909E+02 -0.12883650001E+02  0.19430810625E+02  0.82980168741E+02  0.00000000000E+00 0. -1.
        -12    1    6    6    0    0 -0.11755183753E+02 -0.13567954799E+02  0.32007764142E+02  0.36698374730E+02  0.00000000000E+00 0.  1.
</event>
<event>
12    1  0.8526130E-002  0.3106004E+03  0.7818608E-02  0.1080105E+00
         21   -1    0    0  503  502  0.00000000000E+00  0.00000000000E+00  0.17226644286E+03  0.17226644286E+03  0.00000000000E+00 0.  1.
         21   -1    0    0  501  503 -0.00000000000E+00 -0.00000000000E+00 -0.56441700786E+03  0.56441700786E+03  0.00000000000E+00 0.  1.
          6    2    1    2  501    0  0.19422580766E+03  0.17014517742E+03 -0.16118739025E+03  0.34993427065E+03  0.17262552895E+03 0.  0.
         24    2    3    3    0    0  0.93048285804E+02  0.16026625128E+03 -0.14178880589E+03  0.24633466069E+03  0.78952167750E+02 0.  0.
         -6    2    1    2    0  502 -0.19422580766E+03 -0.17014517742E+03 -0.23096317475E+03  0.38674918007E+03  0.17192409497E+03 0.  0.
        -24    2    5    5    0    0 -0.97679824199E+02 -0.23819857200E+02 -0.13164739928E+03  0.18521025202E+03  0.82843624161E+02 0.  0.
          5    1    3    3  501    0  0.10117752185E+03  0.98789261475E+01 -0.19398584356E+02  0.10359960997E+03  0.47000000000E+01 0. -1.
        -11    1    4    4    0    0  0.64809326137E+02  0.44469259271E+02 -0.34013626183E+02  0.85642807875E+02  0.00000000000E+00 0.  1.
         12    1    4    4    0    0  0.28238959667E+02  0.11579699200E+03 -0.10777517971E+03  0.16069185282E+03  0.00000000000E+00 0. -1.
         -5    1    5    5    0  502 -0.96545983457E+02 -0.14632532022E+03 -0.99315775476E+02  0.20153892805E+03  0.47000000000E+01 0.  1.
         11    1    6    6    0    0 -0.15276460947E+02 -0.16556852582E+02 -0.89650062436E+02  0.92437185814E+02  0.00000000000E+00 0. -1.
        -12    1    6    6    0    0 -0.82403363253E+02 -0.72630046180E+01 -0.41997336842E+02  0.92773066206E+02  0.00000000000E+00 0.  1.
</event>
<event>
12    1  0.8526130E-002  0.2013923E+03  0.7818608E-02  0.1151375E+00
         21   -1    0    0  503  502  0.00000000000E+00  0.00000000000E+00  0.45694511552E+03  0.45694511552E+03  0.00000000000E+00 0.  1.
         21   -1    0    0  501  503 -0.00000000000E+00 -0.00000000000E+00 -0.12674588716E+03  0.12674588716E+03  0.00000000000E+00 0.  1.
          6    2    1    2  501    0  0.61842899218E+02  0.46922523486E+02 -0.96111853830E+01  0.18868469399E+03  0.17170693483E+03 0.  0.
         24    2    3    3    0    0  0.94035796405E+02  0.68766541184E+02 -0.29831299448E+02  0.14458835910E+03  0.80276515666E+02 0.  0.
         -6    2    1    2    0  502 -0.61842899218E+02 -0.46922523486E+02  0.33981041374E+03  0.39500630869E+03  0.18582948965E+03 0.  0.
        -24    2    5    5    0    0  0.23550054681E+02 -0.15174502503E+02  0.70954177990E+02  0.11109495120E+03  0.80763371683E+02 0.  0.
          5    1    3    3  501    0 -0.32192897187E+02 -0.21844017697E+02  0.20220114065E+02  0.44096334896E+02  0.47000000000E+01 0. -1.
        -11    1    4    4    0    0  0.83205451138E+02  0.23173484490E+02  0.45111560917E+01  0.86489930118E+02  0.00000000000E+00 0.  1.
         12    1    4    4    0    0  0.10830345267E+02  0.45593056693E+02 -0.34342455540E+02  0.58098428978E+02  0.00000000000E+00 0. -1.
         -5    1    5    5    0  502 -0.85392953900E+02 -0.31748020983E+02  0.26885623575E+03  0.28391135749E+03  0.47000000000E+01 0.  1.
         13    1    6    6    0    0  0.13926422892E+01  0.29353483484E+02  0.48083290394E+02  0.56352189490E+02  0.00000000000E+00 0. -1.
        -14    1    6    6    0    0  0.22157412392E+02 -0.44527985987E+02  0.22870887596E+02  0.54742761707E+02  0.00000000000E+00 0.  1.
</event>
<event>
12    1  0.8526130E-002  0.3102917E+03  0.7818608E-02  0.1080207E+00
         21   -1    0    0  503  502  0.00000000000E+00  0.00000000000E+00  0.21015780303E+03  0.21015780303E+03  0.00000000000E+00 0.  1.
         21   -1    0    0  501  503 -0.00000000000E+00 -0.00000000000E+00 -0.51862238197E+03  0.51862238197E+03  0.00000000000E+00 0. -1.
          6    2    1    2  501    0 -0.18852132623E+03 -0.17603609607E+03 -0.27868001789E+03  0.41706224061E+03  0.17248003541E+03 0.  0.
         24    2    3    3    0    0 -0.88118610507E+02 -0.13201772576E+02 -0.87154262919E+02  0.14632264793E+03  0.76650345302E+02 0.  0.
         -6    2    1    2    0  502  0.18852132623E+03  0.17603609607E+03 -0.29784561048E+02  0.31171794439E+03  0.17248756249E+03 0.  0.
        -24    2    5    5    0    0  0.18283345713E+02  0.32202146076E+02 -0.20400671392E+02  0.88605142049E+02  0.77867996391E+02 0.  0.
          5    1    3    3  501    0 -0.10040271573E+03 -0.16283432349E+03 -0.19152575497E+03  0.27073959269E+03  0.47000000000E+01 0. -1.
        -11    1    4    4    0    0 -0.63328156295E+02 -0.42892773759E+02 -0.43476008147E+02  0.87979592548E+02  0.00000000000E+00 0.  1.
         12    1    4    4    0    0 -0.24790454212E+02  0.29691001182E+02 -0.43678254772E+02  0.58343055381E+02  0.00000000000E+00 0. -1.
         -5    1    5    5    0  502  0.17023798052E+03  0.14383394999E+03 -0.93838896562E+01  0.22311280234E+03  0.47000000000E+01 0.  1.
         11    1    6    6    0    0  0.48890988410E+02  0.18953308507E+02 -0.16787518050E+02  0.55057945960E+02  0.00000000000E+00 0. -1.
        -12    1    6    6    0    0 -0.30607642697E+02  0.13248837569E+02 -0.36131533421E+01  0.33547196089E+02  0.00000000000E+00 0.  1.
</event>
<event>
12    1  0.8526130E-002  0.2232628E+03  0.7818608E-02  0.1133778E+00
         21   -1    0    0  503  502  0.00000000000E+00  0.00000000000E+00  0.13536846585E+04  0.13536846585E+04  0.00000000000E+00 0.  1.
         21   -1    0    0  501  503 -0.00000000000E+00 -0.00000000000E+00 -0.43163990838E+02  0.43163990838E+02  0.00000000000E+00 0.  1.
          6    2    1    2  501    0 -0.63574914283E+02 -0.10554793500E+03  0.36341890821E+03  0.42652029451E+03  0.18618303488E+03 0.  0.
         24    2    3    3    0    0  0.38849454509E+02 -0.65522584825E+02  0.14582758851E+03  0.18267433414E+03  0.79383484089E+02 0.  0.
         -6    2    1    2    0  502  0.63574914283E+02  0.10554793500E+03  0.94710175949E+03  0.97032835486E+03  0.17132786439E+03 0.  0.
        -24    2    5    5    0    0  0.67256971441E+02  0.63767560888E+02  0.32630983544E+03  0.34810342755E+03  0.78154241973E+02 0.  0.
          5    1    3    3  501    0 -0.10242436879E+03 -0.40025350176E+02  0.21759131970E+03  0.24384596037E+03  0.47000000000E+01 0. -1.
        -11    1    4    4    0    0 -0.23083013428E+02 -0.30925628054E+02  0.43354866463E+02  0.58041919554E+02  0.00000000000E+00 0.  1.
         12    1    4    4    0    0  0.61932467937E+02 -0.34596956771E+02  0.10247272205E+03  0.12463241459E+03  0.00000000000E+00 0. -1.
         -5    1    5    5    0  502 -0.36820571581E+01  0.41780374113E+02  0.62079192404E+03  0.62222492731E+03  0.47000000000E+01 0.  1.
         13    1    6    6    0    0  0.18678152534E+02 -0.46226627116E+01  0.16655737749E+03  0.16766514959E+03  0.00000000000E+00 0. -1.
        -14    1    6    6    0    0  0.48578818906E+02  0.68390223599E+02  0.15975245796E+03  0.18043827796E+03  0.00000000000E+00 0.  1.
</event>
<event>
12    1  0.8526130E-002  0.1938207E+03  0.7818608E-02  0.1155110E+00
         21   -1    0    0  503  502  0.00000000000E+00  0.00000000000E+00  0.37841396619E+03  0.37841396619E+03  0.00000000000E+00 0. -1.
         21   -1    0    0  501  503 -0.00000000000E+00 -0.00000000000E+00 -0.10143199252E+03  0.10143199252E+03  0.00000000000E+00 0. -1.
          6    2    1    2  501    0 -0.22575611227E+02  0.86492433923E+02  0.10263487234E+03  0.21931801258E+03  0.17197637708E+03 0.  0.
         24    2    3    3    0    0 -0.28836799885E+02 -0.17893526282E+02  0.56282276349E+02  0.10483533124E+03  0.81676267885E+02 0.  0.
         -6    2    1    2    0  502  0.22575611227E+02 -0.86492433923E+02  0.17434710133E+03  0.26052794613E+03  0.17171866417E+03 0.  0.
        -24    2    5    5    0    0 -0.53363659215E+02 -0.39628447693E+02  0.10809600970E+03  0.14928810101E+03  0.78639022112E+02 0.  0.
          5    1    3    3  501    0  0.62611886583E+01  0.10438596020E+03  0.46352595989E+02  0.11448268134E+03  0.47000000000E+01 0. -1.
        -11    1    4    4    0    0 -0.14039029707E+02 -0.17300375988E+02 -0.18278242062E+02  0.28818249380E+02  0.00000000000E+00 0.  1.
         12    1    4    4    0    0 -0.14797770178E+02 -0.59315029342E+00  0.74560518411E+02  0.76017081865E+02  0.00000000000E+00 0. -1.
         -5    1    5    5    0  502  0.75939270441E+02 -0.46863986230E+02  0.66251091636E+02  0.11123984513E+03  0.47000000000E+01 0.  1.
         13    1    6    6    0    0  0.83247705447E+01 -0.25328258523E+02  0.33260576274E+01  0.26867920347E+02  0.00000000000E+00 0. -1.
        -14    1    6    6    0    0 -0.61688429759E+02 -0.14300189170E+02  0.10476995207E+03  0.12242018066E+03  0.00000000000E+00 0.  1.
</event>
<event>
12    1  0.8526130E-002  0.2391871E+03  0.7818608E-02  0.1120509E+00
         21   -1    0    0  503  502  0.00000000000E+00  0.00000000000E+00  0.15263916292E+03  0.15263916292E+03  0.00000000000E+00 0.  1.
         21   -1    0    0  501  503 -0.00000000000E+00 -0.00000000000E+00 -0.12745511681E+04  0.12745511681E+04  0.00000000000E+00 0.  1.
          6    2    1    2  501    0  0.10969437633E+03  0.12189054225E+03 -0.11606986179E+04  0.11848787981E+04  0.17270299390E+03 0.  0.
         24    2    3    3    0    0  0.28968027794E+02 -0.82376204828E+01 -0.43790854131E+03  0.44602991849E+03  0.79194650132E+02 0.  0.
         -6    2    1    2    0  502 -0.10969437633E+03 -0.12189054225E+03  0.38786612728E+02  0.24231153292E+03  0.17412730162E+03 0.  0.
        -24    2    5    5    0    0 -0.87174013236E+02 -0.15644407693E+03  0.24102446496E+02  0.19827940543E+03  0.81607211078E+02 0.  0.
          5    1    3    3  501    0  0.80726348541E+02  0.13012816273E+03 -0.72279007659E+03  0.73884887961E+03  0.47000000000E+01 0. -1.
        -11    1    4    4    0    0  0.45217973237E+02  0.19125117807E+02 -0.32629701900E+03  0.32996996809E+03  0.00000000000E+00 0.  1.
         12    1    4    4    0    0 -0.16249945443E+02 -0.27362738290E+02 -0.11161152231E+03  0.11605995040E+03  0.00000000000E+00 0. -1.
         -5    1    5    5    0  502 -0.22520363099E+02  0.34553534684E+02  0.14684166232E+02  0.44032127489E+02  0.47000000000E+01 0.  1.
         11    1    6    6    0    0 -0.50793763516E+02 -0.38602384246E+02 -0.20688049822E+02  0.67068218159E+02  0.00000000000E+00 0. -1.
        -12    1    6    6    0    0 -0.36380249720E+02 -0.11784169268E+03  0.44790496318E+02  0.13121118727E+03  0.00000000000E+00 0.  1.
</event>
<event>
12    1  0.8526130E-002  0.3035032E+03  0.7818608E-02  0.1083714E+00
         21   -1    0    0  501  502  0.00000000000E+00  0.00000000000E+00  0.65659554921E+03  0.65659554921E+03  0.00000000000E+00 0.  1.
         21   -1    0    0  502  503 -0.00000000000E+00 -0.00000000000E+00 -0.23900669395E+03  0.23900669395E+03  0.00000000000E+00 0. -1.
         -6    2    1    2    0  503  0.18979372497E+02 -0.24899879433E+03 -0.80486882440E+02  0.31234103741E+03  0.16946435981E+03 0.  0.
        -24    2    3    3    0    0  0.16212239016E+02 -0.26396749831E+03 -0.93131698332E+02  0.29200140872E+03  0.81545279429E+02 0.  0.
          6    2    1    2  501    0 -0.18979372497E+02  0.24899879433E+03  0.49807573769E+03  0.58326120575E+03  0.17249225343E+03 0.  0.
         24    2    5    5    0    0 -0.47362524957E+02  0.25087267688E+03  0.47864072502E+03  0.54849161419E+03  0.81029614445E+02 0.  0.
          5    1    5    5  501    0  0.28383152460E+02 -0.18738825463E+01  0.19435012677E+02  0.34769591558E+02  0.47000000000E+01 0. -1.
        -11    1    6    6    0    0  0.49731931709E+01  0.16482131428E+03  0.33055716293E+03  0.36940335172E+03  0.00000000000E+00 0.  1.
         12    1    6    6    0    0 -0.52335718128E+02  0.86051362598E+02  0.14808356208E+03  0.17908826248E+03  0.00000000000E+00 0. -1.
         -5    1    3    3    0  503  0.27671334816E+01  0.14968703979E+02  0.12644815893E+02  0.20339628696E+02  0.47000000000E+01 0.  1.
         13    1    4    4    0    0  0.45736459275E+02 -0.18062164246E+03 -0.79341239972E+02  0.20251181148E+03  0.00000000000E+00 0. -1.
        -14    1    4    4    0    0 -0.29524220259E+02 -0.83345855859E+02 -0.13790458360E+02  0.89489597231E+02  0.00000000000E+00 0.  1.
</event>
<event>
12    1  0.8526130E-002  0.2345900E+03  0.7818608E-02  0.1123499E+00
         21   -1    0    0  501  502  0.00000000000E+00  0.00000000000E+00  0.32094388436E+03  0.32094388436E+03  0.00000000000E+00 0.  1.
         21   -1    0    0  502  503 -0.00000000000E+00 -0.00000000000E+00 -0.33295298912E+03  0.33295298912E+03  0.00000000000E+00 0.  1.
         -6    2    1    2    0  503  0.11477624714E+03 -0.11005327995E+03 -0.23384208265E+03  0.33103108410E+03  0.17208761630E+03 0.  0.
        -24    2    3    3    0    0  0.18218535320E+02 -0.34718033895E+02 -0.17278763389E+03  0.19410582447E+03  0.79273247450E+02 0.  0.
          6    2    1    2  501    0 -0.11477624714E+03  0.11005327995E+03  0.22183297789E+03  0.32286578939E+03  0.17247358217E+03 0.  0.
         24    2    5    5    0    0 -0.13444830784E+03  0.38314624294E+02  0.15992561052E+03  0.22597390727E+03  0.77095057885E+02 0.  0.
          5    1    5    5  501    0  0.19672060697E+02  0.71738655656E+02  0.61907367365E+02  0.96891882123E+02  0.47000000000E+01 0. -1.
        -13    1    6    6    0    0 -0.53835364282E+02  0.39652405899E+02  0.11669073522E+03  0.13448898627E+03  0.00000000000E+00 0.  1.
         14    1    6    6    0    0 -0.80612943555E+02 -0.13377816049E+01  0.43234875301E+02  0.91484921001E+02  0.00000000000E+00 0. -1.
         -5    1    3    3    0  503  0.96557711821E+02 -0.75335246055E+02 -0.61054448756E+02  0.13692525962E+03  0.47000000000E+01 0.  1.
         13    1    4    4    0    0 -0.79691481374E+01  0.13874302822E+02 -0.39594771965E+01  0.16482750392E+02  0.00000000000E+00 0. -1.
        -14    1    4    4    0    0  0.26187683457E+02 -0.48592336716E+02 -0.16882815670E+03  0.17762307408E+03  0.00000000000E+00 0.  1.
</event>
<event>
12    1  0.8526130E-002  0.2460465E+03  0.7818608E-02  0.1116004E+00
         21   -1    0    0  501  502  0.00000000000E+00  0.00000000000E+00  0.31828523487E+03  0.31828523487E+03  0.00000000000E+00 0. -1.
         21   -1    0    0  502  503 -0.00000000000E+00 -0.00000000000E+00 -0.29518615055E+03  0.29518615055E+03  0.00000000000E+00 0. -1.
         -6    2    1    2    0  503 -0.11408352853E+03  0.13398568507E+03 -0.17208665759E+03  0.30025440906E+03  0.17196417403E+03 0.  0.
        -24    2    3    3    0    0 -0.11886736233E+03  0.16195899372E+03 -0.16204701024E+03  0.26978679376E+03  0.78520793967E+02 0.  0.
          6    2    1    2  501    0  0.11408352853E+03 -0.13398568507E+03  0.19518574191E+03  0.31321697637E+03  0.17041181049E+03 0.  0.
         24    2    5    5    0    0  0.40109864528E+02 -0.25811433869E+02  0.14532913101E+03  0.17292605278E+03  0.80671135244E+02 0.  0.
          5    1    5    5  501    0  0.73973664000E+02 -0.10817425120E+03  0.49856610902E+02  0.14029092358E+03  0.47000000000E+01 0. -1.
        -13    1    6    6    0    0  0.28474241955E+02  0.84599452018E+01  0.77959752320E+01  0.30710427505E+02  0.00000000000E+00 0.  1.
         14    1    6    6    0    0  0.11635622572E+02 -0.34271379070E+02  0.13753315577E+03  0.14221562528E+03  0.00000000000E+00 0. -1.
         -5    1    3    3    0  503  0.47838338018E+01 -0.27973308651E+02 -0.10039647356E+02  0.30467615295E+02  0.47000000000E+01 0.  1.
         11    1    4    4    0    0 -0.20688482407E+02  0.93732862484E+02 -0.67141053617E+02  0.11714001833E+03  0.00000000000E+00 0. -1.
        -12    1    4    4    0    0 -0.98178879923E+02  0.68226131238E+02 -0.94905956622E+02  0.15264677543E+03  0.00000000000E+00 0.  1.
</event>
<event>
12    1  0.8526130E-002  0.2356572E+03  0.7818608E-02  0.1122752E+00
         21   -1    0    0  503  502  0.00000000000E+00  0.00000000000E+00  0.15091330936E+03  0.15091330936E+03  0.00000000000E+00 0.  1.
         21   -1    0    0  501  503 -0.00000000000E+00 -0.00000000000E+00 -0.36929744083E+03  0.36929744083E+03  0.00000000000E+00 0. -1.
          6    2    1    2  501    0  0.15489499878E+03  0.46064060684E+02 -0.12637329190E+03  0.26740328470E+03  0.17152244583E+03 0.  0.
         24    2    3    3    0    0  0.21317158256E+02  0.12384675941E+02 -0.42249340871E+01  0.83230399195E+02  0.79382919119E+02 0.  0.
         -6    2    1    2    0  502 -0.15489499878E+03 -0.46064060684E+02 -0.92010839568E+02  0.25280746550E+03  0.17126371968E+03 0.  0.
        -24    2    5    5    0    0 -0.23203272677E+02 -0.10433956455E+02 -0.77358277509E+02  0.11551579558E+03  0.81928850963E+02 0.  0.
          5    1    3    3  501    0  0.13357784053E+03  0.33679384742E+02 -0.12214835782E+03  0.18417288550E+03  0.47000000000E+01 0. -1.
        -13    1    4    4    0    0  0.13594749694E+02  0.46341740263E+02 -0.20351662032E+01  0.48337521774E+02  0.00000000000E+00 0.  1.
         14    1    4    4    0    0  0.77224085619E+01 -0.33957064321E+02 -0.21897678840E+01  0.34892877421E+02  0.00000000000E+00 0. -1.
         -5    1    5    5    0  502 -0.13169172611E+03 -0.35630104229E+02 -0.14652562059E+02  0.13729166991E+03  0.47000000000E+01 0.  1.
         13    1    6    6    0    0 -0.38495731868E+02  0.22634521624E+02 -0.60948085117E+02  0.75557342599E+02  0.00000000000E+00 0. -1.
        -14    1    6    6    0    0  0.15292459192E+02 -0.33068478079E+02 -0.16410192392E+02  0.39958452985E+02  0.00000000000E+00 0.  1.
</event>
<event>
12    1  0.8526130E-002  0.2012550E+03  0.7818608E-02  0.1148745E+00
         21   -1    0    0  503  502  0.00000000000E+00  0.00000000000E+00  0.35763951080E+03  0.35763951080E+03  0.00000000000E+00 0.  1.
         21   -1    0    0  501  503 -0.00000000000E+00 -0.00000000000E+00 -0.16566848895E+03  0.16566848895E+03  0.00000000000E+00 0. -1.
          6    2    1    2  501    0  0.72992963416E+02  0.73687157379E+02 -0.51370979034E+02  0.20770786927E+03  0.17246974112E+03 0.  0.
         24    2    3    3    0    0  0.91359967347E+02  0.90517792559E+02 -0.78226292444E+02  0.17077664979E+03  0.80654800739E+02 0.  0.
         -6    2    1    2    0  502 -0.72992963416E+02 -0.73687157379E+02  0.24334200089E+03  0.31560013047E+03  0.17213466555E+03 0.  0.
        -24    2    5    5    0    0 -0.11578086794E+03 -0.37442026516E+02  0.17365850380E+03  0.22603231230E+03  0.78270144570E+02 0.  0.
          5    1    3    3  501    0 -0.18367003931E+02 -0.16830635180E+02  0.26855313410E+02  0.36931219480E+02  0.47000000000E+01 0. -1.
        -13    1    4    4    0    0  0.89060828542E+02  0.36157327055E+02 -0.39142613522E+02  0.10378500698E+03  0.00000000000E+00 0.  1.
         14    1    4    4    0    0  0.22991388047E+01  0.54360465504E+02 -0.39083678922E+02  0.66991642816E+02  0.00000000000E+00 0. -1.
         -5    1    5    5    0  502  0.42787904527E+02 -0.36245130863E+02  0.69683497092E+02  0.89567818172E+02  0.47000000000E+01 0.  1.
         11    1    6    6    0    0 -0.20476663443E+02  0.23501997826E+02  0.30959281135E+02  0.43933071096E+02  0.00000000000E+00 0. -1.
        -12    1    6    6    0    0 -0.95304204499E+02 -0.60944024342E+02  0.14269922266E+03  0.18209924120E+03  0.00000000000E+00 0.  1.
</event>
<event>
12    1  0.8526130E-002  0.1729287E+03  0.7818608E-02  0.1175029E+00
         21   -1    0    0  501  502  0.00000000000E+00  0.00000000000E+00  0.39580491600E+03  0.39580491600E+03  0.00000000000E+00 0. -1.
         21   -1    0    0  502  503 -0.00000000000E+00 -0.00000000000E+00 -0.18994013484E+03  0.18994013484E+03  0.00000000000E+00 0. -1.
         -6    2    1    2    0  503 -0.81848819685E+01 -0.63652989230E+01 -0.12459365457E+03  0.21313827834E+03  0.17261760516E+03 0.  0.
        -24    2    3    3    0    0 -0.49163865443E+02  0.23266607609E+02 -0.23744306355E+02  0.10022234498E+03  0.80760792800E+02 0.  0.
          6    2    1    2  501    0  0.81848819685E+01  0.63652989230E+01  0.33045843573E+03  0.37260677251E+03  0.17182991546E+03 0.  0.
         24    2    5    5    0    0  0.52417293958E+02 -0.22663456214E+02  0.11723737477E+03  0.15286946176E+03  0.79770077996E+02 0.  0.
          5    1    5    5  501    0 -0.44232411990E+02  0.29028755137E+02  0.21322106096E+03  0.21973731074E+03  0.47000000000E+01 0. -1.
        -11    1    6    6    0    0  0.76959553031E+01 -0.46466360901E+02  0.50110176295E+02  0.68770489250E+02  0.00000000000E+00 0.  1.
         12    1    6    6    0    0  0.44721338655E+02  0.23802904687E+02  0.67127198477E+02  0.84098972515E+02  0.00000000000E+00 0. -1.
         -5    1    3    3    0  503  0.40978983475E+02 -0.29631906532E+02 -0.10084934821E+03  0.11291593336E+03  0.47000000000E+01 0.  1.
         13    1    4    4    0    0 -0.39018664307E+02  0.53074205251E+02 -0.16689780087E+02  0.67954957043E+02  0.00000000000E+00 0. -1.
        -14    1    4    4    0    0 -0.10145201136E+02 -0.29807597642E+02 -0.70545262679E+01  0.32267387935E+02  0.00000000000E+00 0.  1.
</event>
<event>
12    1  0.8526130E-002  0.2456288E+03  0.7818608E-02  0.1116564E+00
         21   -1    0    0  503  502  0.00000000000E+00  0.00000000000E+00  0.13360986823E+04  0.13360986823E+04  0.00000000000E+00 0.  1.
         21   -1    0    0  501  503 -0.00000000000E+00 -0.00000000000E+00 -0.48324514154E+02  0.48324514154E+02  0.00000000000E+00 0.  1.
          6    2    1    2  501    0 -0.25944996367E+02 -0.17184503681E+03  0.44905514861E+03  0.51047635617E+03  0.16950434861E+03 0.  0.
         24    2    3    3    0    0 -0.82792802060E+02 -0.11192171856E+03  0.29628890995E+03  0.33674641989E+03  0.78929804214E+02 0.  0.
         -6    2    1    2    0  502  0.25944996367E+02  0.17184503681E+03  0.83871901950E+03  0.87394684025E+03  0.17357887662E+03 0.  0.
        -24    2    5    5    0    0  0.44959185610E+02  0.93187369215E+02  0.27285359273E+03  0.30230504746E+03  0.78955965564E+02 0.  0.
          5    1    3    3  501    0  0.56847805693E+02 -0.59923318247E+02  0.15276623867E+03  0.17372993627E+03  0.47000000000E+01 0. -1.
        -11    1    4    4    0    0 -0.41079255199E+02 -0.95590859805E+02  0.14168398006E+03  0.17578244478E+03  0.00000000000E+00 0.  1.
         12    1    4    4    0    0 -0.41713546861E+02 -0.16330858759E+02  0.15460492989E+03  0.16096397512E+03  0.00000000000E+00 0. -1.
         -5    1    5    5    0  502 -0.19014189243E+02  0.78657667596E+02  0.56586542676E+03  0.57164179280E+03  0.47000000000E+01 0.  1.
         13    1    6    6    0    0  0.31618437788E+02  0.10441614706E+03  0.25495507191E+03  0.27731668913E+03  0.00000000000E+00 0. -1.
        -14    1    6    6    0    0  0.13340747822E+02 -0.11228777846E+02  0.17898520823E+02  0.24988358330E+02  0.00000000000E+00 0.  1.
</event>
<event>
12    1  0.8526130E-002  0.1785481E+03  0.7818608E-02  0.1170323E+00
         21   -1    0    0  501  502  0.00000000000E+00  0.00000000000E+00  0.17175348661E+03  0.17175348661E+03  0.00000000000E+00 0. -1.
         21   -1    0    0  502  503 -0.00000000000E+00 -0.00000000000E+00 -0.38092149363E+03  0.38092149363E+03  0.00000000000E+00 0.  1.
         -6    2    1    2    0  503 -0.32416892479E+02  0.35769869742E+02 -0.30414253645E+03  0.35043853009E+03  0.16725472308E+03 0.  0.
        -24    2    3    3    0    0 -0.83581579211E+02  0.11378836534E+02 -0.22072482080E+03  0.24947639385E+03  0.80022910893E+02 0.  0.
          6    2    1    2  501    0  0.32416892479E+02 -0.35769869742E+02  0.94974529432E+02  0.20223645015E+03  0.17189846430E+03 0.  0.
         24    2    5    5    0    0  0.11725128842E+02 -0.55332138090E+02 -0.67918224388E+01  0.96456906764E+02  0.77837535023E+02 0.  0.
          5    1    5    5  501    0  0.20691763638E+02  0.19562268348E+02  0.10176635187E+03  0.10577954338E+03  0.47000000000E+01 0. -1.
        -13    1    6    6    0    0 -0.48434253870E+01  0.13189543824E+02 -0.20289810186E+02  0.24679935842E+02  0.00000000000E+00 0.  1.
         14    1    6    6    0    0  0.16568554229E+02 -0.68521681914E+02  0.13497987747E+02  0.71776970922E+02  0.00000000000E+00 0. -1.
         -5    1    3    3    0  503  0.51164686732E+02  0.24391033208E+02 -0.83417715649E+02  0.10096213624E+03  0.47000000000E+01 0.  1.
         11    1    4    4    0    0 -0.21320501265E+02 -0.62134812416E+01 -0.30816221532E+01  0.22420247956E+02  0.00000000000E+00 0. -1.
        -12    1    4    4    0    0 -0.62261077947E+02  0.17592317775E+02 -0.21764319865E+03  0.22705614590E+03  0.00000000000E+00 0.  1.
</event>
<event>
12    1  0.8526130E-002  0.2304181E+03  0.7818608E-02  0.1126475E+00
         21   -1    0    0  503  502  0.00000000000E+00  0.00000000000E+00  0.49054811851E+02  0.49054811851E+02  0.00000000000E+00 0.  1.
         21   -1    0    0  501  503 -0.00000000000E+00 -0.00000000000E+00 -0.11517061050E+04  0.11517061050E+04  0.00000000000E+00 0. -1.
          6    2    1    2  501    0 -0.70471108227E+02  0.13491713138E+03 -0.70313323142E+03  0.73992488173E+03  0.17298462375E+03 0.  0.
         24    2    3    3    0    0 -0.26093292606E+02 -0.10713413501E+01 -0.21242412314E+03  0.22876954900E+03  0.80805264483E+02 0.  0.
         -6    2    1    2    0  502  0.70471108227E+02 -0.13491713138E+03 -0.39951806172E+03  0.46083603511E+03  0.17200686084E+03 0.  0.
        -24    2    5    5    0    0  0.96739099590E+02 -0.15185530651E+03 -0.33256829065E+03  0.38680042885E+03  0.81206011518E+02 0.  0.
          5    1    3    3  501    0 -0.44377815621E+02  0.13598847273E+03 -0.49070910828E+03  0.51115533273E+03  0.47000000000E+01 0. -1.
        -13    1    4    4    0    0 -0.11085464399E+00  0.21203182695E+02 -0.18121948525E+03  0.18245571814E+03  0.00000000000E+00 0.  1.
         14    1    4    4    0    0 -0.25982437962E+02 -0.22274524045E+02 -0.31204637883E+02  0.46313830864E+02  0.00000000000E+00 0. -1.
         -5    1    5    5    0  502 -0.26267991363E+02  0.16938175136E+02 -0.66949771071E+02  0.74035606256E+02  0.47000000000E+01 0.  1.
         11    1    6    6    0    0  0.10819436347E+02 -0.80257540948E+02 -0.18231345771E+03  0.19949067634E+03  0.00000000000E+00 0. -1.
        -12    1    6    6    0    0  0.85919663243E+02 -0.71597765564E+02 -0.15025483294E+03  0.18730975252E+03  0.00000000000E+00 0.  1.
</event>
<event>
12    1  0.8526130E-002  0.1902571E+03  0.7818608E-02  0.1158493E+00
         21   -1    0    0  503  502  0.00000000000E+00  0.00000000000E+00  0.26988058728E+02  0.26988058728E+02  0.00000000000E+00 0.  1.
         21   -1    0    0  501  503 -0.00000000000E+00 -0.00000000000E+00 -0.24220075389E+04  0.24220075389E+04  0.00000000000E+00 0.  1.
          6    2    1    2  501    0  0.31191603299E+02 -0.75825910786E+02 -0.20206010504E+04  0.20295384666E+04  0.17168371435E+03 0.  0.
         24    2    3    3    0    0  0.36073802418E+02 -0.11667589108E+03 -0.17127712140E+04  0.17189360601E+04  0.79002306549E+02 0.  0.
         -6    2    1    2    0  502 -0.31191603299E+02  0.75825910786E+02 -0.37441842983E+03  0.41945713106E+03  0.17038966911E+03 0.  0.
        -24    2    5    5    0    0  0.39621644170E+02  0.34955595944E+02 -0.27314491697E+03  0.28921384693E+03  0.79023637090E+02 0.  0.
          5    1    3    3  501    0 -0.48821991196E+01  0.40849980296E+02 -0.30782983638E+03  0.31060240650E+03  0.47000000000E+01 0. -1.
        -13    1    4    4    0    0 -0.17267135554E+01 -0.91696266779E+02 -0.13870438863E+04  0.13900726346E+04  0.00000000000E+00 0.  1.
         14    1    4    4    0    0  0.37800515974E+02 -0.24979624303E+02 -0.32572732767E+03  0.32886342549E+03  0.00000000000E+00 0. -1.
         -5    1    5    5    0  502 -0.70813247469E+02  0.40870314842E+02 -0.10127351286E+03  0.13024328413E+03  0.47000000000E+01 0.  1.
         13    1    6    6    0    0  0.22699132432E+02 -0.21460019964E+02 -0.54940671629E+02  0.63200161939E+02  0.00000000000E+00 0. -1.
        -14    1    6    6    0    0  0.16922511738E+02  0.56415615908E+02 -0.21820424534E+03  0.22601368499E+03  0.00000000000E+00 0.  1.
</event>
<event>
12    1  0.8526130E-002  0.3906906E+03  0.7818608E-02  0.1047069E+00
         21   -1    0    0  501  502  0.00000000000E+00  0.00000000000E+00  0.77104230030E+02  0.77104230030E+02  0.00000000000E+00 0. -1.
         21   -1    0    0  502  503 -0.00000000000E+00 -0.00000000000E+00 -0.23877644241E+04  0.23877644241E+04  0.00000000000E+00 0.  1.
         -6    2    1    2    0  503 -0.31451746967E+03  0.15732362871E+03 -0.64542823747E+03  0.75446454673E+03  0.17019747255E+03 0.  0.
        -24    2    3    3    0    0 -0.17601351434E+03  0.13273231359E+03 -0.30015278154E+03  0.38160356876E+03  0.83252430127E+02 0.  0.
          6    2    1    2  501    0  0.31451746967E+03 -0.15732362871E+03 -0.16652319566E+04  0.17104041074E+04  0.16974327222E+03 0.  0.
         24    2    5    5    0    0  0.18427504723E+03 -0.14873621434E+03 -0.12639322199E+04  0.12883846754E+04  0.79565450365E+02 0.  0.
          5    1    5    5  501    0  0.13024242244E+03 -0.85874143750E+01 -0.40129973671E+03  0.42201943198E+03  0.47000000000E+01 0. -1.
        -13    1    6    6    0    0  0.16743123893E+03 -0.14844919069E+03 -0.12332136286E+04  0.12533500053E+04  0.00000000000E+00 0.  1.
         14    1    6    6    0    0  0.16843808304E+02 -0.28702364830E+00 -0.30718591320E+02  0.35034670163E+02  0.00000000000E+00 0. -1.
         -5    1    3    3    0  503 -0.13850395533E+03  0.24591315118E+02 -0.34527545593E+03  0.37286097797E+03  0.47000000000E+01 0.  1.
         13    1    4    4    0    0 -0.95630667919E+02  0.68725020278E+02 -0.91893238341E+02  0.14937442991E+03  0.00000000000E+00 0. -1.
        -14    1    4    4    0    0 -0.80382846420E+02  0.64007293314E+02 -0.20825954320E+03  0.23222913885E+03  0.00000000000E+00 0.  1.
</event>
<event>
12    1  0.8526130E-002  0.1884031E+03  0.7818608E-02  0.1160316E+00
         21   -1    0    0  503  502  0.00000000000E+00  0.00000000000E+00  0.13657464066E+03  0.13657464066E+03  0.00000000000E+00 0.  1.
         21   -1    0    0  501  503 -0.00000000000E+00 -0.00000000000E+00 -0.56151113284E+03  0.56151113284E+03  0.00000000000E+00 0.  1.
          6    2    1    2  501    0 -0.64451426850E+02 -0.33477024271E+02 -0.46977340561E+03  0.50614501588E+03  0.17384195956E+03 0.  0.
         24    2    3    3    0    0 -0.78390007895E+02 -0.92726197485E+01 -0.15894589764E+03  0.19402970553E+03  0.78439489027E+02 0.  0.
         -6    2    1    2    0  502  0.64451426850E+02  0.33477024271E+02  0.44836913435E+02  0.19194075761E+03  0.17191919046E+03 0.  0.
        -24    2    5    5    0    0  0.63908458418E+02  0.52417120292E+02 -0.24050453402E+02  0.12034060844E+03  0.84092759338E+02 0.  0.
          5    1    3    3  501    0  0.13938581045E+02 -0.24204404523E+02 -0.31082750798E+03  0.31211531035E+03  0.47000000000E+01 0. -1.
        -13    1    4    4    0    0 -0.43211538150E+02 -0.11330319806E+02 -0.15158507736E+03  0.15803053140E+03  0.00000000000E+00 0.  1.
         14    1    4    4    0    0 -0.35178469744E+02  0.20577000577E+01 -0.73608202762E+01  0.35999174133E+02  0.00000000000E+00 0. -1.
         -5    1    5    5    0  502  0.54296843253E+00 -0.18940096021E+02  0.68887366837E+02  0.71600149174E+02  0.47000000000E+01 0.  1.
         11    1    6    6    0    0 -0.12641319330E+02  0.32325786772E+02  0.68509164404E+01  0.35379294805E+02  0.00000000000E+00 0. -1.
        -12    1    6    6    0    0  0.76549777748E+02  0.20091333520E+02 -0.30901369842E+02  0.84961313632E+02  0.00000000000E+00 0.  1.
</event>
<event>
12    1  0.8526130E-002  0.2071629E+03  0.7818608E-02  0.1143910E+00
         21   -1    0    0  501  502  0.00000000000E+00  0.00000000000E+00  0.12384790670E+04  0.12384790670E+04  0.00000000000E+00 0. -1.
         21   -1    0    0  502  503 -0.00000000000E+00 -0.00000000000E+00 -0.40962683175E+02  0.40962683175E+02  0.00000000000E+00 0. -1.
         -6    2    1    2    0  503 -0.10805340815E+03 -0.34439354395E+02  0.34593761603E+03  0.40302696374E+03  0.17290543999E+03 0.  0.
        -24    2    3    3    0    0 -0.66886640972E+02  0.15114338554E+02  0.90911171435E+02  0.13994741561E+03  0.81352148548E+02 0.  0.
          6    2    1    2  501    0  0.10805340815E+03  0.34439354395E+02  0.85157876779E+03  0.87641478643E+03  0.17336341013E+03 0.  0.
         24    2    5    5    0    0  0.49787438690E+02 -0.43846090268E+02  0.35388770313E+03  0.36922446723E+03  0.81785891769E+02 0.  0.
          5    1    5    5  501    0  0.58265969455E+02  0.78285444663E+02  0.49769106466E+03  0.50719031919E+03  0.47000000000E+01 0. -1.
        -13    1    6    6    0    0  0.35225731336E+02 -0.61005411696E+02  0.17077410468E+03  0.18473307022E+03  0.00000000000E+00 0.  1.
         14    1    6    6    0    0  0.14561707355E+02  0.17159321428E+02  0.18311359846E+03  0.18449139701E+03  0.00000000000E+00 0. -1.
         -5    1    3    3    0  503 -0.41166767173E+02 -0.49553692949E+02  0.25502644459E+03  0.26307954813E+03  0.47000000000E+01 0.  1.
         13    1    4    4    0    0 -0.46795413111E+02 -0.30044852378E+02  0.36928345887E+02  0.66754824340E+02  0.00000000000E+00 0. -1.
        -14    1    4    4    0    0 -0.20091227861E+02  0.45159190932E+02  0.53982825547E+02  0.73192591269E+02  0.00000000000E+00 0.  1.
</event>
<event>
12    1  0.8526130E-002  0.1977551E+03  0.7818608E-02  0.1152012E+00
         21   -1    0    0  501  502  0.00000000000E+00  0.00000000000E+00  0.24742815545E+03  0.24742815545E+03  0.00000000000E+00 0.  1.
         21   -1    0    0  502  503 -0.00000000000E+00 -0.00000000000E+00 -0.29705123266E+03  0.29705123266E+03  0.00000000000E+00 0. -1.
         -6    2    1    2    0  503  0.63804040271E+02 -0.70589517571E+02 -0.21188514942E+03  0.28867464881E+03  0.17141732927E+03 0.  0.
        -24    2    3    3    0    0  0.70508905030E+02 -0.91353552815E+02 -0.22279513610E+03  0.26383077269E+03  0.81559957378E+02 0.  0.
          6    2    1    2  501    0 -0.63804040271E+02  0.70589517571E+02  0.16226207221E+03  0.25580473930E+03  0.17335872930E+03 0.  0.
         24    2    5    5    0    0 -0.40131974027E+02  0.10663795536E+03  0.10208095860E+03  0.18161772546E+03  0.97888953565E+02 0.  0.
          5    1    5    5  501    0 -0.23672066244E+02 -0.36048437790E+02  0.60181113609E+02  0.74187013840E+02  0.47000000000E+01 0. -1.
        -11    1    6    6    0    0 -0.14396757035E+01  0.70707853805E+02  0.10735110565E+03  0.12855323077E+03  0.00000000000E+00 0.  1.
         12    1    6    6    0    0 -0.38692298324E+02  0.35930101556E+02 -0.52701470504E+01  0.53064494696E+02  0.00000000000E+00 0. -1.
         -5    1    3    3    0  503 -0.67048647586E+01  0.20764035243E+02  0.10909986686E+02  0.24843876117E+02  0.47000000000E+01 0.  1.
         11    1    4    4    0    0  0.82099758494E+02 -0.47446465016E+02 -0.16528089161E+03  0.19055002104E+03  0.00000000000E+00 0. -1.
        -12    1    4    4    0    0 -0.11590853463E+02 -0.43907087799E+02 -0.57514244498E+02  0.73280751655E+02  0.00000000000E+00 0.  1.
</event>
<event>
12    1  0.8526130E-002  0.2013603E+03  0.7818608E-02  0.1148646E+00
         21   -1    0    0  501  502  0.00000000000E+00  0.00000000000E+00  0.16492244623E+04  0.16492244623E+04  0.00000000000E+00 0.  1.
         21   -1    0    0  502  503 -0.00000000000E+00 -0.00000000000E+00 -0.82602995781E+02  0.82602995781E+02  0.00000000000E+00 0. -1.
         -6    2    1    2    0  503 -0.81846707602E+02  0.64387721229E+02  0.57564790126E+02  0.20942699624E+03  0.17234064959E+03 0.  0.
        -24    2    3    3    0    0 -0.36558965319E+02  0.12904565839E+02 -0.34571333141E+02  0.94480703996E+02  0.78919836466E+02 0.  0.
          6    2    1    2  501    0  0.81846707602E+02 -0.64387721229E+02  0.15090566764E+04  0.15224004618E+04  0.17206525348E+03 0.  0.
         24    2    5    5    0    0  0.63357256356E+02 -0.27731837680E+02  0.14233610060E+04  0.14272618706E+04  0.79603374985E+02 0.  0.
          5    1    5    5  501    0  0.18489451246E+02 -0.36655883549E+02  0.85695670393E+02  0.95138591172E+02  0.47000000000E+01 0. -1.
        -13    1    6    6    0    0  0.42447447711E+02 -0.55179918199E+02  0.10521229304E+04  0.10544236671E+04  0.00000000000E+00 0.  1.
         14    1    6    6    0    0  0.20909808645E+02  0.27448080519E+02  0.37123807558E+03  0.37283820349E+03  0.00000000000E+00 0. -1.
         -5    1    3    3    0  503 -0.45287742283E+02  0.51483155389E+02  0.92136123267E+02  0.11494629224E+03  0.47000000000E+01 0.  1.
         13    1    4    4    0    0 -0.55034848467E+02  0.27959823583E+02 -0.14714308666E+02  0.63459413487E+02  0.00000000000E+00 0. -1.
        -14    1    4    4    0    0  0.18475883148E+02 -0.15055257744E+02 -0.19857024475E+02  0.31021290509E+02  0.00000000000E+00 0.  1.
</event>
<event>
12    1  0.8526130E-002  0.2477600E+03  0.7818608E-02  0.1114765E+00
         21   -1    0    0  503  502  0.00000000000E+00  0.00000000000E+00  0.15893339849E+03  0.15893339849E+03  0.00000000000E+00 0.  1.
         21   -1    0    0  501  503 -0.00000000000E+00 -0.00000000000E+00 -0.40447415436E+03  0.40447415436E+03  0.00000000000E+00 0. -1.
          6    2    1    2  501    0 -0.17570648605E+03  0.28727922602E+02 -0.18323416598E+03  0.30815546261E+03  0.17229906203E+03 0.  0.
         24    2    3    3    0    0 -0.18849475905E+03  0.59709087547E+02 -0.16078620651E+03  0.26754298433E+03  0.81434605263E+02 0.  0.
         -6    2    1    2    0  502  0.17570648605E+03 -0.28727922602E+02 -0.62306589893E+02  0.25525209025E+03  0.17196934510E+03 0.  0.
        -24    2    5    5    0    0  0.62721721488E+02 -0.74157219195E+02 -0.33822564462E+02  0.13010095075E+03  0.79680512141E+02 0.  0.
          5    1    3    3  501    0  0.12788272998E+02 -0.30981164945E+02 -0.22447959465E+02  0.40612478276E+02  0.47000000000E+01 0. -1.
        -11    1    4    4    0    0 -0.12084283810E+03  0.26694183043E+02 -0.49721407283E+02  0.13337087115E+03  0.00000000000E+00 0.  1.
         12    1    4    4    0    0 -0.67651920949E+02  0.33014904504E+02 -0.11106479923E+03  0.13417211318E+03  0.00000000000E+00 0. -1.
         -5    1    5    5    0  502  0.11298476456E+03  0.45429296593E+02 -0.28484025430E+02  0.12515113950E+03  0.47000000000E+01 0.  1.
         11    1    6    6    0    0  0.19244739130E+02 -0.44349305943E+02  0.22181427463E+02  0.53190569146E+02  0.00000000000E+00 0. -1.
        -12    1    6    6    0    0  0.43476982358E+02 -0.29807913252E+02 -0.56003991926E+02  0.76910381608E+02  0.00000000000E+00 0.  1.
</event>
<event>
12    1  0.8526130E-002  0.1978661E+03  0.7818608E-02  0.1151562E+00
         21   -1    0    0  503  502  0.00000000000E+00  0.00000000000E+00  0.43616048289E+03  0.43616048289E+03  0.00000000000E+00 0. -1.
         21   -1    0    0  501  503 -0.00000000000E+00 -0.00000000000E+00 -0.12878902453E+03  0.12878902453E+03  0.00000000000E+00 0.  1.
          6    2    1    2  501    0 -0.92538498914E+02  0.28636733706E+02 -0.18639332078E+01  0.19782894868E+03  0.17248009273E+03 0.  0.
         24    2    3    3    0    0 -0.84126212678E+02 -0.10153264528E+02  0.51872021247E+02  0.13085825864E+03  0.85163776490E+02 0.  0.
         -6    2    1    2    0  502  0.92538498914E+02 -0.28636733706E+02  0.30923539157E+03  0.36712055874E+03  0.17253272429E+03 0.  0.
        -24    2    5    5    0    0  0.11889552633E+03  0.10553839617E+02  0.26870746339E+03  0.30470904623E+03  0.79977323398E+02 0.  0.
          5    1    3    3  501    0 -0.84122862356E+01  0.38789998234E+02 -0.53735954455E+02  0.66970690036E+02  0.47000000000E+01 0. -1.
        -11    1    4    4    0    0 -0.73500685631E+02  0.26730191474E+02  0.49163953099E+02  0.92379371122E+02  0.00000000000E+00 0.  1.
         12    1    4    4    0    0 -0.10625527047E+02 -0.36883456001E+02  0.27080681484E+01  0.38478887519E+02  0.00000000000E+00 0. -1.
         -5    1    5    5    0  502 -0.26357027417E+02 -0.39190573323E+02  0.40527928179E+02  0.62411512513E+02  0.47000000000E+01 0.  1.
         11    1    6    6    0    0  0.12628852618E+03 -0.50551048482E+01  0.23798623008E+03  0.26946575225E+03  0.00000000000E+00 0. -1.
        -12    1    6    6    0    0 -0.73929998455E+01  0.15608944465E+02  0.30721233312E+02  0.35243293976E+02  0.00000000000E+00 0.  1.
</event>
<event>
12    1  0.8526130E-002  0.1922301E+03  0.7818608E-02  0.1157128E+00
         21   -1    0    0  503  502  0.00000000000E+00  0.00000000000E+00  0.23691642378E+02  0.23691642378E+02  0.00000000000E+00 0.  1.
         21   -1    0    0  501  503 -0.00000000000E+00 -0.00000000000E+00 -0.15404012736E+04  0.15404012736E+04  0.00000000000E+00 0.  1.
          6    2    1    2  501    0  0.21494461706E+02  0.78324084788E+02 -0.72155074532E+03  0.74671808467E+03  0.17422900376E+03 0.  0.
         24    2    3    3    0    0 -0.15834607947E+02  0.48799680485E+02 -0.66865175335E+03  0.67540508976E+03  0.80279040815E+02 0.  0.
         -6    2    1    2    0  502 -0.21494461706E+02 -0.78324084788E+02 -0.79515888588E+03  0.81737483129E+03  0.17095989849E+03 0.  0.
        -24    2    5    5    0    0  0.50378484987E+02 -0.58473507387E+02 -0.39382832837E+03  0.40914931484E+03  0.79657182929E+02 0.  0.
          5    1    3    3  501    0  0.37329069653E+02  0.29524404304E+02 -0.52898991973E+02  0.71312994906E+02  0.47000000000E+01 0. -1.
        -11    1    4    4    0    0  0.21599460683E+02  0.42457939547E+02 -0.51227968150E+03  0.51448973304E+03  0.00000000000E+00 0.  1.
         12    1    4    4    0    0 -0.37434068630E+02  0.63417409374E+01 -0.15637207185E+03  0.16091535672E+03  0.00000000000E+00 0. -1.
         -5    1    5    5    0  502 -0.71872946693E+02 -0.19850577401E+02 -0.40133055751E+03  0.40822551645E+03  0.47000000000E+01 0.  1.
         11    1    6    6    0    0  0.53751061685E+01  0.16577339127E+02 -0.13056110648E+03  0.13171902848E+03  0.00000000000E+00 0. -1.
        -12    1    6    6    0    0  0.45003378818E+02 -0.75050846514E+02 -0.26326722188E+03  0.27743028635E+03  0.00000000000E+00 0.  1.
</event>
<event>
12    1  0.8526130E-002  0.2105892E+03  0.7818608E-02  0.1141128E+00
         21   -1    0    0  503  502  0.00000000000E+00  0.00000000000E+00  0.46674531643E+03  0.46674531643E+03  0.00000000000E+00 0.  1.
         21   -1    0    0  501  503 -0.00000000000E+00 -0.00000000000E+00 -0.10906607215E+03  0.10906607215E+03  0.00000000000E+00 0.  1.
          6    2    1    2  501    0 -0.11981222647E+03  0.39195504395E+01  0.75217913586E+02  0.22348738453E+03  0.17296977781E+03 0.  0.
         24    2    3    3    0    0 -0.35041889352E+02  0.32860857650E+01 -0.26455045136E+02  0.91026477595E+02  0.79669428523E+02 0.  0.
         -6    2    1    2    0  502  0.11981222647E+03 -0.39195504395E+01  0.28246133069E+03  0.35232400404E+03  0.17314002427E+03 0.  0.
        -24    2    5    5    0    0  0.88819573532E+02  0.49870324840E+02  0.11550994490E+03  0.17414221363E+03  0.81283437767E+02 0.  0.
          5    1    3    3  501    0 -0.84770337114E+02  0.63346467458E+00  0.10167295872E+03  0.13246090694E+03  0.47000000000E+01 0. -1.
        -11    1    4    4    0    0  0.10998871570E+02  0.50900457279E+01 -0.40964608074E+02  0.42719818070E+02  0.00000000000E+00 0.  1.
         12    1    4    4    0    0 -0.46040760922E+02 -0.18039599629E+01  0.14509562938E+02  0.48306659525E+02  0.00000000000E+00 0. -1.
         -5    1    5    5    0  502  0.30992652934E+02 -0.53789875279E+02  0.16695138579E+03  0.17818179041E+03  0.47000000000E+01 0.  1.
         11    1    6    6    0    0  0.56814982656E+01  0.16847110059E+02 -0.97045430539E+01  0.20255436203E+02  0.00000000000E+00 0. -1.
        -12    1    6    6    0    0  0.83138075266E+02  0.33023214781E+02  0.12521448795E+03  0.15388677743E+03  0.00000000000E+00 0.  1.
</event>
<event>
12    1  0.8526130E-002  0.2694144E+03  0.7818608E-02  0.1101638E+00
         21   -1    0    0  503  502  0.00000000000E+00  0.00000000000E+00  0.21062881464E+03  0.21062881464E+03  0.00000000000E+00 0. -1.
         21   -1    0    0  501  503 -0.00000000000E+00 -0.00000000000E+00 -0.43239756233E+03  0.43239756233E+03  0.00000000000E+00 0.  1.
          6    2    1    2  501    0 -0.15177221293E+03 -0.14047775064E+03 -0.25589762236E+03  0.37145886741E+03  0.17242184899E+03 0.  0.
         24    2    3    3    0    0 -0.10703731501E+03 -0.16915639970E+03 -0.20782843797E+03  0.29965070289E+03  0.80789911184E+02 0.  0.
         -6    2    1    2    0  502  0.15177221293E+03  0.14047775064E+03  0.34128874663E+02  0.27156750956E+03  0.17267115891E+03 0.  0.
        -24    2    5    5    0    0  0.14102888415E+03  0.75257036939E+02  0.75201368748E+02  0.19360469548E+03  0.79213410959E+02 0.  0.
          5    1    3    3  501    0 -0.44734897916E+02  0.28678649065E+02 -0.48069184390E+02  0.71808164520E+02  0.47000000000E+01 0. -1.
        -11    1    4    4    0    0 -0.34827209971E+02 -0.30335142952E+02 -0.98414997105E+02  0.10871369328E+03  0.00000000000E+00 0.  1.
         12    1    4    4    0    0 -0.72210105043E+02 -0.13882125675E+03 -0.10941344087E+03  0.19093700961E+03  0.00000000000E+00 0. -1.
         -5    1    5    5    0  502  0.10743328778E+02  0.65220713699E+02 -0.41072494085E+02  0.77962814079E+02  0.47000000000E+01 0.  1.
         13    1    6    6    0    0  0.37222718937E+02 -0.13153585148E+02  0.31228437710E+02  0.50336496989E+02  0.00000000000E+00 0. -1.
        -14    1    6    6    0    0  0.10380616521E+03  0.88410622087E+02  0.43972931039E+02  0.14326819849E+03  0.00000000000E+00 0.  1.
</event>
<event>
12    1  0.8526130E-002  0.2555478E+03  0.7818608E-02  0.1110778E+00
         21   -1    0    0  501  502  0.00000000000E+00  0.00000000000E+00  0.57103102813E+03  0.57103102813E+03  0.00000000000E+00 0.  1.
         21   -1    0    0  502  503 -0.00000000000E+00 -0.00000000000E+00 -0.11340659549E+03  0.11340659549E+03  0.00000000000E+00 0.  1.
         -6    2    1    2    0  503 -0.96124048277E+02 -0.15264608768E+03  0.18420217017E+03  0.31018580719E+03  0.17246487974E+03 0.  0.
        -24    2    3    3    0    0 -0.11388936566E+02 -0.12760667231E+03  0.15724048673E+03  0.21768697556E+03  0.79056169696E+02 0.  0.
          6    2    1    2  501    0  0.96124048277E+02  0.15264608768E+03  0.27342226247E+03  0.37425181642E+03  0.18100836373E+03 0.  0.
         24    2    5    5    0    0  0.97760471006E+02  0.14144094811E+03  0.29396555834E+03  0.35032797816E+03  0.82166241825E+02 0.  0.
          5    1    5    5  501    0 -0.16364227293E+01  0.11205139572E+02 -0.20543295871E+02  0.23923838267E+02  0.47000000000E+01 0. -1.
        -13    1    6    6    0    0  0.82675042613E+02  0.47830177783E+02  0.13891744847E+03  0.16858513003E+03  0.00000000000E+00 0.  1.
         14    1    6    6    0    0  0.15085428393E+02  0.93610770327E+02  0.15504810987E+03  0.18174284812E+03  0.00000000000E+00 0. -1.
         -5    1    3    3    0  503 -0.84735111711E+02 -0.25039415369E+02  0.26961683447E+02  0.92498831630E+02  0.47000000000E+01 0.  1.
         13    1    4    4    0    0  0.30877056047E+02 -0.60913571538E+02  0.50591312302E+02  0.84990215131E+02  0.00000000000E+00 0. -1.
        -14    1    4    4    0    0 -0.42265992613E+02 -0.66693100775E+02  0.10664917442E+03  0.13269676043E+03  0.00000000000E+00 0.  1.
</event>
<event>
12    1  0.8526130E-002  0.2965461E+03  0.7818608E-02  0.1086995E+00
         21   -1    0    0  501  502  0.00000000000E+00  0.00000000000E+00  0.23242370566E+03  0.23242370566E+03  0.00000000000E+00 0. -1.
         21   -1    0    0  502  503 -0.00000000000E+00 -0.00000000000E+00 -0.55460638493E+03  0.55460638493E+03  0.00000000000E+00 0.  1.
         -6    2    1    2    0  503 -0.13729414493E+02  0.24129198255E+03 -0.38300065076E+03  0.48431170145E+03  0.17163335344E+03 0.  0.
        -24    2    3    3    0    0 -0.30178518451E+02  0.11216835160E+03 -0.29508732459E+03  0.32716741104E+03  0.80433224714E+02 0.  0.
          6    2    1    2  501    0  0.13729414493E+02 -0.24129198255E+03  0.60817971496E+02  0.30271838913E+03  0.17184085602E+03 0.  0.
         24    2    5    5    0    0  0.44252864780E+02 -0.51517905228E+02  0.22741046517E+02  0.10671373701E+03  0.79109138971E+02 0.  0.
          5    1    5    5  501    0 -0.30523450288E+02 -0.18977407732E+03  0.38076924979E+02  0.19600465213E+03  0.47000000000E+01 0. -1.
        -11    1    6    6    0    0  0.61435143020E+02 -0.40747070022E+02 -0.31972253069E+01  0.73789042296E+02  0.00000000000E+00 0.  1.
         12    1    6    6    0    0 -0.17182278240E+02 -0.10770835206E+02  0.25938271824E+02  0.32924694710E+02  0.00000000000E+00 0. -1.
         -5    1    3    3    0  503  0.16449103958E+02  0.12912363095E+03 -0.87913326175E+02  0.15714429041E+03  0.47000000000E+01 0.  1.
         11    1    4    4    0    0  0.24764137845E+02  0.59251493970E+02 -0.15219373013E+03  0.16518757082E+03  0.00000000000E+00 0. -1.
        -12    1    4    4    0    0 -0.54942656296E+02  0.52916857629E+02 -0.14289359446E+03  0.16197984023E+03  0.00000000000E+00 0.  1.
</event>
<event>
12    1  0.8526130E-002  0.1925280E+03  0.7818608E-02  0.1156264E+00
         21   -1    0    0  501  502  0.00000000000E+00  0.00000000000E+00  0.15263544984E+04  0.15263544984E+04  0.00000000000E+00 0. -1.
         21   -1    0    0  502  503 -0.00000000000E+00 -0.00000000000E+00 -0.26454270410E+02  0.26454270410E+02  0.00000000000E+00 0. -1.
         -6    2    1    2    0  503 -0.85571419981E+02 -0.48447929831E+01  0.52628294556E+03  0.56039339060E+03  0.17239800899E+03 0.  0.
        -24    2    3    3    0    0 -0.10672431195E+03 -0.27613351007E+02  0.50365982216E+03  0.52166681335E+03  0.79438477939E+02 0.  0.
          6    2    1    2  501    0  0.85571419981E+02  0.48447929831E+01  0.97361728248E+03  0.99241537826E+03  0.17208059253E+03 0.  0.
         24    2    5    5    0    0  0.12489965665E+03 -0.14697443132E+02  0.78473548389E+03  0.79843849038E+03  0.76670099644E+02 0.  0.
          5    1    5    5  501    0 -0.39328236674E+02  0.19542236115E+02  0.18888179859E+03  0.19397688788E+03  0.47000000000E+01 0. -1.
        -13    1    6    6    0    0  0.24504156594E+02  0.10880865855E+02  0.36957632895E+03  0.37054758109E+03  0.00000000000E+00 0.  1.
         14    1    6    6    0    0  0.10039550006E+03 -0.25578308987E+02  0.41515915494E+03  0.42789090929E+03  0.00000000000E+00 0. -1.
         -5    1    3    3    0  503  0.21152891966E+02  0.22768558024E+02  0.22623123395E+02  0.38726577246E+02  0.47000000000E+01 0.  1.
         11    1    4    4    0    0  0.45909091785E+01 -0.20452137674E+02  0.13115871698E+03  0.13282309822E+03  0.00000000000E+00 0. -1.
        -12    1    4    4    0    0 -0.11131522113E+03 -0.71612133333E+01  0.37250110519E+03  0.38884371513E+03  0.00000000000E+00 0.  1.
</event>
<event>
12    1  0.8526130E-002  0.1896785E+03  0.7818608E-02  0.1159521E+00
         21   -1    0    0  501  502  0.00000000000E+00  0.00000000000E+00  0.17500899516E+03  0.17500899516E+03  0.00000000000E+00 0.  1.
         21   -1    0    0  502  503 -0.00000000000E+00 -0.00000000000E+00 -0.27351723876E+03  0.27351723876E+03  0.00000000000E+00 0. -1.
         -6    2    1    2    0  503 -0.70717290223E+02 -0.11951480088E+02 -0.16364799175E+03  0.24797416112E+03  0.17194983678E+03 0.  0.
        -24    2    3    3    0    0 -0.18198405754E+02 -0.22360853181E+02 -0.17413415782E+03  0.19321434052E+03  0.78599533932E+02 0.  0.
          6    2    1    2  501    0  0.70717290223E+02  0.11951480088E+02  0.65139748150E+02  0.20055207280E+03  0.17559662326E+03 0.  0.
         24    2    5    5    0    0  0.65767993710E+02 -0.56374874791E+02  0.57386786936E+02  0.13144936145E+03  0.80511712239E+02 0.  0.
          5    1    5    5  501    0  0.49492965131E+01  0.68326354879E+02  0.77529612136E+01  0.69102711341E+02  0.47000000000E+01 0. -1.
        -11    1    6    6    0    0  0.82025341493E+02 -0.35857964321E+02  0.32236234220E+02  0.95147911427E+02  0.00000000000E+00 0.  1.
         12    1    6    6    0    0 -0.16257347783E+02 -0.20516910471E+02  0.25150552716E+02  0.36301450028E+02  0.00000000000E+00 0. -1.
         -5    1    3    3    0  503 -0.52518884469E+02  0.10409373093E+02  0.10486166071E+02  0.54759820607E+02  0.47000000000E+01 0.  1.
         13    1    4    4    0    0 -0.15808844352E+02  0.26578865102E+02 -0.41037566610E+02  0.51385187585E+02  0.00000000000E+00 0. -1.
        -14    1    4    4    0    0 -0.23895614016E+01 -0.48939718283E+02 -0.13309659121E+03  0.14182915293E+03  0.00000000000E+00 0.  1.
</event>
<event>
12    1  0.8526130E-002  0.2163388E+03  0.7818608E-02  0.1136714E+00
         21   -1    0    0  503  502  0.00000000000E+00  0.00000000000E+00  0.10858543053E+03  0.10858543053E+03  0.00000000000E+00 0. -1.
         21   -1    0    0  501  503 -0.00000000000E+00 -0.00000000000E+00 -0.43051210967E+03  0.43051210967E+03  0.00000000000E+00 0. -1.
          6    2    1    2  501    0 -0.46089217682E+02  0.12205988349E+03 -0.16747681112E+03  0.27358905270E+03  0.17256783116E+03 0.  0.
         24    2    3    3    0    0  0.23083888604E+02  0.11943587764E+03 -0.99281454797E+02  0.17630338745E+03  0.80176569999E+02 0.  0.
         -6    2    1    2    0  502  0.46089217682E+02 -0.12205988349E+03 -0.15444986801E+03  0.26550848750E+03  0.17209638015E+03 0.  0.
        -24    2    5    5    0    0  0.11679522508E+02 -0.13905862691E+03 -0.15906112732E+03  0.22656830116E+03  0.80987899724E+02 0.  0.
          5    1    3    3  501    0 -0.69173106286E+02  0.26240058468E+01 -0.68195356327E+02  0.97285665257E+02  0.47000000000E+01 0. -1.
        -13    1    4    4    0    0  0.38434530374E+02  0.18723404280E+02 -0.19925919977E+02  0.47168011192E+02  0.00000000000E+00 0.  1.
         14    1    4    4    0    0 -0.15350641770E+02  0.10071247336E+03 -0.79355534820E+02  0.12913537625E+03  0.00000000000E+00 0. -1.
         -5    1    5    5    0  502  0.34409695174E+02  0.16998743420E+02  0.46112593079E+01  0.38940186341E+02  0.47000000000E+01 0.  1.
         13    1    6    6    0    0  0.36291321721E+02 -0.54900006772E+02 -0.34685999810E+02  0.74392132371E+02  0.00000000000E+00 0. -1.
        -14    1    6    6    0    0 -0.24611799214E+02 -0.84158620140E+02 -0.12437512751E+03  0.15217616879E+03  0.00000000000E+00 0.  1.
</event>
<event>
12    1  0.8526130E-002  0.1915026E+03  0.7818608E-02  0.1157184E+00
         21   -1    0    0  503  502  0.00000000000E+00  0.00000000000E+00  0.46696763607E+03  0.46696763607E+03  0.00000000000E+00 0. -1.
         21   -1    0    0  501  503 -0.00000000000E+00 -0.00000000000E+00 -0.27439574484E+03  0.27439574484E+03  0.00000000000E+00 0. -1.
          6    2    1    2  501    0  0.67640752012E+02  0.49336945245E+02 -0.21696917042E+03  0.28939399695E+03  0.17223199198E+03 0.  0.
         24    2    3    3    0    0  0.69849106215E+02 -0.58238271756E+01 -0.20738625079E+03  0.23316669050E+03  0.80279723101E+02 0.  0.
         -6    2    1    2    0  502 -0.67640752012E+02 -0.49336945245E+02  0.40954106165E+03  0.45196938396E+03  0.17188088132E+03 0.  0.
        -24    2    5    5    0    0 -0.10726026675E+02 -0.33153267926E+02  0.37194597783E+03  0.38170788882E+03  0.78376751290E+02 0.  0.
          5    1    3    3  501    0 -0.22083542023E+01  0.55160772420E+02 -0.95829196316E+01  0.56227306453E+02  0.47000000000E+01 0. -1.
        -13    1    4    4    0    0 -0.14066991351E+02  0.95163307705E+01 -0.14779336541E+02  0.22513764358E+02  0.00000000000E+00 0.  1.
         14    1    4    4    0    0  0.83916097566E+02 -0.15340157946E+02 -0.19260691425E+03  0.21065292614E+03  0.00000000000E+00 0. -1.
         -5    1    5    5    0  502 -0.56914725337E+02 -0.16183677319E+02  0.37595083819E+02  0.70261495139E+02  0.47000000000E+01 0.  1.
         13    1    6    6    0    0  0.17045688224E+02 -0.50309693782E+02  0.23331886139E+03  0.23928918040E+03  0.00000000000E+00 0. -1.
        -14    1    6    6    0    0 -0.27771714899E+02  0.17156425857E+02  0.13862711643E+03  0.14241870842E+03  0.00000000000E+00 0.  1.
</event>
<event>
12    1  0.8526130E-002  0.2028164E+03  0.7818608E-02  0.1150690E+00
         21   -1    0    0  503  502  0.00000000000E+00  0.00000000000E+00  0.55227012575E+03  0.55227012575E+03  0.00000000000E+00 0.  1.
         21   -1    0    0  501  503 -0.00000000000E+00 -0.00000000000E+00 -0.69102685033E+02  0.69102685033E+02  0.00000000000E+00 0.  1.
          6    2    1    2  501    0 -0.47922345957E+02 -0.56161324883E+02  0.26477531413E+03  0.33352728041E+03  0.18890165206E+03 0.  0.
         24    2    3    3    0    0  0.45968197758E+02 -0.54860699985E+02  0.16272764331E+03  0.19477230593E+03  0.79581364967E+02 0.  0.
         -6    2    1    2    0  502  0.47922345957E+02  0.56161324883E+02  0.21839212658E+03  0.28784553037E+03  0.17236380927E+03 0.  0.
        -24    2    5    5    0    0  0.44050331248E+02  0.97280738350E+02  0.10720153635E+03  0.16913901826E+03  0.75576877186E+02 0.  0.
          5    1    3    3  501    0 -0.93890543715E+02 -0.13006248981E+01  0.10204767082E+03  0.13875497449E+03  0.47000000000E+01 0. -1.
        -11    1    4    4    0    0 -0.61639315208E+01 -0.97388627598E+01 -0.56420741620E+01  0.12832478346E+02  0.00000000000E+00 0.  1.
         12    1    4    4    0    0  0.52132129279E+02 -0.45121837225E+02  0.16836971747E+03  0.18193982758E+03  0.00000000000E+00 0. -1.
         -5    1    5    5    0  502  0.38720147097E+01 -0.41119413467E+02  0.11119059023E+03  0.11870651211E+03  0.47000000000E+01 0.  1.
         13    1    6    6    0    0  0.42325284931E+02  0.10923744467E+02  0.44718215064E+02  0.62533804428E+02  0.00000000000E+00 0. -1.
        -14    1    6    6    0    0  0.17250463165E+01  0.86356993883E+02  0.62483321290E+02  0.10660521383E+03  0.00000000000E+00 0.  1.
</event>
<event>
12    1  0.8526130E-002  0.1983387E+03  0.7818608E-02  0.1151278E+00
         21   -1    0    0  503  502  0.00000000000E+00  0.00000000000E+00  0.84676120840E+02  0.84676120840E+02  0.00000000000E+00 0.  1.
         21   -1    0    0  501  503 -0.00000000000E+00 -0.00000000000E+00 -0.72758154775E+03  0.72758154775E+03  0.00000000000E+00 0.  1.
          6    2    1    2  501    0  0.86093434028E+02  0.46272128035E+02 -0.56597532479E+03  0.59952200084E+03  0.17188767262E+03 0.  0.
         24    2    3    3    0    0  0.10395216397E+03  0.82038539697E+02 -0.38284893111E+03  0.41202390351E+03  0.75193208615E+02 0.  0.
         -6    2    1    2    0  502 -0.86093434028E+02 -0.46272128035E+02 -0.76930102121E+02  0.21273566776E+03  0.17258341319E+03 0.  0.
        -24    2    5    5    0    0 -0.47080924360E+02 -0.80214981192E+02 -0.22485847210E+01  0.12177681864E+03  0.78571501064E+02 0.  0.
          5    1    3    3  501    0 -0.17858729938E+02 -0.35766411662E+02 -0.18312639369E+03  0.18749809733E+03  0.47000000000E+01 0. -1.
        -11    1    4    4    0    0  0.69733489086E+02  0.15459601583E+02 -0.24452313465E+03  0.25474167731E+03  0.00000000000E+00 0.  1.
         12    1    4    4    0    0  0.34218674880E+02  0.66578938114E+02 -0.13832579646E+03  0.15728222620E+03  0.00000000000E+00 0. -1.
         -5    1    5    5    0  502 -0.39012509668E+02  0.33942853157E+02 -0.74681517400E+02  0.90958849114E+02  0.47000000000E+01 0.  1.
         13    1    6    6    0    0  0.19161819007E+02 -0.79440197083E+01 -0.10766235339E+02  0.23370806151E+02  0.00000000000E+00 0. -1.
        -14    1    6    6    0    0 -0.66242743367E+02 -0.72270961484E+02  0.85176506176E+01  0.98406012492E+02  0.00000000000E+00 0.  1.
</event>
<event>
12    1  0.8526130E-002  0.1778800E+03  0.7818608E-02  0.1170613E+00
         21   -1    0    0  501  502  0.00000000000E+00  0.00000000000E+00  0.10352325151E+04  0.10352325151E+04  0.00000000000E+00 0.  1.
         21   -1    0    0  502  503 -0.00000000000E+00 -0.00000000000E+00 -0.42093747950E+02  0.42093747950E+02  0.00000000000E+00 0.  1.
         -6    2    1    2    0  503 -0.98289888136E+01  0.31287002025E+02  0.78767093284E+03  0.80750653138E+03  0.17483081610E+03 0.  0.
        -24    2    3    3    0    0 -0.59281093886E+02 -0.25927561999E+02  0.46559021242E+03  0.47663329659E+03  0.78857890871E+02 0.  0.
          6    2    1    2  501    0  0.98289888136E+01 -0.31287002025E+02  0.20546783428E+03  0.26981973164E+03  0.17178524716E+03 0.  0.
         24    2    5    5    0    0 -0.37362649068E+02 -0.69176515873E+02  0.13838448021E+03  0.17934911576E+03  0.82670932413E+02 0.  0.
          5    1    5    5  501    0  0.47191637882E+02  0.37889513847E+02  0.67083354069E+02  0.90470615885E+02  0.47000000000E+01 0. -1.
        -13    1    6    6    0    0  0.19573777302E+02 -0.29371979965E+02  0.84028258284E+02  0.91140518734E+02  0.00000000000E+00 0.  1.
         14    1    6    6    0    0 -0.56936426370E+02 -0.39804535908E+02  0.54356221928E+02  0.88208597024E+02  0.00000000000E+00 0. -1.
         -5    1    3    3    0  503  0.49452105073E+02  0.57214564024E+02  0.32208072042E+03  0.33087323479E+03  0.47000000000E+01 0.  1.
         11    1    4    4    0    0 -0.13646652800E+02 -0.21294055645E+02  0.36727002692E+03  0.36813983840E+03  0.00000000000E+00 0. -1.
        -12    1    4    4    0    0 -0.45634441087E+02 -0.46335063537E+01  0.98320185492E+02  0.10849345819E+03  0.00000000000E+00 0.  1.
</event>
<event>
12    1  0.8526130E-002  0.2486730E+03  0.7818608E-02  0.1115000E+00
         21   -1    0    0  503  502  0.00000000000E+00  0.00000000000E+00  0.26919914349E+03  0.26919914349E+03  0.00000000000E+00 0. -1.
         21   -1    0    0  501  503 -0.00000000000E+00 -0.00000000000E+00 -0.23266878109E+03  0.23266878109E+03  0.00000000000E+00 0.  1.
          6    2    1    2  501    0  0.16953314428E+03  0.25362801811E+02 -0.27572889342E+02  0.25019692689E+03  0.18014849229E+03 0.  0.
         24    2    3    3    0    0  0.11882241715E+03  0.52909537309E+02 -0.81295980262E+02  0.17121173220E+03  0.76067304936E+02 0.  0.
         -6    2    1    2    0  502 -0.16953314428E+03 -0.25362801811E+02  0.64103251739E+02  0.25167099769E+03  0.17275504469E+03 0.  0.
        -24    2    5    5    0    0 -0.11107487347E+03  0.10039536327E+02  0.10422082731E+03  0.17228457037E+03  0.79884745338E+02 0.  0.
          5    1    3    3  501    0  0.50710727134E+02 -0.27546735498E+02  0.53723090920E+02  0.78985194695E+02  0.47000000000E+01 0. -1.
        -13    1    4    4    0    0  0.23307024856E+02 -0.15319727394E+02  0.91180746857E+00  0.27905964379E+02  0.00000000000E+00 0.  1.
         14    1    4    4    0    0  0.95515392291E+02  0.68229264703E+02 -0.82207787731E+02  0.14330576782E+03  0.00000000000E+00 0. -1.
         -5    1    5    5    0  502 -0.58458270812E+02 -0.35402338138E+02 -0.40117575570E+02  0.79386427314E+02  0.47000000000E+01 0.  1.
         13    1    6    6    0    0  0.38723858254E+00 -0.10413498043E+02  0.41446285382E+02  0.42736231317E+02  0.00000000000E+00 0. -1.
        -14    1    6    6    0    0 -0.11146211205E+03  0.20453034370E+02  0.62774541926E+02  0.12954833905E+03  0.00000000000E+00 0.  1.
</event>
<event>
12    1  0.8526130E-002  0.3106884E+03  0.7818608E-02  0.1080112E+00
         21   -1    0    0  503  502  0.00000000000E+00  0.00000000000E+00  0.36819555316E+03  0.36819555316E+03  0.00000000000E+00 0.  1.
         21   -1    0    0  501  503 -0.00000000000E+00 -0.00000000000E+00 -0.43445704015E+03  0.43445704015E+03  0.00000000000E+00 0.  1.
          6    2    1    2  501    0  0.25929616869E+03  0.88828204199E+01 -0.28632922012E+03  0.42192031225E+03  0.16946657487E+03 0.  0.
         24    2    3    3    0    0  0.20873854842E+03  0.58908212017E+02 -0.25361336469E+03  0.34349180998E+03  0.81393646748E+02 0.  0.
         -6    2    1    2    0  502 -0.25929616869E+03 -0.88828204199E+01  0.22006773313E+03  0.38073228106E+03  0.17092061046E+03 0.  0.
        -24    2    5    5    0    0 -0.53196749434E+02 -0.28523589603E+02  0.42065520977E+02  0.10765791763E+03  0.78595355202E+02 0.  0.
          5    1    3    3  501    0  0.50557620268E+02 -0.50025391597E+02 -0.32715855421E+02  0.78428502265E+02  0.47000000000E+01 0. -1.
        -13    1    4    4    0    0  0.14746994644E+03  0.24830819181E+01 -0.14746241306E+03  0.20856345333E+03  0.00000000000E+00 0.  1.
         14    1    4    4    0    0  0.61268601980E+02  0.56425130099E+02 -0.10615095163E+03  0.13492835665E+03  0.00000000000E+00 0. -1.
         -5    1    5    5    0  502 -0.20609941926E+03  0.19640769183E+02  0.17800221215E+03  0.27307436343E+03  0.47000000000E+01 0.  1.
         13    1    6    6    0    0  0.12410929273E+02 -0.27911703576E+02  0.25989225819E+02  0.40106535884E+02  0.00000000000E+00 0. -1.
        -14    1    6    6    0    0 -0.65607678707E+02 -0.61188602636E+00  0.16076295158E+02  0.67551381746E+02  0.00000000000E+00 0.  1.
</event>
<event>
12    1  0.8526130E-002  0.1743529E+03  0.7818608E-02  0.1173944E+00
         21   -1    0    0  501  502  0.00000000000E+00  0.00000000000E+00  0.76543642804E+03  0.76543642804E+03  0.00000000000E+00 0.  1.
         21   -1    0    0  502  503 -0.00000000000E+00 -0.00000000000E+00 -0.55110269039E+02  0.55110269039E+02  0.00000000000E+00 0.  1.
         -6    2    1    2    0  503 -0.65727297243E+01  0.27192410816E+02  0.57712129479E+03  0.60288300264E+03  0.17209386388E+03 0.  0.
        -24    2    3    3    0    0  0.25495649858E+02  0.56091191295E+02  0.52538668384E+03  0.53533982791E+03  0.82227208907E+02 0.  0.
          6    2    1    2  501    0  0.65727297243E+01 -0.27192410816E+02  0.13320486421E+03  0.21766369444E+03  0.16985676333E+03 0.  0.
         24    2    5    5    0    0 -0.19336335652E+02  0.36379799597E+02  0.30913067918E+02  0.94381874235E+02  0.79088157905E+02 0.  0.
          5    1    5    5  501    0  0.25909065377E+02 -0.63572210413E+02  0.10229179629E+03  0.12328182021E+03  0.47000000000E+01 0. -1.
        -11    1    6    6    0    0  0.26912521558E+02  0.31997907390E+02  0.79481988223E+01  0.42559649416E+02  0.00000000000E+00 0.  1.
         12    1    6    6    0    0 -0.46248857210E+02  0.43818922072E+01  0.22964869096E+02  0.51822224818E+02  0.00000000000E+00 0. -1.
         -5    1    3    3    0  503 -0.32068379583E+02 -0.28898780479E+02  0.51734610953E+02  0.67543174730E+02  0.47000000000E+01 0.  1.
         11    1    4    4    0    0 -0.95289518675E+01  0.43354700473E+02  0.11508522819E+03  0.12334926317E+03  0.00000000000E+00 0. -1.
        -12    1    4    4    0    0  0.35024601726E+02  0.12736490822E+02  0.41030145566E+03  0.41199056474E+03  0.00000000000E+00 0.  1.
</event>
<event>
12    1  0.8526130E-002  0.3600709E+03  0.7818608E-02  0.1058687E+00
         21   -1    0    0  501  502  0.00000000000E+00  0.00000000000E+00  0.67611051052E+03  0.67611051052E+03  0.00000000000E+00 0. -1.
         21   -1    0    0  502  503 -0.00000000000E+00 -0.00000000000E+00 -0.48966463065E+03  0.48966463065E+03  0.00000000000E+00 0.  1.
         -6    2    1    2    0  503  0.26434350704E+03  0.17337245347E+03 -0.36189430359E+03  0.51050809834E+03  0.17238194269E+03 0.  0.
        -24    2    3    3    0    0  0.27124628822E+03  0.13143305247E+03 -0.34344146153E+03  0.46393386594E+03  0.80208467835E+02 0.  0.
          6    2    1    2  501    0 -0.26434350704E+03 -0.17337245347E+03  0.54834018345E+03  0.65526704282E+03  0.16959493884E+03 0.  0.
         24    2    5    5    0    0 -0.27742737413E+03 -0.18287698958E+03  0.52187054719E+03  0.62389419742E+03  0.80530493132E+02 0.  0.
          5    1    5    5  501    0  0.13083867085E+02  0.95045361033E+01  0.26469636266E+02  0.31372845400E+02  0.47000000000E+01 0. -1.
        -11    1    6    6    0    0 -0.27660374557E+02  0.62533791882E+01  0.37095131085E+02  0.46693145344E+02  0.00000000000E+00 0.  1.
         12    1    6    6    0    0 -0.24976699957E+03 -0.18913036876E+03  0.48477541610E+03  0.57720105208E+03  0.00000000000E+00 0. -1.
         -5    1    3    3    0  503 -0.69027811718E+01  0.41939401000E+02 -0.18452842054E+02  0.46574232403E+02  0.47000000000E+01 0.  1.
         11    1    4    4    0    0  0.13006040448E+03  0.20021307857E+02 -0.15762157180E+03  0.20533173520E+03  0.00000000000E+00 0. -1.
        -12    1    4    4    0    0  0.14118588373E+03  0.11141174462E+03 -0.18581988974E+03  0.25860213074E+03  0.00000000000E+00 0.  1.
</event>
<event>
12    1  0.8526130E-002  0.1749485E+03  0.7818608E-02  0.1174566E+00
         21   -1    0    0  503  502  0.00000000000E+00  0.00000000000E+00  0.21291940049E+03  0.21291940049E+03  0.00000000000E+00 0.  1.
         21   -1    0    0  501  503 -0.00000000000E+00 -0.00000000000E+00 -0.17641482838E+03  0.17641482838E+03  0.00000000000E+00 0.  1.
          6    2    1    2  501    0 -0.21494002602E+02  0.18147609142E+02 -0.72743802116E+02  0.18307664356E+03  0.16563233019E+03 0.  0.
         24    2    3    3    0    0  0.37238421180E+01 -0.23807244983E+02 -0.96804384601E+02  0.12833040070E+03  0.80727634384E+02 0.  0.
         -6    2    1    2    0  502  0.21494002602E+02 -0.18147609142E+02  0.10924837422E+03  0.20625758531E+03  0.17267210650E+03 0.  0.
        -24    2    5    5    0    0  0.68989329070E+02  0.27110263968E+02  0.72512473653E+02  0.13092036008E+03  0.79922386791E+02 0.  0.
          5    1    3    3  501    0 -0.25217844720E+02  0.41954854125E+02  0.24060582486E+02  0.54746242853E+02  0.47000000000E+01 0. -1.
        -11    1    4    4    0    0  0.34572646473E+02  0.11923381006E+02 -0.35604311823E+02  0.51040199051E+02  0.00000000000E+00 0.  1.
         12    1    4    4    0    0 -0.30848804355E+02 -0.35730625989E+02 -0.61200072778E+02  0.77290201654E+02  0.00000000000E+00 0. -1.
         -5    1    5    5    0  502 -0.47495326468E+02 -0.45257873111E+02  0.36735900568E+02  0.75337225230E+02  0.47000000000E+01 0.  1.
         13    1    6    6    0    0 -0.16546083182E+02  0.11574870659E+02  0.24003520473E+02  0.31367491046E+02  0.00000000000E+00 0. -1.
        -14    1    6    6    0    0  0.85535412252E+02  0.15535393309E+02  0.48508953180E+02  0.99552869035E+02  0.00000000000E+00 0.  1.
</event>
<event>
12    1  0.8526130E-002  0.1741692E+03  0.7818608E-02  0.1173693E+00
         21   -1    0    0  503  502  0.00000000000E+00  0.00000000000E+00  0.89940324200E+03  0.89940324200E+03  0.00000000000E+00 0.  1.
         21   -1    0    0  501  503 -0.00000000000E+00 -0.00000000000E+00 -0.41763196829E+02  0.41763196829E+02  0.00000000000E+00 0.  1.
          6    2    1    2  501    0 -0.26572297116E+02 -0.10750745246E+02  0.22167537791E+03  0.28191292842E+03  0.17179423896E+03 0.  0.
         24    2    3    3    0    0 -0.15466619411E+02  0.59705656232E+02  0.14850695549E+03  0.17962339511E+03  0.80039156275E+02 0.  0.
         -6    2    1    2    0  502  0.26572297116E+02  0.10750745246E+02  0.63596466726E+03  0.65925351041E+03  0.17129643162E+03 0.  0.
        -24    2    5    5    0    0  0.60069812473E+02 -0.43316143445E+02  0.38862567934E+03  0.40382450475E+03  0.80991612773E+02 0.  0.
          5    1    3    3  501    0 -0.11105677704E+02 -0.70456401478E+02  0.73168422418E+02  0.10228953331E+03  0.47000000000E+01 0. -1.
        -11    1    4    4    0    0 -0.33269304647E+02  0.60909608206E+02  0.14593214616E+03  0.16159522978E+03  0.00000000000E+00 0.  1.
         12    1    4    4    0    0  0.17802685236E+02 -0.12039519739E+01  0.25748093305E+01  0.18028165327E+02  0.00000000000E+00 0. -1.
         -5    1    5    5    0  502 -0.33497515357E+02  0.54066888691E+02  0.24733898791E+03  0.25542900565E+03  0.47000000000E+01 0.  1.
         11    1    6    6    0    0  0.44008313933E+02  0.13295889894E+02  0.11313482823E+03  0.12211880176E+03  0.00000000000E+00 0. -1.
        -12    1    6    6    0    0  0.16061498540E+02 -0.56612033339E+02  0.27549085111E+03  0.28170570300E+03  0.00000000000E+00 0.  1.
</event>
<event>
12    1  0.8526130E-002  0.3002230E+03  0.7818608E-02  0.1085236E+00
         21   -1    0    0  501  502  0.00000000000E+00  0.00000000000E+00  0.54668271755E+03  0.54668271755E+03  0.00000000000E+00 0.  1.
         21   -1    0    0  502  503 -0.00000000000E+00 -0.00000000000E+00 -0.17986156533E+03  0.17986156533E+03  0.00000000000E+00 0.  1.
         -6    2    1    2    0  503 -0.58591023491E+02 -0.23970874791E+03  0.77163554405E+02  0.30998073569E+03  0.17099897812E+03 0.  0.
        -24    2    3    3    0    0  0.11670684962E+02 -0.81673786928E+02  0.74124134941E+02  0.13694003344E+03  0.80320439612E+02 0.  0.
          6    2    1    2  501    0  0.58591023491E+02  0.23970874791E+03  0.28965759782E+03  0.41656354718E+03  0.16950065785E+03 0.  0.
         24    2    5    5    0    0  0.75652326199E+01  0.38245073539E+02  0.10607254172E+03  0.13922475392E+03  0.81315617218E+02 0.  0.
          5    1    5    5  501    0  0.51025790871E+02  0.20146367437E+03  0.18358505610E+03  0.27733879326E+03  0.47000000000E+01 0. -1.
        -13    1    6    6    0    0  0.37199742586E+02  0.13041767150E+02  0.18797921931E+02  0.43672307104E+02  0.00000000000E+00 0.  1.
         14    1    6    6    0    0 -0.29634509966E+02  0.25203306389E+02  0.87274619791E+02  0.95552446821E+02  0.00000000000E+00 0. -1.
         -5    1    3    3    0  503 -0.70261708453E+02 -0.15803496098E+03  0.30394194643E+01  0.17304070225E+03  0.47000000000E+01 0.  1.
         11    1    4    4    0    0 -0.49983024336E+01 -0.92147239076E+02  0.72179611603E+02  0.11715798320E+03  0.00000000000E+00 0. -1.
        -12    1    4    4    0    0  0.16668987396E+02  0.10473452147E+02  0.19445233373E+01  0.19782050240E+02  0.00000000000E+00 0.  1.
</event>
<event>
12    1  0.8526130E-002  0.1878023E+03  0.7818608E-02  0.1160568E+00
         21   -1    0    0  501  502  0.00000000000E+00  0.00000000000E+00  0.24216400064E+03  0.24216400064E+03  0.00000000000E+00 0.  1.
         21   -1    0    0  502  503 -0.00000000000E+00 -0.00000000000E+00 -0.18800848781E+03  0.18800848781E+03  0.00000000000E+00 0. -1.
         -6    2    1    2    0  503  0.42225629495E+02 -0.62300267542E+02 -0.75493041158E+02  0.20196545871E+03  0.17154159882E+03 0.  0.
        -24    2    3    3    0    0 -0.83953456735E+01 -0.89764116044E+02 -0.29120695920E+02  0.12787611734E+03  0.85884853714E+02 0.  0.
          6    2    1    2  501    0 -0.42225629495E+02  0.62300267542E+02  0.12964855399E+03  0.22820702975E+03  0.17206212178E+03 0.  0.
         24    2    5    5    0    0 -0.62244260205E+02 -0.33901744141E+01  0.12479717766E+03  0.15920264154E+03  0.76715737036E+02 0.  0.
          5    1    5    5  501    0  0.20018630710E+02  0.65690441956E+02  0.48513763273E+01  0.69004388210E+02  0.47000000000E+01 0. -1.
        -11    1    6    6    0    0 -0.89899606018E+01 -0.26009909088E+02  0.76772533539E+01  0.28570526447E+02  0.00000000000E+00 0.  1.
         12    1    6    6    0    0 -0.53254299603E+02  0.22619734674E+02  0.11711992431E+03  0.13063211509E+03  0.00000000000E+00 0. -1.
         -5    1    3    3    0  503  0.50620975168E+02  0.27463848502E+02 -0.46372345237E+02  0.74089341368E+02  0.47000000000E+01 0.  1.
         13    1    4    4    0    0  0.36504152770E+02 -0.44124704153E+02 -0.28229587335E+02  0.63847100851E+02  0.00000000000E+00 0. -1.
        -14    1    4    4    0    0 -0.44899498443E+02 -0.45639411891E+02 -0.89110858471E+00  0.64029016490E+02  0.00000000000E+00 0.  1.
</event>
<event>
12    1  0.8526130E-002  0.1755803E+03  0.7818608E-02  0.1172157E+00
         21   -1    0    0  503  502  0.00000000000E+00  0.00000000000E+00  0.29603302472E+03  0.29603302472E+03  0.00000000000E+00 0. -1.
         21   -1    0    0  501  503 -0.00000000000E+00 -0.00000000000E+00 -0.14243210051E+03  0.14243210051E+03  0.00000000000E+00 0. -1.
          6    2    1    2  501    0  0.33696610215E+02  0.40526177962E+01 -0.36894297224E+02  0.17941469987E+03  0.17226885996E+03 0.  0.
         24    2    3    3    0    0  0.18983370474E+02  0.71693638485E+02 -0.33781113945E+01  0.10236139484E+03  0.70470542524E+02 0.  0.
         -6    2    1    2    0  502 -0.33696610215E+02 -0.40526177962E+01  0.19049522144E+03  0.25905042536E+03  0.17224055340E+03 0.  0.
        -24    2    5    5    0    0 -0.48181932928E+02 -0.58907159724E+02  0.97313137595E+02  0.14985410631E+03  0.84822487008E+02 0.  0.
          5    1    3    3  501    0  0.14713239741E+02 -0.67641020689E+02 -0.33516185829E+02  0.77053305030E+02  0.47000000000E+01 0. -1.
        -13    1    4    4    0    0  0.22420644831E+02  0.18211445257E+02  0.28025024692E+02  0.40246044054E+02  0.00000000000E+00 0.  1.
         14    1    4    4    0    0 -0.34372743564E+01  0.53482193227E+02 -0.31403136087E+02  0.62115350788E+02  0.00000000000E+00 0. -1.
         -5    1    5    5    0  502  0.14485322713E+02  0.54854541928E+02  0.93182083844E+02  0.10919631905E+03  0.47000000000E+01 0.  1.
         13    1    6    6    0    0  0.17501541848E+02 -0.42921792109E+02  0.40233096227E+02  0.61378222823E+02  0.00000000000E+00 0. -1.
        -14    1    6    6    0    0 -0.65683474776E+02 -0.15985367615E+02  0.57080041368E+02  0.88475883488E+02  0.00000000000E+00 0.  1.
</event>
<event>
12    1  0.8526130E-002  0.1787423E+03  0.7818608E-02  0.1169112E+00
         21   -1    0    0  503  502  0.00000000000E+00  0.00000000000E+00  0.17746294665E+03  0.17746294665E+03  0.00000000000E+00 0. -1.
         21   -1    0    0  501  503 -0.00000000000E+00 -0.00000000000E+00 -0.18048917344E+03  0.18048917344E+03  0.00000000000E+00 0. -1.
          6    2    1    2  501    0  0.27864165218E+02 -0.40829087993E+02 -0.13525401506E+02  0.17925330964E+03  0.17177132008E+03 0.  0.
         24    2    3    3    0    0  0.50544550399E+02  0.26600152366E+02  0.18996902965E+02  0.10088946201E+03  0.80965928276E+02 0.  0.
         -6    2    1    2    0  502 -0.27864165218E+02  0.40829087993E+02  0.10499174710E+02  0.17869881045E+03  0.17140480173E+03 0.  0.
        -24    2    5    5    0    0 -0.68193665135E+02  0.64830594968E+02 -0.18852460477E+02  0.12314568823E+03  0.77175535337E+02 0.  0.
          5    1    3    3  501    0 -0.22680385181E+02 -0.67429240359E+02 -0.32522304471E+02  0.78363847630E+02  0.47000000000E+01 0. -1.
        -11    1    4    4    0    0  0.46490896041E+02  0.31911782182E+02 -0.21123846365E+02  0.60216128587E+02  0.00000000000E+00 0.  1.
         12    1    4    4    0    0  0.40536543578E+01 -0.53116298170E+01  0.40120749330E+02  0.40673333423E+02  0.00000000000E+00 0. -1.
         -5    1    5    5    0  502  0.40329499917E+02 -0.24001506975E+02  0.29351635187E+02  0.55553122223E+02  0.47000000000E+01 0.  1.
         11    1    6    6    0    0 -0.12805207562E+02  0.64271082543E+02 -0.33222549855E+01  0.65618463638E+02  0.00000000000E+00 0. -1.
        -12    1    6    6    0    0 -0.55388457573E+02  0.55951242479E+00 -0.15530205491E+02  0.57527224590E+02  0.00000000000E+00 0.  1.
</event>
<event>
12    1  0.8526130E-002  0.2339035E+03  0.7818608E-02  0.1124091E+00
         21   -1    0    0  501  502  0.00000000000E+00  0.00000000000E+00  0.38949392470E+03  0.38949392470E+03  0.00000000000E+00 0.  1.
         21   -1    0    0  502  503 -0.00000000000E+00 -0.00000000000E+00 -0.14403572213E+03  0.14403572213E+03  0.00000000000E+00 0.  1.
         -6    2    1    2    0  503  0.92045224067E+02 -0.12803114520E+03  0.77668823892E+02  0.24646153504E+03  0.17276152533E+03 0.  0.
        -24    2    3    3    0    0  0.57704480467E+02  0.34923265604E+01  0.24814307363E+02  0.10053895210E+03  0.78424024563E+02 0.  0.
          6    2    1    2  501    0 -0.92045224067E+02  0.12803114520E+03  0.16778937867E+03  0.28706811179E+03  0.17143665827E+03 0.  0.
         24    2    5    5    0    0 -0.11786634890E+03  0.14267362172E+03  0.13396200960E+03  0.24181865318E+03  0.79260346133E+02 0.  0.
          5    1    5    5  501    0  0.25821124835E+02 -0.14642476528E+02  0.33827369073E+02  0.45249458616E+02  0.47000000000E+01 0. -1.
        -13    1    6    6    0    0 -0.89606093985E+02  0.56514706784E+02  0.97858579482E+02  0.14422019879E+03  0.00000000000E+00 0.  1.
         14    1    6    6    0    0 -0.28260254917E+02  0.86158914939E+02  0.36103430116E+02  0.97598454381E+02  0.00000000000E+00 0. -1.
         -5    1    3    3    0  503  0.34340743600E+02 -0.13152347176E+03  0.52854516529E+02  0.14592258294E+03  0.47000000000E+01 0.  1.
         11    1    4    4    0    0  0.33351594159E+01  0.10119939603E+02  0.41845132570E+02  0.43180453746E+02  0.00000000000E+00 0. -1.
        -12    1    4    4    0    0  0.54369321052E+02 -0.66276130431E+01 -0.17030825207E+02  0.57358498355E+02  0.00000000000E+00 0.  1.
</event>
<event>
12    1  0.8526130E-002  0.1992584E+03  0.7818608E-02  0.1150666E+00
         21   -1    0    0  501  502  0.00000000000E+00  0.00000000000E+00  0.14844690131E+03  0.14844690131E+03  0.00000000000E+00 0.  1.
         21   -1    0    0  502  503 -0.00000000000E+00 -0.00000000000E+00 -0.48833949359E+03  0.48833949359E+03  0.00000000000E+00 0.  1.
         -6    2    1    2    0  503  0.96725254374E+02  0.15097874337E+02 -0.38531923225E+03  0.43379123666E+03  0.17355173759E+03 0.  0.
        -24    2    3    3    0    0  0.23207882582E+02  0.74146612057E+01 -0.33848557073E+03  0.34615952111E+03  0.68266752131E+02 0.  0.
          6    2    1    2  501    0 -0.96725254374E+02 -0.15097874337E+02  0.45426639960E+02  0.20299515825E+03  0.17192944486E+03 0.  0.
         24    2    5    5    0    0 -0.11193730338E+00 -0.18701447063E+02  0.62794342406E+02  0.10465469933E+03  0.81607107542E+02 0.  0.
          5    1    5    5  501    0 -0.96613317071E+02  0.36035727254E+01 -0.17367702445E+02  0.98340458917E+02  0.47000000000E+01 0. -1.
        -11    1    6    6    0    0 -0.27082374806E+02 -0.22635666502E+02 -0.96974088224E+00  0.35309613712E+02  0.00000000000E+00 0.  1.
         12    1    6    6    0    0  0.26970437503E+02  0.39342194388E+01  0.63764083288E+02  0.69345085617E+02  0.00000000000E+00 0. -1.
         -5    1    3    3    0  503  0.73517371792E+02  0.76832131317E+01 -0.46833661515E+02  0.87631715550E+02  0.47000000000E+01 0.  1.
         13    1    4    4    0    0 -0.22303565933E+02 -0.80661888440E+01 -0.13543089071E+03  0.13749195837E+03  0.00000000000E+00 0. -1.
        -14    1    4    4    0    0  0.45511448515E+02  0.15480850050E+02 -0.20305468002E+03  0.20866756274E+03  0.00000000000E+00 0.  1.
</event>
<event>
12    1  0.8526130E-002  0.2644609E+03  0.7818608E-02  0.1106236E+00
         21   -1    0    0  503  502  0.00000000000E+00  0.00000000000E+00  0.29434656846E+03  0.29434656846E+03  0.00000000000E+00 0.  1.
         21   -1    0    0  501  503 -0.00000000000E+00 -0.00000000000E+00 -0.32726274903E+03  0.32726274903E+03  0.00000000000E+00 0. -1.
          6    2    1    2  501    0 -0.17732650959E+03 -0.56324996042E+02 -0.18844393586E+03  0.32473167213E+03  0.18794240007E+03 0.  0.
         24    2    3    3    0    0 -0.78899920113E+02 -0.45730721601E+02 -0.10494502932E+02  0.12104533767E+03  0.78900842127E+02 0.  0.
         -6    2    1    2    0  502  0.17732650959E+03  0.56324996042E+02  0.15552775528E+03  0.29687764536E+03  0.17126078789E+03 0.  0.
        -24    2    5    5    0    0  0.18428369715E+02 -0.22138979024E+01  0.30915934669E+02  0.86578770432E+02  0.78712021437E+02 0.  0.
          5    1    3    3  501    0 -0.98426589472E+02 -0.10594274440E+02 -0.17794943293E+03  0.20368633446E+03  0.47000000000E+01 0. -1.
        -13    1    4    4    0    0  0.79860918712E+01  0.13309774789E+02 -0.60864242939E+00  0.15533776550E+02  0.00000000000E+00 0.  1.
         14    1    4    4    0    0 -0.86886011984E+02 -0.59040496390E+02 -0.98858605022E+01  0.10551156112E+03  0.00000000000E+00 0. -1.
         -5    1    5    5    0  502  0.15889813987E+03  0.58538893944E+02  0.12461182062E+03  0.21029887493E+03  0.47000000000E+01 0.  1.
         13    1    6    6    0    0  0.10791469447E+02  0.35407388913E+02 -0.43047229312E+00  0.37017891739E+02  0.00000000000E+00 0. -1.
        -14    1    6    6    0    0  0.76369002684E+01 -0.37621286815E+02  0.31346406962E+02  0.49560878692E+02  0.00000000000E+00 0.  1.
</event>
<event>
12    1  0.8526130E-002  0.1974237E+03  0.7818608E-02  0.1152747E+00
         21   -1    0    0  501  502  0.00000000000E+00  0.00000000000E+00  0.15963875626E+04  0.15963875626E+04  0.00000000000E+00 0.  1.
         21   -1    0    0  502  503 -0.00000000000E+00 -0.00000000000E+00 -0.11730004342E+03  0.11730004342E+03  0.00000000000E+00 0.  1.
         -6    2    1    2    0  503  0.87522002862E+01  0.94981959219E+02 -0.23368812183E+02  0.19880194855E+03  0.17285236411E+03 0.  0.
        -24    2    3    3    0    0  0.74817910858E+01  0.57678072711E+02 -0.82539983905E+02  0.12868410880E+03  0.79774768229E+02 0.  0.
          6    2    1    2  501    0 -0.87522002862E+01 -0.94981959219E+02  0.15024563314E+04  0.15148856575E+04  0.16853887965E+03 0.  0.
         24    2    5    5    0    0  0.57830543734E+02 -0.69440963174E+02  0.85334998209E+03  0.86185675539E+03  0.80152702527E+02 0.  0.
          5    1    5    5  501    0 -0.66582744020E+02 -0.25540996046E+02  0.64910634926E+03  0.65302890207E+03  0.47000000000E+01 0. -1.
        -13    1    6    6    0    0  0.29391065452E+02  0.82715196141E+01  0.38853286277E+03  0.38973072527E+03  0.00000000000E+00 0.  1.
         14    1    6    6    0    0  0.28439478281E+02 -0.77712482788E+02  0.46481711932E+03  0.47212603012E+03  0.00000000000E+00 0. -1.
         -5    1    3    3    0  503  0.12704092004E+01  0.37303886509E+02  0.59171171723E+02  0.70117839750E+02  0.47000000000E+01 0.  1.
         11    1    4    4    0    0  0.10138567339E+02  0.31468490727E+02 -0.94230989340E+02  0.99862584627E+02  0.00000000000E+00 0. -1.
        -12    1    4    4    0    0 -0.26567762531E+01  0.26209581983E+02  0.11691005435E+02  0.28821524177E+02  0.00000000000E+00 0.  1.
</event>
<event>
12    1  0.8526130E-002  0.2562391E+03  0.7818608E-02  0.1109580E+00
         21   -1    0    0  503  502  0.00000000000E+00  0.00000000000E+00  0.37913184578E+02  0.37913184578E+02  0.00000000000E+00 0. -1.
         21   -1    0    0  501  503 -0.00000000000E+00 -0.00000000000E+00 -0.18092132562E+04  0.18092132562E+04  0.00000000000E+00 0. -1.
          6    2    1    2  501    0 -0.12801594429E+03  0.13857095698E+03 -0.10832792745E+04  0.11129390750E+04  0.17189940646E+03 0.  0.
         24    2    3    3    0    0 -0.76034088610E+02  0.12540503524E+03 -0.50324285604E+03  0.53041028465E+03  0.81080777104E+02 0.  0.
         -6    2    1    2    0  502  0.12801594429E+03 -0.13857095698E+03 -0.68802079711E+03  0.73418736579E+03  0.17340264911E+03 0.  0.
        -24    2    5    5    0    0  0.46410164697E+02 -0.86948963358E+02 -0.20497594013E+03  0.24156300856E+03  0.81385044405E+02 0.  0.
          5    1    3    3  501    0 -0.51981855682E+02  0.13165921732E+02 -0.58003641848E+03  0.58252879034E+03  0.47000000000E+01 0. -1.
        -13    1    4    4    0    0 -0.18750402769E+02  0.28975341045E+02 -0.35909989989E+02  0.49806378845E+02  0.00000000000E+00 0.  1.
         14    1    4    4    0    0 -0.57283685841E+02  0.96429694200E+02 -0.46733286605E+03  0.48060390581E+03  0.00000000000E+00 0. -1.
         -5    1    5    5    0  502  0.81605779594E+02 -0.51621993619E+02 -0.48304485698E+03  0.49262435723E+03  0.47000000000E+01 0.  1.
         13    1    6    6    0    0  0.61180304152E+02 -0.33341849892E+02 -0.89742368153E+02  0.11361514517E+03  0.00000000000E+00 0. -1.
        -14    1    6    6    0    0 -0.14770139454E+02 -0.53607113466E+02 -0.11523357198E+03  0.12794786339E+03  0.00000000000E+00 0.  1.
</event>
<event>
12    1  0.8526130E-002  0.2084062E+03  0.7818608E-02  0.1143823E+00
         21   -1    0    0  501  502  0.00000000000E+00  0.00000000000E+00  0.23975761250E+03  0.23975761250E+03  0.00000000000E+00 0. -1.
         21   -1    0    0  502  503 -0.00000000000E+00 -0.00000000000E+00 -0.38064475013E+03  0.38064475013E+03  0.00000000000E+00 0.  1.
         -6    2    1    2    0  503  0.88522218117E+02  0.57757652664E+02 -0.29697691097E+03  0.36002351233E+03  0.17392387483E+03 0.  0.
        -24    2    3    3    0    0  0.12134118054E+03  0.44043320668E+02 -0.28197604084E+03  0.32113542544E+03  0.83390513101E+02 0.  0.
          6    2    1    2  501    0 -0.88522218117E+02 -0.57757652664E+02  0.15608977334E+03  0.26037885030E+03  0.17961347054E+03 0.  0.
         24    2    5    5    0    0 -0.57819855377E+02 -0.70411271597E+02  0.22272393396E+02  0.12242258793E+03  0.78678762604E+02 0.  0.
          5    1    5    5  501    0 -0.30702362740E+02  0.12653618933E+02  0.13381737994E+03  0.13795626236E+03  0.47000000000E+01 0. -1.
        -13    1    6    6    0    0 -0.20366157590E+02 -0.76032421133E+02  0.29136575287E+02  0.83932410056E+02  0.00000000000E+00 0.  1.
         14    1    6    6    0    0 -0.37453697787E+02  0.56211495355E+01 -0.68641818908E+01  0.38490177877E+02  0.00000000000E+00 0. -1.
         -5    1    3    3    0  503 -0.32818962427E+02  0.13714331996E+02 -0.15000870135E+02  0.38888086886E+02  0.47000000000E+01 0.  1.
         13    1    4    4    0    0  0.30266763675E+01  0.11478431397E+02  0.17591610220E+01  0.12000408521E+02  0.00000000000E+00 0. -1.
        -14    1    4    4    0    0  0.11831450418E+03  0.32564889271E+02 -0.28373520186E+03  0.30913501692E+03  0.00000000000E+00 0.  1.
</event>
<event>
12    1  0.8526130E-002  0.2081424E+03  0.7818608E-02  0.1143128E+00
         21   -1    0    0  503  502  0.00000000000E+00  0.00000000000E+00  0.38484695442E+03  0.38484695442E+03  0.00000000000E+00 0.  1.
         21   -1    0    0  501  503 -0.00000000000E+00 -0.00000000000E+00 -0.12189035116E+03  0.12189035116E+03  0.00000000000E+00 0. -1.
          6    2    1    2  501    0 -0.42837066550E+02  0.10906627404E+03  0.20248447374E+03  0.29038462481E+03  0.17202558477E+03 0.  0.
         24    2    3    3    0    0 -0.80619456844E+02  0.11807128024E+03  0.13391365431E+03  0.21143751321E+03  0.79577830728E+02 0.  0.
         -6    2    1    2    0  502  0.42837066550E+02 -0.10906627404E+03  0.60472129523E+02  0.21635268078E+03  0.17152590949E+03 0.  0.
        -24    2    5    5    0    0 -0.14625494523E+02 -0.13319654435E+02 -0.94714168227E+01  0.84505986593E+02  0.81610267425E+02 0.  0.
          5    1    3    3  501    0  0.37782390294E+02 -0.90050061923E+01  0.68570819430E+02  0.78947111601E+02  0.47000000000E+01 0. -1.
        -11    1    4    4    0    0 -0.67830189743E+02  0.31317980897E+02  0.74542726256E+02  0.10553846979E+03  0.00000000000E+00 0.  1.
         12    1    4    4    0    0 -0.12789267101E+02  0.86753299338E+02  0.59370928051E+02  0.10589904342E+03  0.00000000000E+00 0. -1.
         -5    1    5    5    0  502  0.57462561074E+02 -0.95746619608E+02  0.69943546346E+02  0.13184669418E+03  0.47000000000E+01 0.  1.
         11    1    6    6    0    0 -0.22460167787E+02 -0.43597569823E+02  0.63576152728E+01  0.49453275963E+02  0.00000000000E+00 0. -1.
        -12    1    6    6    0    0  0.78346732639E+01  0.30277915389E+02 -0.15829032096E+02  0.35052710630E+02  0.00000000000E+00 0.  1.
</event>
<event>
12    1  0.8526130E-002  0.1864126E+03  0.7818608E-02  0.1161930E+00
         21   -1    0    0  503  502  0.00000000000E+00  0.00000000000E+00  0.37810403326E+03  0.37810403326E+03  0.00000000000E+00 0. -1.
         21   -1    0    0  501  503 -0.00000000000E+00 -0.00000000000E+00 -0.14507665280E+03  0.14507665280E+03  0.00000000000E+00 0. -1.
          6    2    1    2  501    0  0.13770503392E+02 -0.71678035931E+02  0.27565294001E+03  0.33276746527E+03  0.17152922495E+03 0.  0.
         24    2    3    3    0    0  0.72370882224E+02 -0.25806425311E+02  0.14363415511E+03  0.18114537379E+03  0.79242411314E+02 0.  0.
         -6    2    1    2    0  502 -0.13770503392E+02  0.71678035931E+02 -0.42625559547E+02  0.19041322078E+03  0.17062499443E+03 0.  0.
        -24    2    5    5    0    0 -0.48126178580E+02  0.65765563887E+02  0.23848467335E+02  0.11520580098E+03  0.77861342960E+02 0.  0.
          5    1    3    3  501    0 -0.58600378832E+02 -0.45871610620E+02  0.13201878490E+03  0.15162209148E+03  0.47000000000E+01 0. -1.
        -13    1    4    4    0    0  0.14450096437E+02 -0.40997600958E+02  0.30373012195E+02  0.53029505383E+02  0.00000000000E+00 0.  1.
         14    1    4    4    0    0  0.57920785788E+02  0.15191175648E+02  0.11326114292E+03  0.12811586841E+03  0.00000000000E+00 0. -1.
         -5    1    5    5    0  502  0.34355675188E+02  0.59124720433E+01 -0.66474026883E+02  0.75207419802E+02  0.47000000000E+01 0.  1.
         11    1    6    6    0    0  0.39209002535E+01  0.56682222407E+02 -0.98635725484E+00  0.56826232467E+02  0.00000000000E+00 0. -1.
        -12    1    6    6    0    0 -0.52047078833E+02  0.90833414807E+01  0.24834824590E+02  0.58379568515E+02  0.00000000000E+00 0.  1.
</event>
<event>
12    1  0.8526130E-002  0.2161536E+03  0.7818608E-02  0.1137033E+00
         21   -1    0    0  503  502  0.00000000000E+00  0.00000000000E+00  0.26630493796E+03  0.26630493796E+03  0.00000000000E+00 0. -1.
         21   -1    0    0  501  503 -0.00000000000E+00 -0.00000000000E+00 -0.18367964419E+03  0.18367964419E+03  0.00000000000E+00 0. -1.
          6    2    1    2  501    0  0.11351924806E+03  0.63052830611E+02  0.92031224585E+02  0.23493002464E+03  0.17280072643E+03 0.  0.
         24    2    3    3    0    0  0.60921773499E+02  0.27255681629E+02 -0.20373164458E+02  0.10568310251E+03  0.79369500811E+02 0.  0.
         -6    2    1    2    0  502 -0.11351924806E+03 -0.63052830611E+02 -0.94059308074E+01  0.21505455751E+03  0.17116574436E+03 0.  0.
        -24    2    5    5    0    0 -0.85078782309E+02 -0.40446576768E+02 -0.70709130463E+02  0.14363974747E+03  0.82208704835E+02 0.  0.
          5    1    3    3  501    0  0.52597474557E+02  0.35797148982E+02  0.11240438904E+03  0.12924692213E+03  0.47000000000E+01 0. -1.
        -11    1    4    4    0    0  0.65558718960E+02  0.66149517889E+01 -0.39785277828E+02  0.76971238464E+02  0.00000000000E+00 0.  1.
         12    1    4    4    0    0 -0.46369454617E+01  0.20640729840E+02  0.19412113370E+02  0.28711864046E+02  0.00000000000E+00 0. -1.
         -5    1    5    5    0  502 -0.28440465746E+02 -0.22606253843E+02  0.61303199656E+02  0.71414810038E+02  0.47000000000E+01 0.  1.
         11    1    6    6    0    0  0.76511937709E+01 -0.30785961343E+02 -0.15791693891E+02  0.35435769751E+02  0.00000000000E+00 0. -1.
        -12    1    6    6    0    0 -0.92729976080E+02 -0.96606154247E+01 -0.54917436573E+02  0.10820397772E+03  0.00000000000E+00 0.  1.
</event>
<event>
12    1  0.8526130E-002  0.2250920E+03  0.7818608E-02  0.1130343E+00
         21   -1    0    0  503  502  0.00000000000E+00  0.00000000000E+00  0.61279496498E+03  0.61279496498E+03  0.00000000000E+00 0. -1.
         21   -1    0    0  501  503 -0.00000000000E+00 -0.00000000000E+00 -0.17012903372E+03  0.17012903372E+03  0.00000000000E+00 0.  1.
          6    2    1    2  501    0 -0.12189894371E+03 -0.61464227651E+02 -0.59709147567E+02  0.23287679335E+03  0.17896707748E+03 0.  0.
         24    2    3    3    0    0 -0.12418070751E+03 -0.95059519669E+02 -0.80283244289E+02  0.19313722179E+03  0.79996416993E+02 0.  0.
         -6    2    1    2    0  502  0.12189894371E+03  0.61464227651E+02  0.50237507882E+03  0.55004720535E+03  0.17757816457E+03 0.  0.
        -24    2    5    5    0    0  0.11744141738E+03  0.97336616414E+02  0.31360534242E+03  0.35779008273E+03  0.79990806308E+02 0.  0.
          5    1    3    3  501    0  0.22817637987E+01  0.33595292018E+02  0.20574096722E+02  0.39739571559E+02  0.47000000000E+01 0. -1.
        -13    1    4    4    0    0 -0.24529942153E+02 -0.10184157824E+01 -0.45613076440E+02  0.51800656126E+02  0.00000000000E+00 0.  1.
         14    1    4    4    0    0 -0.99650765356E+02 -0.94041103886E+02 -0.34670167849E+02  0.14133656567E+03  0.00000000000E+00 0. -1.
         -5    1    5    5    0  502  0.44575263275E+01 -0.35872388763E+02  0.18876973641E+03  0.19225712262E+03  0.47000000000E+01 0.  1.
         11    1    6    6    0    0  0.47290170525E+02  0.42564612278E+02  0.21832922870E+03  0.22741099040E+03  0.00000000000E+00 0. -1.
        -12    1    6    6    0    0  0.70151246858E+02  0.54772004136E+02  0.95276113713E+02  0.13037909233E+03  0.00000000000E+00 0.  1.
</event>
<event>
12    1  0.8526130E-002  0.1929034E+03  0.7818608E-02  0.1157758E+00
         21   -1    0    0  501  502  0.00000000000E+00  0.00000000000E+00  0.37566918337E+02  0.37566918337E+02  0.00000000000E+00 0.  1.
         21   -1    0    0  502  503 -0.00000000000E+00 -0.00000000000E+00 -0.99983675229E+03  0.99983675229E+03  0.00000000000E+00 0.  1.
         -6    2    1    2    0  503 -0.35210081982E+02 -0.71585242165E+02 -0.37331912551E+03  0.42021291585E+03  0.17563464465E+03 0.  0.
        -24    2    3    3    0    0  0.54273951604E+00 -0.96859663162E+02 -0.34575062057E+03  0.36825934940E+03  0.81788555946E+02 0.  0.
          6    2    1    2  501    0  0.35210081982E+02  0.71585242165E+02 -0.58895070844E+03  0.61719075478E+03  0.16642504031E+03 0.  0.
         24    2    5    5    0    0  0.71519673850E+02  0.63918502484E+02 -0.54520980428E+03  0.55963624101E+03  0.82087470753E+02 0.  0.
          5    1    5    5  501    0 -0.36309591868E+02  0.76667396812E+01 -0.43740904157E+02  0.57554513771E+02  0.47000000000E+01 0. -1.
        -11    1    6    6    0    0  0.29562109968E+02  0.33937058062E+02 -0.81785398111E+02  0.93351452050E+02  0.00000000000E+00 0.  1.
         12    1    6    6    0    0  0.41957563882E+02  0.29981444421E+02 -0.46342440617E+03  0.46628478896E+03  0.00000000000E+00 0. -1.
         -5    1    3    3    0  503 -0.35752821498E+02  0.25274420997E+02 -0.27568504946E+02  0.51953566448E+02  0.47000000000E+01 0.  1.
         13    1    4    4    0    0  0.14166180149E+02  0.36528880927E+01 -0.10519379499E+02  0.18018923289E+02  0.00000000000E+00 0. -1.
        -14    1    4    4    0    0 -0.13623440633E+02 -0.10051255125E+03 -0.33523124107E+03  0.35024042611E+03  0.00000000000E+00 0.  1.
</event>
<event>
12    1  0.8526130E-002  0.1877734E+03  0.7818608E-02  0.1160655E+00
         21   -1    0    0  501  502  0.00000000000E+00  0.00000000000E+00  0.13050298124E+03  0.13050298124E+03  0.00000000000E+00 0.  1.
         21   -1    0    0  502  503 -0.00000000000E+00 -0.00000000000E+00 -0.28451080917E+03  0.28451080917E+03  0.00000000000E+00 0.  1.
         -6    2    1    2    0  503 -0.21903291936E+02 -0.73305703185E+02 -0.12513520408E+03  0.22503361591E+03  0.17066876889E+03 0.  0.
        -24    2    3    3    0    0 -0.22363666838E+02  0.17405782288E+02 -0.20205826341E+02  0.86249431460E+02  0.78915107283E+02 0.  0.
          6    2    1    2  501    0  0.21903291936E+02  0.73305703185E+02 -0.28872623850E+02  0.18998017450E+03  0.17147990546E+03 0.  0.
         24    2    5    5    0    0  0.14336871120E+02 -0.28421454391E+02 -0.24119394651E+02  0.87753228439E+02  0.78138076249E+02 0.  0.
          5    1    5    5  501    0  0.75664208165E+01  0.10172715758E+03 -0.47532291992E+01  0.10222694606E+03  0.47000000000E+01 0. -1.
        -11    1    6    6    0    0 -0.22163708321E+02  0.82820941046E+01  0.10073971519E+02  0.25715908529E+02  0.00000000000E+00 0.  1.
         12    1    6    6    0    0  0.36500579441E+02 -0.36703548496E+02 -0.34193366169E+02  0.62037319910E+02  0.00000000000E+00 0. -1.
         -5    1    3    3    0  503  0.46037490169E+00 -0.90711485472E+02 -0.10492937774E+03  0.13878418445E+03  0.47000000000E+01 0.  1.
         11    1    4    4    0    0 -0.33660612847E+02 -0.14430846927E+02  0.13017440968E+02  0.38868238571E+02  0.00000000000E+00 0. -1.
        -12    1    4    4    0    0  0.11296946009E+02  0.31836629214E+02 -0.33223267310E+02  0.47381192889E+02  0.00000000000E+00 0.  1.
</event>
<event>
12    1  0.8526130E-002  0.2002918E+03  0.7818608E-02  0.1149805E+00
         21   -1    0    0  503  502  0.00000000000E+00  0.00000000000E+00  0.44951051145E+02  0.44951051145E+02  0.00000000000E+00 0.  1.
         21   -1    0    0  501  503 -0.00000000000E+00 -0.00000000000E+00 -0.14648982801E+04  0.14648982801E+04  0.00000000000E+00 0.  1.
          6    2    1    2  501    0 -0.61496611045E+02  0.79210142986E+02 -0.11861742623E+04  0.12029655860E+04  0.17338033540E+03 0.  0.
         24    2    3    3    0    0 -0.49193558311E+02  0.45588015821E+02 -0.11385635527E+04  0.11432104004E+04  0.78133108523E+02 0.  0.
         -6    2    1    2    0  502  0.61496611045E+02 -0.79210142986E+02 -0.23377296661E+03  0.30688374518E+03  0.17167339110E+03 0.  0.
        -24    2    5    5    0    0  0.10195999084E+03 -0.87046243667E+02 -0.19857714427E+03  0.25248222416E+03  0.79633554615E+02 0.  0.
          5    1    3    3  501    0 -0.12303052734E+02  0.33622127165E+02 -0.47610709565E+02  0.59755185607E+02  0.47000000000E+01 0. -1.
        -13    1    4    4    0    0 -0.69422087448E+02  0.29959126228E+02 -0.93408042305E+03  0.93713564237E+03  0.00000000000E+00 0.  1.
         14    1    4    4    0    0  0.20228529137E+02  0.15628889593E+02 -0.20448312970E+03  0.20607475807E+03  0.00000000000E+00 0. -1.
         -5    1    5    5    0  502 -0.40463379797E+02  0.78361006815E+01 -0.35195822342E+02  0.54401521016E+02  0.47000000000E+01 0.  1.
         13    1    6    6    0    0  0.70739638745E+01 -0.88676382353E+01 -0.82902631091E+02  0.83675099131E+02  0.00000000000E+00 0. -1.
        -14    1    6    6    0    0  0.94886026968E+02 -0.78178605432E+02 -0.11567451318E+03  0.16880712503E+03  0.00000000000E+00 0.  1.
</event>
<event>
12    1  0.8526130E-002  0.1983077E+03  0.7818608E-02  0.1151353E+00
         21   -1    0    0  501  502  0.00000000000E+00  0.00000000000E+00  0.52151712480E+03  0.52151712480E+03  0.00000000000E+00 0. -1.
         21   -1    0    0  502  503 -0.00000000000E+00 -0.00000000000E+00 -0.84023953070E+02  0.84023953070E+02  0.00000000000E+00 0. -1.
         -6    2    1    2    0  503  0.45556816806E+02  0.87839741916E+02  0.11961015769E+03  0.23087384595E+03  0.17089440922E+03 0.  0.
        -24    2    3    3    0    0  0.88269557221E+02  0.13043203489E+02  0.92888481876E+02  0.14056859520E+03  0.56299378347E+02 0.  0.
          6    2    1    2  501    0 -0.45556816806E+02 -0.87839741916E+02  0.31788301404E+03  0.37466723192E+03  0.17185656881E+03 0.  0.
         24    2    5    5    0    0  0.38032202911E+02 -0.29788707026E+02  0.19075761952E+03  0.21175620467E+03  0.78220235779E+02 0.  0.
          5    1    5    5  501    0 -0.83589019717E+02 -0.58051034890E+02  0.12712539452E+03  0.16291102725E+03  0.47000000000E+01 0. -1.
        -13    1    6    6    0    0  0.60186351822E+02 -0.34121316708E+02  0.14929453181E+03  0.16454640205E+03  0.00000000000E+00 0.  1.
         14    1    6    6    0    0 -0.22154148910E+02  0.43326096821E+01  0.41463087713E+02  0.47209802618E+02  0.00000000000E+00 0. -1.
         -5    1    3    3    0  503 -0.42712740415E+02  0.74796538428E+02  0.26721675816E+02  0.90305250750E+02  0.47000000000E+01 0.  1.
         11    1    4    4    0    0  0.96793290718E+01  0.24161523822E+02  0.20295866545E+02  0.33005921340E+02  0.00000000000E+00 0. -1.
        -12    1    4    4    0    0  0.78590228149E+02 -0.11118320333E+02  0.72592615331E+02  0.10756267386E+03  0.00000000000E+00 0.  1.
</event>
<event>
12    1  0.8526130E-002  0.2008317E+03  0.7818608E-02  0.1149910E+00
         21   -1    0    0  503  502  0.00000000000E+00  0.00000000000E+00  0.71612485718E+02  0.71612485718E+02  0.00000000000E+00 0.  1.
         21   -1    0    0  501  503 -0.00000000000E+00 -0.00000000000E+00 -0.55286586719E+03  0.55286586719E+03  0.00000000000E+00 0. -1.
          6    2    1    2  501    0  0.70616422436E+02 -0.71900690783E+02 -0.25212663058E+03  0.31979419670E+03  0.16894999835E+03 0.  0.
         24    2    3    3    0    0  0.80159486540E+02 -0.89297733365E+02 -0.12550759927E+03  0.19154367525E+03  0.80852913281E+02 0.  0.
         -6    2    1    2    0  502 -0.70616422436E+02  0.71900690783E+02 -0.22912675089E+03  0.30468415620E+03  0.17371522275E+03 0.  0.
        -24    2    5    5    0    0  0.37592120948E+02  0.46947277395E+00 -0.55923909539E+02  0.88275233054E+02  0.57023198355E+02 0.  0.
          5    1    3    3  501    0 -0.95430641033E+01  0.17397042582E+02 -0.12661903131E+03  0.12825052146E+03  0.47000000000E+01 0. -1.
        -13    1    4    4    0    0  0.36859050667E+02  0.60705255102E+01 -0.50056853809E+02  0.62459022641E+02  0.00000000000E+00 0.  1.
         14    1    4    4    0    0  0.43300435873E+02 -0.95368258875E+02 -0.75450745463E+02  0.12908465261E+03  0.00000000000E+00 0. -1.
         -5    1    5    5    0  502 -0.10820854338E+03  0.71431218009E+02 -0.17320284135E+03  0.21640892315E+03  0.47000000000E+01 0.  1.
         13    1    6    6    0    0  0.31759364226E+02  0.23843752306E+02 -0.49268768631E+02  0.63281856029E+02  0.00000000000E+00 0. -1.
        -14    1    6    6    0    0  0.58327567218E+01 -0.23374279532E+02 -0.66551409077E+01  0.24993377025E+02  0.00000000000E+00 0.  1.
</event>
<event>
12    1  0.8526130E-002  0.1773905E+03  0.7818608E-02  0.1170529E+00
         21   -1    0    0  503  502  0.00000000000E+00  0.00000000000E+00  0.36197840280E+03  0.36197840280E+03  0.00000000000E+00 0.  1.
         21   -1    0    0  501  503 -0.00000000000E+00 -0.00000000000E+00 -0.36050888753E+03  0.36050888753E+03  0.00000000000E+00 0.  1.
          6    2    1    2  501    0 -0.28562075816E+02  0.16166041859E+02 -0.31415576124E+03  0.36042830805E+03  0.17360181405E+03 0.  0.
         24    2    3    3    0    0  0.13584829186E+02  0.71120162075E+02 -0.19927879814E+03  0.22620787898E+03  0.78837428205E+02 0.  0.
         -6    2    1    2    0  502  0.28562075816E+02 -0.16166041859E+02  0.31562527651E+03  0.36205898227E+03  0.17432801952E+03 0.  0.
        -24    2    5    5    0    0  0.34532813191E+01  0.60202241644E+02  0.15476604914E+03  0.18216916234E+03  0.74812022366E+02 0.  0.
          5    1    3    3  501    0 -0.42146905002E+02 -0.54954120216E+02 -0.11487696310E+03  0.13422042908E+03  0.47000000000E+01 0. -1.
        -11    1    4    4    0    0  0.24292840990E+02 -0.35057020469E+01 -0.91114593422E+02  0.94362604907E+02  0.00000000000E+00 0.  1.
         12    1    4    4    0    0 -0.10708011804E+02  0.74625864122E+02 -0.10816420472E+03  0.13184527407E+03  0.00000000000E+00 0. -1.
         -5    1    5    5    0  502  0.25108794497E+02 -0.76368283503E+02  0.16085922737E+03  0.17988981994E+03  0.47000000000E+01 0.  1.
         11    1    6    6    0    0 -0.84379074553E+00  0.53735618708E+02  0.39635850758E+02  0.66777461512E+02  0.00000000000E+00 0. -1.
        -12    1    6    6    0    0  0.42970720646E+01  0.64666229364E+01  0.11513019838E+03  0.11539170083E+03  0.00000000000E+00 0.  1.
</event>
<event>
12    1  0.8526130E-002  0.2009146E+03  0.7818608E-02  0.1149120E+00
         21   -1    0    0  503  502  0.00000000000E+00  0.00000000000E+00  0.15897627488E+04  0.15897627488E+04  0.00000000000E+00 0. -1.
         21   -1    0    0  501  503 -0.00000000000E+00 -0.00000000000E+00 -0.41793879002E+02  0.41793879002E+02  0.00000000000E+00 0. -1.
          6    2    1    2  501    0 -0.27765739210E+00 -0.97947020759E+02  0.26069214673E+03  0.32869515348E+03  0.17460358698E+03 0.  0.
         24    2    3    3    0    0 -0.51779547861E+02 -0.20574344192E+02  0.76910274347E+02  0.12269310879E+03  0.77678719275E+02 0.  0.
         -6    2    1    2    0  502  0.27765739210E+00  0.97947020759E+02  0.12872767231E+04  0.13028614744E+04  0.17542224360E+03 0.  0.
        -24    2    5    5    0    0  0.63096988008E+02  0.31918557625E+02  0.82525605488E+03  0.83191432858E+03  0.77677987720E+02 0.  0.
          5    1    3    3  501    0  0.51501890469E+02 -0.77372676567E+02  0.18378187239E+03  0.20600204470E+03  0.47000000000E+01 0. -1.
        -11    1    4    4    0    0 -0.59256630934E+02  0.11412878912E+02  0.36156093283E+02  0.70348171235E+02  0.00000000000E+00 0.  1.
         12    1    4    4    0    0  0.74770830723E+01 -0.31987223104E+02  0.40754181064E+02  0.52344937552E+02  0.00000000000E+00 0. -1.
         -5    1    5    5    0  502 -0.62819330616E+02  0.66028463134E+02  0.46202066822E+03  0.47094714577E+03  0.47000000000E+01 0.  1.
         11    1    6    6    0    0 -0.12031972359E+01  0.25491197773E+02  0.82604592864E+02  0.86456738371E+02  0.00000000000E+00 0. -1.
        -12    1    6    6    0    0  0.64300185244E+02  0.64273598524E+01  0.74265146201E+03  0.74545759021E+03  0.00000000000E+00 0.  1.
</event>
<event>
12    1  0.8526130E-002  0.2118090E+03  0.7818608E-02  0.1140155E+00
         21   -1    0    0  503  502  0.00000000000E+00  0.00000000000E+00  0.16899616045E+04  0.16899616045E+04  0.00000000000E+00 0. -1.
         21   -1    0    0  501  503 -0.00000000000E+00 -0.00000000000E+00 -0.67103683778E+02  0.67103683778E+02  0.00000000000E+00 0.  1.
          6    2    1    2  501    0  0.40214745511E+02 -0.11679525977E+03  0.12831003492E+03  0.24758311209E+03  0.17197550370E+03 0.  0.
         24    2    3    3    0    0  0.65930764605E+02 -0.15232161430E+02  0.80045441473E+02  0.13213642499E+03  0.80460410422E+02 0.  0.
         -6    2    1    2    0  502 -0.40214745511E+02  0.11679525977E+03  0.14945478858E+04  0.15094821762E+04  0.17206016039E+03 0.  0.
        -24    2    5    5    0    0 -0.21948400901E+02  0.53399960089E+02  0.13047221544E+04  0.13084634665E+04  0.80271132824E+02 0.  0.
          5    1    3    3  501    0 -0.25716019094E+02 -0.10156309834E+03  0.48264593444E+02  0.11544668710E+03  0.47000000000E+01 0. -1.
        -11    1    4    4    0    0  0.31824204726E+02  0.32821649779E+02  0.28709965844E+02  0.53984283263E+02  0.00000000000E+00 0.  1.
         12    1    4    4    0    0  0.34106559878E+02 -0.48053811209E+02  0.51335475629E+02  0.78152141727E+02  0.00000000000E+00 0. -1.
         -5    1    5    5    0  502 -0.18266344609E+02  0.63395299684E+02  0.18982573141E+03  0.20101870976E+03  0.47000000000E+01 0.  1.
         13    1    6    6    0    0 -0.49384476100E+02  0.41216031267E+02  0.68464484665E+03  0.68765991141E+03  0.00000000000E+00 0. -1.
        -14    1    6    6    0    0  0.27436075198E+02  0.12183928821E+02  0.62007730776E+03  0.62080355504E+03  0.00000000000E+00 0.  1.
</event>
<event>
12    1  0.8526130E-002  0.1723628E+03  0.7818608E-02  0.1175461E+00
         21   -1    0    0  503  502  0.00000000000E+00  0.00000000000E+00  0.33171917125E+03  0.33171917125E+03  0.00000000000E+00 0.  1.
         21   -1    0    0  501  503 -0.00000000000E+00 -0.00000000000E+00 -0.24449360532E+03  0.24449360532E+03  0.00000000000E+00 0.  1.
          6    2    1    2  501    0  0.10157352732E+01  0.12078819472E+02 -0.18580596177E+03  0.25344185925E+03  0.17193600842E+03 0.  0.
         24    2    3    3    0    0  0.41500179266E+02 -0.38663238780E+02 -0.14858837827E+03  0.17846862934E+03  0.80965638329E+02 0.  0.
         -6    2    1    2    0  502 -0.10157352732E+01 -0.12078819472E+02  0.27303152770E+03  0.32277091732E+03  0.17172047154E+03 0.  0.
        -24    2    5    5    0    0 -0.32371395989E+02  0.13213448421E+02  0.60300562992E+02  0.10620815592E+03  0.80134337147E+02 0.  0.
          5    1    3    3  501    0 -0.40484443992E+02  0.50742058252E+02 -0.37217583498E+02  0.74973229905E+02  0.47000000000E+01 0. -1.
        -11    1    4    4    0    0  0.15010682720E+02  0.25205870973E+02 -0.51596355528E+02  0.59353520797E+02  0.00000000000E+00 0.  1.
         12    1    4    4    0    0  0.26489496545E+02 -0.63869109753E+02 -0.96992022746E+02  0.11911510855E+03  0.00000000000E+00 0. -1.
         -5    1    5    5    0  502  0.31355660716E+02 -0.25292267893E+02  0.21273096471E+03  0.21656276139E+03  0.47000000000E+01 0.  1.
         13    1    6    6    0    0 -0.88107173402E+01  0.41475768619E+02  0.94500089146E+01  0.43441579058E+02  0.00000000000E+00 0. -1.
        -14    1    6    6    0    0 -0.23560678649E+02 -0.28262320198E+02  0.50850554077E+02  0.62766576865E+02  0.00000000000E+00 0.  1.
</event>
<event>
12    1  0.8526130E-002  0.2787474E+03  0.7818608E-02  0.1096465E+00
         21   -1    0    0  501  502  0.00000000000E+00  0.00000000000E+00  0.38021005366E+03  0.38021005366E+03  0.00000000000E+00 0.  1.
         21   -1    0    0  502  503 -0.00000000000E+00 -0.00000000000E+00 -0.20410686342E+03  0.20410686342E+03  0.00000000000E+00 0. -1.
         -6    2    1    2    0  503 -0.77258789644E+02  0.20460210944E+03  0.97686996980E+02  0.29474963892E+03  0.17176628452E+03 0.  0.
        -24    2    3    3    0    0 -0.20919234607E+01  0.40654718120E+02 -0.67744114754E+00  0.89258866421E+02  0.79432386713E+02 0.  0.
          6    2    1    2  501    0  0.77258789644E+02 -0.20460210944E+03  0.78416193260E+02  0.28956727817E+03  0.17282698126E+03 0.  0.
         24    2    5    5    0    0 -0.10593726165E+02 -0.46102438510E+02  0.15327102011E+02  0.97623188248E+02  0.84010147940E+02 0.  0.
          5    1    5    5  501    0  0.87852515809E+02 -0.15849967093E+03  0.63089091249E+02  0.19194408992E+03  0.47000000000E+01 0. -1.
        -13    1    6    6    0    0 -0.34223231585E+02 -0.50145610951E+02 -0.11344050056E+02  0.61761633312E+02  0.00000000000E+00 0.  1.
         14    1    6    6    0    0  0.23629505420E+02  0.40431724404E+01  0.26671152067E+02  0.35861554935E+02  0.00000000000E+00 0. -1.
         -5    1    3    3    0  503 -0.75166866183E+02  0.16394739132E+03  0.98364438128E+02  0.20549077250E+03  0.47000000000E+01 0.  1.
         13    1    4    4    0    0  0.26099866537E+02  0.25916476769E+02  0.28158799585E+02  0.46322616457E+02  0.00000000000E+00 0. -1.
        -14    1    4    4    0    0 -0.28191789997E+02  0.14738241351E+02 -0.28836240732E+02  0.42936249964E+02  0.00000000000E+00 0.  1.
</event>
<event>
12    1  0.8526130E-002  0.2002500E+03  0.7818608E-02  0.1149632E+00
         21   -1    0    0  503  502  0.00000000000E+00  0.00000000000E+00  0.96441182591E+03  0.96441182591E+03  0.00000000000E+00 0. -1.
         21   -1    0    0  501  503 -0.00000000000E+00 -0.00000000000E+00 -0.41528313480E+02  0.41528313480E+02  0.00000000000E+00 0.  1.
          6    2    1    2  501    0  0.10003997646E+03  0.20544513100E+02  0.47849691309E+03  0.51851885321E+03  0.17167536628E+03 0.  0.
         24    2    3    3    0    0  0.93837014553E+01  0.50008211645E+02  0.14451906128E+03  0.17117181460E+03  0.76322709306E+02 0.  0.
         -6    2    1    2    0  502 -0.10003997646E+03 -0.20544513100E+02  0.44438659934E+03  0.48742128618E+03  0.17224977980E+03 0.  0.
        -24    2    5    5    0    0  0.12811937226E+02 -0.15530604871E+02  0.24172440523E+03  0.25535502707E+03  0.79813259183E+02 0.  0.
          5    1    3    3  501    0  0.90656275003E+02 -0.29463698545E+02  0.33397785181E+03  0.34734703861E+03  0.47000000000E+01 0. -1.
        -11    1    4    4    0    0  0.38906687009E+02  0.30564156605E+02  0.50369890808E+02  0.70604701423E+02  0.00000000000E+00 0.  1.
         12    1    4    4    0    0 -0.29522985554E+02  0.19444055040E+02  0.94149170476E+02  0.10056711318E+03  0.00000000000E+00 0. -1.
         -5    1    5    5    0  502 -0.11285191368E+03 -0.50139082289E+01  0.20266219411E+03  0.23206625911E+03  0.47000000000E+01 0.  1.
         11    1    6    6    0    0 -0.26673987153E+02  0.12898659909E+02  0.13267958983E+03  0.13594760231E+03  0.00000000000E+00 0. -1.
        -12    1    6    6    0    0  0.39485924379E+02 -0.28429264780E+02  0.10904481541E+03  0.11940742476E+03  0.00000000000E+00 0.  1.
</event>
<event>
12    1  0.8526130E-002  0.2353856E+03  0.7818608E-02  0.1122920E+00
         21   -1    0    0  503  502  0.00000000000E+00  0.00000000000E+00  0.10593138955E+04  0.10593138955E+04  0.00000000000E+00 0.  1.
         21   -1    0    0  501  503 -0.00000000000E+00 -0.00000000000E+00 -0.41546267674E+03  0.41546267674E+03  0.00000000000E+00 0. -1.
          6    2    1    2  501    0  0.12308653643E+03  0.10285987838E+03 -0.36749660255E+03  0.43641737968E+03  0.17226702056E+03 0.  0.
         24    2    3    3    0    0  0.35162327081E+02 -0.94128499771E+01 -0.18577093054E+03  0.20537162233E+03  0.79634625847E+02 0.  0.
         -6    2    1    2    0  502 -0.12308653643E+03 -0.10285987838E+03  0.10113478213E+04  0.10383591925E+04  0.17214803825E+03 0.  0.
        -24    2    5    5    0    0 -0.10064205830E+03 -0.57176971306E+02  0.93949285136E+03  0.95017807607E+03  0.82422864166E+02 0.  0.
          5    1    3    3  501    0  0.87924209353E+02  0.11227272836E+03 -0.18172567200E+03  0.23104575735E+03  0.47000000000E+01 0. -1.
        -13    1    4    4    0    0  0.38137838606E+02 -0.37610972062E+02 -0.15263095321E+03  0.16175687877E+03  0.00000000000E+00 0.  1.
         14    1    4    4    0    0 -0.29755115242E+01  0.28198122085E+02 -0.33139977333E+02  0.43614743558E+02  0.00000000000E+00 0. -1.
         -5    1    5    5    0  502 -0.22444478132E+02 -0.45682907077E+02  0.71854969895E+02  0.88181116438E+02  0.47000000000E+01 0.  1.
         11    1    6    6    0    0 -0.57447745337E+02 -0.11312150099E+02  0.21121805370E+03  0.21918319825E+03  0.00000000000E+00 0. -1.
        -12    1    6    6    0    0 -0.43194312965E+02 -0.45864821207E+02  0.72827479766E+03  0.73099487783E+03  0.00000000000E+00 0.  1.
</event>
<event>
12    1  0.8526130E-002  0.4072235E+03  0.7818608E-02  0.1041308E+00
         21   -1    0    0  501  502  0.00000000000E+00  0.00000000000E+00  0.17381577165E+03  0.17381577165E+03  0.00000000000E+00 0. -1.
         21   -1    0    0  502  503 -0.00000000000E+00 -0.00000000000E+00 -0.97758256236E+03  0.97758256236E+03  0.00000000000E+00 0.  1.
         -6    2    1    2    0  503 -0.27844911206E+03  0.24283694577E+03 -0.49124301162E+03  0.63807376816E+03  0.17121549844E+03 0.  0.
        -24    2    3    3    0    0 -0.31295852489E+02  0.38183812250E+02 -0.12197315192E+03  0.14883971572E+03  0.69558445115E+02 0.  0.
          6    2    1    2  501    0  0.27844911206E+03 -0.24283694577E+03 -0.31252377910E+03  0.51332456585E+03  0.17125217419E+03 0.  0.
         24    2    5    5    0    0  0.25896902685E+03 -0.17343254413E+03 -0.19707266381E+03  0.37713537866E+03  0.79054758152E+02 0.  0.
          5    1    5    5  501    0  0.19480085215E+02 -0.69404401645E+02 -0.11545111528E+03  0.13618918719E+03  0.47000000000E+01 0. -1.
        -11    1    6    6    0    0 -0.18236398781E+01  0.43091186240E+01 -0.78948077591E+01  0.91772629511E+01  0.00000000000E+00 0.  1.
         12    1    6    6    0    0  0.26079266673E+03 -0.17774166275E+03 -0.18917785605E+03  0.36795811571E+03  0.00000000000E+00 0. -1.
         -5    1    3    3    0  503 -0.24715325957E+03  0.20465313352E+03 -0.36926985970E+03  0.48923405243E+03  0.47000000000E+01 0.  1.
         11    1    4    4    0    0 -0.40173633182E+02  0.10554353199E+02 -0.27022968470E+02  0.49553566969E+02  0.00000000000E+00 0. -1.
        -12    1    4    4    0    0  0.88777806927E+01  0.27629459051E+02 -0.94950183450E+02  0.99286148755E+02  0.00000000000E+00 0.  1.
</event>
<event>
12    1  0.8526130E-002  0.1939188E+03  0.7818608E-02  0.1155354E+00
         21   -1    0    0  501  502  0.00000000000E+00  0.00000000000E+00  0.46955374317E+03  0.46955374317E+03  0.00000000000E+00 0. -1.
         21   -1    0    0  502  503 -0.00000000000E+00 -0.00000000000E+00 -0.11837734584E+03  0.11837734584E+03  0.00000000000E+00 0.  1.
         -6    2    1    2    0  503  0.54909215039E+02  0.69503399782E+02  0.73781322628E+01  0.19405912791E+03  0.17250728625E+03 0.  0.
        -24    2    3    3    0    0  0.70666649100E+02  0.34752002620E+02  0.61781943281E+02  0.12744215570E+03  0.78886104938E+02 0.  0.
          6    2    1    2  501    0 -0.54909215039E+02 -0.69503399782E+02  0.34379826506E+03  0.39387196110E+03  0.17056415275E+03 0.  0.
         24    2    5    5    0    0 -0.79845764565E+01 -0.10555434438E+03  0.21654535948E+03  0.25345478162E+03  0.78370661207E+02 0.  0.
          5    1    5    5  501    0 -0.46924638582E+02  0.36050944596E+02  0.12725290559E+03  0.14041717948E+03  0.47000000000E+01 0. -1.
        -11    1    6    6    0    0 -0.19180522014E+02 -0.12225470480E+02  0.70096596272E+01  0.23801047903E+02  0.00000000000E+00 0.  1.
         12    1    6    6    0    0  0.11195945557E+02 -0.93328873899E+02  0.20953569985E+03  0.22965373372E+03  0.00000000000E+00 0. -1.
         -5    1    3    3    0  503 -0.15757434061E+02  0.34751397163E+02 -0.54403811018E+02  0.66616972209E+02  0.47000000000E+01 0.  1.
         13    1    4    4    0    0  0.82926446339E+02  0.95954187932E+01  0.46442928216E+02  0.95529121976E+02  0.00000000000E+00 0. -1.
        -14    1    4    4    0    0 -0.12259797239E+02  0.25156583826E+02  0.15339015065E+02  0.31913033722E+02  0.00000000000E+00 0.  1.
</event>
<event>
12    1  0.8526130E-002  0.2489575E+03  0.7818608E-02  0.1114358E+00
         21   -1    0    0  501  502  0.00000000000E+00  0.00000000000E+00  0.25684041285E+03  0.25684041285E+03  0.00000000000E+00 0.  1.
         21   -1    0    0  502  503 -0.00000000000E+00 -0.00000000000E+00 -0.24235668516E+03  0.24235668516E+03  0.00000000000E+00 0. -1.
         -6    2    1    2    0  503 -0.12037878898E+03 -0.13204049014E+03  0.36902699058E+02  0.25167768472E+03  0.17336119495E+03 0.  0.
        -24    2    3    3    0    0 -0.59725968985E+02 -0.72844531011E+01 -0.20028625432E+02  0.10165735590E+03  0.79453241244E+02 0.  0.
          6    2    1    2  501    0  0.12037878898E+03  0.13204049014E+03 -0.22418971371E+02  0.24751941328E+03  0.16981609406E+03 0.  0.
         24    2    5    5    0    0  0.46106833809E+02  0.11236253422E+01  0.12020905954E+02  0.93040469853E+02  0.79905720651E+02 0.  0.
          5    1    5    5  501    0  0.74271955173E+02  0.13091686480E+03 -0.34439877325E+02  0.15447894343E+03  0.47000000000E+01 0. -1.
        -11    1    6    6    0    0  0.49238407995E+02  0.18354699142E+02  0.35744310358E+02  0.63552903360E+02  0.00000000000E+00 0.  1.
         12    1    6    6    0    0 -0.31315741866E+01 -0.17231073800E+02 -0.23723404404E+02  0.29487566493E+02  0.00000000000E+00 0. -1.
         -5    1    3    3    0  503 -0.60652819996E+02 -0.12475603704E+03  0.56931324490E+02  0.15002032882E+03  0.47000000000E+01 0.  1.
         13    1    4    4    0    0 -0.45358598359E+02 -0.40295927071E+02 -0.24390520246E+02  0.65391602377E+02  0.00000000000E+00 0. -1.
        -14    1    4    4    0    0 -0.14367370626E+02  0.33011473970E+02  0.43618948135E+01  0.36265753525E+02  0.00000000000E+00 0.  1.
</event>
<event>
12    1  0.8526130E-002  0.2074875E+03  0.7818608E-02  0.1144401E+00
         21   -1    0    0  501  502  0.00000000000E+00  0.00000000000E+00  0.43204772165E+03  0.43204772165E+03  0.00000000000E+00 0.  1.
         21   -1    0    0  502  503 -0.00000000000E+00 -0.00000000000E+00 -0.10206226797E+03  0.10206226797E+03  0.00000000000E+00 0.  1.
         -6    2    1    2    0  503 -0.98166164686E+02 -0.55493230612E+02  0.22180655461E+03  0.30372556511E+03  0.17416939083E+03 0.  0.
        -24    2    3    3    0    0 -0.22631737248E+02 -0.90468221437E+02  0.10335096973E+03  0.15887213815E+03  0.76565257897E+02 0.  0.
          6    2    1    2  501    0  0.98166164686E+02  0.55493230612E+02  0.10817889907E+03  0.23038442450E+03  0.16928737199E+03 0.  0.
         24    2    5    5    0    0  0.80934274212E+02  0.85658279625E+02  0.30782557901E+02  0.14541883230E+03  0.79444152125E+02 0.  0.
          5    1    5    5  501    0  0.17231890474E+02 -0.30165049013E+02  0.77396341172E+02  0.84965592201E+02  0.47000000000E+01 0. -1.
        -11    1    6    6    0    0  0.31424321811E+02  0.61104091951E+01 -0.21076328501E+02  0.38328014884E+02  0.00000000000E+00 0.  1.
         12    1    6    6    0    0  0.49509952401E+02  0.79547870429E+02  0.51858886403E+02  0.10709081742E+03  0.00000000000E+00 0. -1.
         -5    1    3    3    0  503 -0.75534427438E+02  0.34974990825E+02  0.11845558488E+03  0.14485342696E+03  0.47000000000E+01 0.  1.
         13    1    4    4    0    0  0.10022275851E+02 -0.11413474291E+02  0.62063830118E+02  0.63895480416E+02  0.00000000000E+00 0. -1.
        -14    1    4    4    0    0 -0.32654013099E+02 -0.79054747146E+02  0.41287139609E+02  0.94976657736E+02  0.00000000000E+00 0.  1.
</event>
<event>
12    1  0.8526130E-002  0.1957148E+03  0.7818608E-02  0.1153491E+00
         21   -1    0    0  501  502  0.00000000000E+00  0.00000000000E+00  0.16916449412E+04  0.16916449412E+04  0.00000000000E+00 0.  1.
         21   -1    0    0  502  503 -0.00000000000E+00 -0.00000000000E+00 -0.26687838239E+02  0.26687838239E+02  0.00000000000E+00 0. -1.
         -6    2    1    2    0  503 -0.82236655939E+02 -0.39535664538E+02  0.49541562069E+03  0.53252859848E+03  0.17269665493E+03 0.  0.
        -24    2    3    3    0    0 -0.30214769513E+01 -0.46843478133E+01  0.91133051775E+02  0.11906016633E+03  0.76413465060E+02 0.  0.
          6    2    1    2  501    0  0.82236655939E+02  0.39535664538E+02  0.11695414823E+04  0.11858041810E+04  0.17314254381E+03 0.  0.
         24    2    5    5    0    0  0.81522661651E+02  0.38936771883E+02  0.43661527370E+03  0.45286231037E+03  0.79305474925E+02 0.  0.
          5    1    5    5  501    0  0.71399428777E+00  0.59889265510E+00  0.73292620858E+03  0.73294187061E+03  0.47000000000E+01 0. -1.
        -11    1    6    6    0    0  0.71234785653E+02 -0.13636039447E+01  0.34452487339E+03  0.35181478435E+03  0.00000000000E+00 0.  1.
         12    1    6    6    0    0  0.10287875998E+02  0.40300375827E+02  0.92090400310E+02  0.10104752601E+03  0.00000000000E+00 0. -1.
         -5    1    3    3    0  503 -0.79215178988E+02 -0.34851316724E+02  0.40428256891E+03  0.41346843215E+03  0.47000000000E+01 0.  1.
         13    1    4    4    0    0 -0.13938939154E+02 -0.33794404219E+02  0.20557199651E+02  0.41939888397E+02  0.00000000000E+00 0. -1.
        -14    1    4    4    0    0  0.10917462202E+02  0.29110056406E+02  0.70575852124E+02  0.77120277930E+02  0.00000000000E+00 0.  1.
</event>
<event>
12    1  0.8526130E-002  0.2517802E+03  0.7818608E-02  0.1112279E+00
         21   -1    0    0  501  502  0.00000000000E+00  0.00000000000E+00  0.16645931910E+03  0.16645931910E+03  0.00000000000E+00 0.  1.
         21   -1    0    0  502  503 -0.00000000000E+00 -0.00000000000E+00 -0.59781097829E+03  0.59781097829E+03  0.00000000000E+00 0. -1.
         -6    2    1    2    0  503  0.18000222982E+03 -0.29099569308E+02 -0.44621361810E+03  0.51205183983E+03  0.17275099429E+03 0.  0.
        -24    2    3    3    0    0  0.13316297691E+03 -0.62051710816E+02 -0.20786210770E+03  0.26687171879E+03  0.80193922711E+02 0.  0.
          6    2    1    2  501    0 -0.18000222982E+03  0.29099569308E+02  0.14861958905E+02  0.25221845755E+03  0.17362512732E+03 0.  0.
         24    2    5    5    0    0 -0.11222805971E+03  0.16388183493E+02 -0.46808123592E+02  0.15958905327E+03  0.10204879002E+03 0.  0.
          5    1    5    5  501    0 -0.67774170102E+02  0.12711385815E+02  0.61670082496E+02  0.92629404281E+02  0.47000000000E+01 0. -1.
        -13    1    6    6    0    0 -0.12335561193E+03  0.29451930324E+02 -0.57628426416E+02  0.13930204135E+03  0.00000000000E+00 0.  1.
         14    1    6    6    0    0  0.11127552212E+02 -0.13063746832E+02  0.10820302824E+02  0.20287011922E+02  0.00000000000E+00 0. -1.
         -5    1    3    3    0  503  0.46839252903E+02  0.32952141508E+02 -0.23835151040E+03  0.24518012104E+03  0.47000000000E+01 0.  1.
         11    1    4    4    0    0  0.25539156870E+02 -0.49238733985E+01 -0.10262833957E+03  0.10587289146E+03  0.00000000000E+00 0. -1.
        -12    1    4    4    0    0  0.10762382004E+03 -0.57127837417E+02 -0.10523376812E+03  0.16099882733E+03  0.00000000000E+00 0.  1.
</event>
<event>
12    1  0.8526130E-002  0.1833615E+03  0.7818608E-02  0.1167798E+00
         21   -1    0    0  503  502  0.00000000000E+00  0.00000000000E+00  0.32425098622E+03  0.32425098622E+03  0.00000000000E+00 0.  1.
         21   -1    0    0  501  503 -0.00000000000E+00 -0.00000000000E+00 -0.24517131060E+03  0.24517131060E+03  0.00000000000E+00 0. -1.
          6    2    1    2  501    0  0.63797323287E+02 -0.18295992523E+02 -0.18273183006E+03  0.24978704178E+03  0.15683686659E+03 0.  0.
         24    2    3    3    0    0  0.31892442396E+00 -0.55793710870E+02 -0.10060512028E+03  0.13932223986E+03  0.78589162152E+02 0.  0.
         -6    2    1    2    0  502 -0.63797323287E+02  0.18295992523E+02  0.26181150568E+03  0.31963525504E+03  0.17092861069E+03 0.  0.
        -24    2    5    5    0    0 -0.34376012587E+01 -0.45161493249E+02  0.16828427987E+03  0.19141832748E+03  0.79183329489E+02 0.  0.
          5    1    3    3  501    0  0.63478398863E+02  0.37497718347E+02 -0.82126709787E+02  0.11046480192E+03  0.47000000000E+01 0. -1.
        -11    1    4    4    0    0  0.22502991939E+02 -0.33477115575E+02 -0.74807179726E+01  0.41025151491E+02  0.00000000000E+00 0.  1.
         12    1    4    4    0    0 -0.22184067515E+02 -0.22316595294E+02 -0.93124402304E+02  0.98297088367E+02  0.00000000000E+00 0. -1.
         -5    1    5    5    0  502 -0.60359722028E+02  0.63457485771E+02  0.93527225808E+02  0.12821692755E+03  0.47000000000E+01 0.  1.
         13    1    6    6    0    0 -0.39440974795E+02 -0.10049421634E+02  0.82078532463E+02  0.91615865761E+02  0.00000000000E+00 0. -1.
        -14    1    6    6    0    0  0.36003373536E+02 -0.35112071615E+02  0.86205747411E+02  0.99802461722E+02  0.00000000000E+00 0.  1.
</event>
<event>
12    1  0.8526130E-002  0.1985675E+03  0.7818608E-02  0.1152653E+00
         21   -1    0    0  503  502  0.00000000000E+00  0.00000000000E+00  0.36355997190E+03  0.36355997190E+03  0.00000000000E+00 0.  1.
         21   -1    0    0  501  503 -0.00000000000E+00 -0.00000000000E+00 -0.34760584550E+03  0.34760584550E+03  0.00000000000E+00 0.  1.
          6    2    1    2  501    0  0.96561595919E+02 -0.20311948993E+02 -0.28949309069E+03  0.35104886224E+03  0.17231464548E+03 0.  0.
         24    2    3    3    0    0  0.10959256989E+03 -0.50627533209E+02 -0.28193553365E+03  0.31687215091E+03  0.79665779316E+02 0.  0.
         -6    2    1    2    0  502 -0.96561595919E+02  0.20311948993E+02  0.30544721708E+03  0.36011695516E+03  0.16324675154E+03 0.  0.
        -24    2    5    5    0    0 -0.31859190196E+02 -0.13478493028E+02  0.25531119606E+03  0.27143828871E+03  0.85429854105E+02 0.  0.
          5    1    3    3  501    0 -0.13030973967E+02  0.30315584217E+02 -0.75575570350E+01  0.34176711329E+02  0.47000000000E+01 0. -1.
        -13    1    4    4    0    0  0.68736180637E+02 -0.11023755285E+02 -0.75315118423E+02  0.10255999596E+03  0.00000000000E+00 0.  1.
         14    1    4    4    0    0  0.40856389250E+02 -0.39603777925E+02 -0.20662041523E+03  0.21431215494E+03  0.00000000000E+00 0. -1.
         -5    1    5    5    0  502 -0.64702405723E+02  0.33790442021E+02  0.50136021027E+02  0.88678666446E+02  0.47000000000E+01 0.  1.
         13    1    6    6    0    0  0.16051632233E+02  0.23597815386E+02  0.11719373986E+03  0.12061875663E+03  0.00000000000E+00 0. -1.
        -14    1    6    6    0    0 -0.47910822429E+02 -0.37076308414E+02  0.13811745620E+03  0.15081953208E+03  0.00000000000E+00 0.  1.
</event>
<event>
12    1  0.8526130E-002  0.2149946E+03  0.7818608E-02  0.1138256E+00
         21   -1    0    0  503  502  0.00000000000E+00  0.00000000000E+00  0.37880452306E+03  0.37880452306E+03  0.00000000000E+00 0. -1.
         21   -1    0    0  501  503 -0.00000000000E+00 -0.00000000000E+00 -0.12290774132E+03  0.12290774132E+03  0.00000000000E+00 0.  1.
          6    2    1    2  501    0  0.11149742069E+03  0.54661447256E+02  0.90605581908E+02  0.23052256314E+03  0.17178979018E+03 0.  0.
         24    2    3    3    0    0  0.36942768060E+01  0.99482689909E+01 -0.13792939234E+01  0.81848108302E+02  0.81145515241E+02 0.  0.
         -6    2    1    2    0  502 -0.11149742069E+03 -0.54661447256E+02  0.16529119984E+03  0.27118970123E+03  0.17550818977E+03 0.  0.
        -24    2    5    5    0    0  0.11404388296E+02 -0.31957865300E+02  0.92504781331E+02  0.12648220314E+03  0.79304778642E+02 0.  0.
          5    1    3    3  501    0  0.10780314388E+03  0.44713178265E+02  0.91984875832E+02  0.14867445484E+03  0.47000000000E+01 0. -1.
        -13    1    4    4    0    0 -0.20551949482E+02 -0.27694250482E+02  0.94967762002E+01  0.35770698839E+02  0.00000000000E+00 0.  1.
         14    1    4    4    0    0  0.24246226288E+02  0.37642519473E+02 -0.10876070124E+02  0.46077409462E+02  0.00000000000E+00 0. -1.
         -5    1    5    5    0  502 -0.12290180898E+03 -0.22703581956E+02  0.72786418507E+02  0.14470749809E+03  0.47000000000E+01 0.  1.
         13    1    6    6    0    0 -0.32238566568E+02 -0.39711244656E+00  0.30966487763E+02  0.44703537187E+02  0.00000000000E+00 0. -1.
        -14    1    6    6    0    0  0.43642954865E+02 -0.31560752854E+02  0.61538293568E+02  0.81778665954E+02  0.00000000000E+00 0.  1.
</event>
<event>
12    1  0.8526130E-002  0.2049007E+03  0.7818608E-02  0.1145832E+00
         21   -1    0    0  503  502  0.00000000000E+00  0.00000000000E+00  0.27061382246E+03  0.27061382246E+03  0.00000000000E+00 0.  1.
         21   -1    0    0  501  503 -0.00000000000E+00 -0.00000000000E+00 -0.17212489795E+03  0.17212489795E+03  0.00000000000E+00 0.  1.
          6    2    1    2  501    0 -0.42600158406E+02 -0.10134667515E+03  0.12008431483E+03  0.23749635864E+03  0.17291140981E+03 0.  0.
         24    2    3    3    0    0 -0.94096134587E+02 -0.76819246818E+02  0.10244475492E+03  0.17760750845E+03  0.79336120545E+02 0.  0.
         -6    2    1    2    0  502  0.42600158406E+02  0.10134667515E+03 -0.21595390315E+02  0.20524236176E+03  0.17196553178E+03 0.  0.
        -24    2    5    5    0    0  0.93897207508E+02  0.71579425975E+02 -0.35506748215E+02  0.14414332537E+03  0.74674421846E+02 0.  0.
          5    1    3    3  501    0  0.51495976181E+02 -0.24527428328E+02  0.17639559910E+02  0.59888850190E+02  0.47000000000E+01 0. -1.
        -13    1    4    4    0    0 -0.40996032098E+02 -0.75341696307E+02  0.37253285703E+02  0.93513919530E+02  0.00000000000E+00 0.  1.
         14    1    4    4    0    0 -0.53100102489E+02 -0.14775505114E+01  0.65191469212E+02  0.84093588923E+02  0.00000000000E+00 0. -1.
         -5    1    5    5    0  502 -0.51297049102E+02  0.29767249172E+02  0.13911357899E+02  0.61099036395E+02  0.47000000000E+01 0.  1.
         11    1    6    6    0    0  0.55265212159E+02  0.80860000707E+00  0.18040518657E+01  0.55300561590E+02  0.00000000000E+00 0. -1.
        -12    1    6    6    0    0  0.38631995348E+02  0.70770825967E+02 -0.37310800080E+02  0.88842763776E+02  0.00000000000E+00 0.  1.
</event>
<event>
12    1  0.8526130E-002  0.1748244E+03  0.7818608E-02  0.1173064E+00
         21   -1    0    0  503  502  0.00000000000E+00  0.00000000000E+00  0.68564267964E+02  0.68564267964E+02  0.00000000000E+00 0.  1.
         21   -1    0    0  501  503 -0.00000000000E+00 -0.00000000000E+00 -0.46768343466E+03  0.46768343466E+03  0.00000000000E+00 0.  1.
          6    2    1    2  501    0 -0.19674178423E+02 -0.23133661283E+02 -0.13980153294E+03  0.22384823957E+03  0.17216656518E+03 0.  0.
         24    2    3    3    0    0 -0.59319144195E+02 -0.62636535942E+01 -0.14951278800E+03  0.17943293877E+03  0.79272388106E+02 0.  0.
         -6    2    1    2    0  502  0.19674178423E+02  0.23133661283E+02 -0.25931763376E+03  0.31239946306E+03  0.17153877043E+03 0.  0.
        -24    2    5    5    0    0  0.15749088349E+02 -0.42095666522E+02 -0.79132955079E+02  0.12067340857E+03  0.79246249335E+02 0.  0.
          5    1    3    3  501    0  0.39644965771E+02 -0.16870007688E+02  0.97112550557E+01  0.44415300800E+02  0.47000000000E+01 0. -1.
        -11    1    4    4    0    0  0.25057394636E+01 -0.23720444557E+02 -0.10046285505E+02  0.25881771051E+02  0.00000000000E+00 0.  1.
         12    1    4    4    0    0 -0.61824883658E+02  0.17456790963E+02 -0.13946650249E+03  0.15355116772E+03  0.00000000000E+00 0. -1.
         -5    1    5    5    0  502  0.39250900745E+01  0.65229327804E+02 -0.18018467868E+03  0.19172605448E+03  0.47000000000E+01 0.  1.
         11    1    6    6    0    0  0.17354926187E+02 -0.13050264621E+02 -0.87700149955E+02  0.90348321356E+02  0.00000000000E+00 0. -1.
        -12    1    6    6    0    0 -0.16058378381E+01 -0.29045401900E+02  0.85671948765E+01  0.30325087218E+02  0.00000000000E+00 0.  1.
</event>
<event>
12    1  0.8526130E-002  0.2563728E+03  0.7818608E-02  0.1109519E+00
         21   -1    0    0  501  502  0.00000000000E+00  0.00000000000E+00  0.51965090357E+03  0.51965090357E+03  0.00000000000E+00 0. -1.
         21   -1    0    0  502  503 -0.00000000000E+00 -0.00000000000E+00 -0.19766208053E+03  0.19766208053E+03  0.00000000000E+00 0. -1.
         -6    2    1    2    0  503  0.19001392090E+03 -0.58791815035E+01 -0.54856577057E+02  0.26217599818E+03  0.17200917145E+03 0.  0.
        -24    2    3    3    0    0  0.13676125977E+03  0.33989379928E+02 -0.90445527434E+02  0.18658491738E+03  0.82308066656E+02 0.  0.
          6    2    1    2  501    0 -0.19001392090E+03  0.58791815035E+01  0.37684540010E+03  0.45513698593E+03  0.17028612826E+03 0.  0.
         24    2    5    5    0    0 -0.37765313114E+02  0.41814165373E+02  0.13936248467E+03  0.17072322614E+03  0.80931294995E+02 0.  0.
          5    1    5    5  501    0 -0.15224860779E+03 -0.35934983870E+02  0.23748291543E+03  0.28441375979E+03  0.47000000000E+01 0. -1.
        -11    1    6    6    0    0  0.25156100773E+02  0.71308833929E+01  0.29133467965E+02  0.39146364578E+02  0.00000000000E+00 0.  1.
         12    1    6    6    0    0 -0.62921413887E+02  0.34683281980E+02  0.11022901670E+03  0.13157686156E+03  0.00000000000E+00 0. -1.
         -5    1    3    3    0  503  0.53252661128E+02 -0.39868561432E+02  0.35588950376E+02  0.75591080801E+02  0.47000000000E+01 0.  1.
         13    1    4    4    0    0  0.96980070551E+02 -0.15295304356E+02 -0.41724795961E+02  0.10667726570E+03  0.00000000000E+00 0. -1.
        -14    1    4    4    0    0  0.39781189222E+02  0.49284684284E+02 -0.48720731473E+02  0.79907651674E+02  0.00000000000E+00 0.  1.
</event>
<event>
12    1  0.8526130E-002  0.1954584E+03  0.7818608E-02  0.1153662E+00
         21   -1    0    0  503  502  0.00000000000E+00  0.00000000000E+00  0.16478141233E+03  0.16478141233E+03  0.00000000000E+00 0.  1.
         21   -1    0    0  501  503 -0.00000000000E+00 -0.00000000000E+00 -0.24222417222E+03  0.24222417222E+03  0.00000000000E+00 0.  1.
          6    2    1    2  501    0 -0.16699962192E+02  0.91759401210E+02  0.37868095951E+01  0.19534022075E+03  0.17159482938E+03 0.  0.
         24    2    3    3    0    0  0.16307871352E+01  0.74018797847E+02  0.65555380021E+02  0.12834625333E+03  0.81815713602E+02 0.  0.
         -6    2    1    2    0  502  0.16699962192E+02 -0.91759401210E+02 -0.81229569481E+02  0.21166536380E+03  0.17177108844E+03 0.  0.
        -24    2    5    5    0    0  0.12924355794E+02 -0.13227810156E+03 -0.66936242813E+02  0.16827862078E+03  0.78566522667E+02 0.  0.
          5    1    3    3  501    0 -0.18330749327E+02  0.17740603363E+02 -0.61768570426E+02  0.66993967423E+02  0.47000000000E+01 0. -1.
        -13    1    4    4    0    0  0.24259092570E+02  0.82254318399E+02  0.45934933354E+02  0.97284606028E+02  0.00000000000E+00 0.  1.
         14    1    4    4    0    0 -0.22628305434E+02 -0.82355205528E+01  0.19620446667E+02  0.31061647300E+02  0.00000000000E+00 0. -1.
         -5    1    5    5    0  502  0.37756063983E+01  0.40518700355E+02 -0.14293326668E+02  0.43386743014E+02  0.47000000000E+01 0.  1.
         13    1    6    6    0    0  0.31172590429E+02 -0.62493397951E+02 -0.66077206399E+02  0.96142354803E+02  0.00000000000E+00 0. -1.
        -14    1    6    6    0    0 -0.18248234635E+02 -0.69784703614E+02 -0.85903641366E+00  0.72136265979E+02  0.00000000000E+00 0.  1.
</event>
<event>
12    1  0.8526130E-002  0.2519296E+03  0.7818608E-02  0.1112094E+00
         21   -1    0    0  503  502  0.00000000000E+00  0.00000000000E+00  0.63277760137E+03  0.63277760137E+03  0.00000000000E+00 0.  1.
         21   -1    0    0  501  503 -0.00000000000E+00 -0.00000000000E+00 -0.10190368976E+03  0.10190368976E+03  0.00000000000E+00 0. -1.
          6    2    1    2  501    0 -0.90818621512E+02 -0.15901795437E+03  0.21929207824E+03  0.33400226906E+03  0.17301378077E+03 0.  0.
         24    2    3    3    0    0  0.10511113795E+02 -0.57057061325E+02  0.13429735475E+03  0.16693961019E+03  0.80418046477E+02 0.  0.
         -6    2    1    2    0  502  0.90818621512E+02  0.15901795437E+03  0.31158183337E+03  0.40067902206E+03  0.17299048532E+03 0.  0.
        -24    2    5    5    0    0  0.66603360855E+02  0.36006443292E+02  0.77412678318E+02  0.13501853595E+03  0.80652406345E+02 0.  0.
          5    1    3    3  501    0 -0.10132973531E+03 -0.10196089305E+03  0.84994723491E+02  0.16706265887E+03  0.47000000000E+01 0. -1.
        -11    1    4    4    0    0 -0.73393929774E+01 -0.63685832650E+02  0.13325001751E+03  0.14786926367E+03  0.00000000000E+00 0.  1.
         12    1    4    4    0    0  0.17850506773E+02  0.66287713256E+01  0.10473372315E+01  0.19070346526E+02  0.00000000000E+00 0. -1.
         -5    1    5    5    0  502  0.24215260656E+02  0.12301151108E+03  0.23416915505E+03  0.26566048612E+03  0.47000000000E+01 0.  1.
         13    1    6    6    0    0  0.73449545844E+02  0.18275707139E+01  0.64749105641E+02  0.97931723567E+02  0.00000000000E+00 0. -1.
        -14    1    6    6    0    0 -0.68461849886E+01  0.34178872578E+02  0.12663572676E+02  0.37086812380E+02  0.00000000000E+00 0.  1.
</event>
<event>
12    1  0.8526130E-002  0.1732254E+03  0.7818608E-02  0.1174843E+00
         21   -1    0    0  503  502  0.00000000000E+00  0.00000000000E+00  0.39680193454E+03  0.39680193454E+03  0.00000000000E+00 0. -1.
         21   -1    0    0  501  503 -0.00000000000E+00 -0.00000000000E+00 -0.75196142338E+02  0.75196142338E+02  0.00000000000E+00 0. -1.
          6    2    1    2  501    0  0.17136224423E+02  0.57360466251E+01  0.15097078542E+03  0.22884517983E+03  0.17103036533E+03 0.  0.
         24    2    3    3    0    0  0.91613696762E+01  0.23205416242E+02  0.17726563498E+03  0.19594705988E+03  0.79685148525E+02 0.  0.
         -6    2    1    2    0  502 -0.17136224423E+02 -0.57360466251E+01  0.17063500678E+03  0.24315289704E+03  0.17228021762E+03 0.  0.
        -24    2    5    5    0    0 -0.58630631140E+02 -0.37424124070E+02  0.15611049498E+03  0.18875646808E+03  0.80127408724E+02 0.  0.
          5    1    3    3  501    0  0.79748547466E+01 -0.17469369617E+02 -0.26294849555E+02  0.32898119949E+02  0.47000000000E+01 0. -1.
        -13    1    4    4    0    0 -0.28824842966E+02  0.25451486210E+02  0.49772648419E+02  0.62896472500E+02  0.00000000000E+00 0.  1.
         14    1    4    4    0    0  0.37986212643E+02 -0.22460699675E+01  0.12749298656E+03  0.13305058738E+03  0.00000000000E+00 0. -1.
         -5    1    5    5    0  502  0.41494406717E+02  0.31688077445E+02  0.14524511795E+02  0.54396428962E+02  0.47000000000E+01 0.  1.
         13    1    6    6    0    0 -0.62516923885E+02 -0.15605956636E+02  0.53413114141E+02  0.83695115848E+02  0.00000000000E+00 0. -1.
        -14    1    6    6    0    0  0.38862927448E+01 -0.21818167434E+02  0.10269738084E+03  0.10506135223E+03  0.00000000000E+00 0.  1.
</event>
<event>
12    1  0.8526130E-002  0.2442215E+03  0.7818608E-02  0.1117557E+00
         21   -1    0    0  501  502  0.00000000000E+00  0.00000000000E+00  0.14662599510E+04  0.14662599510E+04  0.00000000000E+00 0.  1.
         21   -1    0    0  502  503 -0.00000000000E+00 -0.00000000000E+00 -0.44713165584E+02  0.44713165584E+02  0.00000000000E+00 0.  1.
         -6    2    1    2    0  503 -0.11238042876E+03 -0.12446465081E+03  0.94836483059E+03  0.97848340478E+03  0.17295407326E+03 0.  0.
        -24    2    3    3    0    0 -0.93114615174E+02 -0.45927383717E+02  0.33445631147E+03  0.35925401776E+03  0.80142179046E+02 0.  0.
          6    2    1    2  501    0  0.11238042876E+03  0.12446465081E+03  0.47318195480E+03  0.53248971178E+03  0.17754808006E+03 0.  0.
         24    2    5    5    0    0  0.10597836547E+03  0.15966403411E+03  0.39431294127E+03  0.44575797425E+03  0.80581996866E+02 0.  0.
          5    1    5    5  501    0  0.64020632984E+01 -0.35199383308E+02  0.78869013531E+02  0.86731737531E+02  0.47000000000E+01 0. -1.
        -13    1    6    6    0    0  0.84248619609E+01  0.60573973539E+01  0.94335877583E+02  0.94904837396E+02  0.00000000000E+00 0.  1.
         14    1    6    6    0    0  0.97553503504E+02  0.15360663676E+03  0.29997706368E+03  0.35085313685E+03  0.00000000000E+00 0. -1.
         -5    1    3    3    0  503 -0.19265813590E+02 -0.78537267089E+02  0.61390851912E+03  0.61922938702E+03  0.47000000000E+01 0.  1.
         11    1    4    4    0    0 -0.21113449410E+02  0.22816786537E+02  0.93950944076E+02  0.98960413230E+02  0.00000000000E+00 0. -1.
        -12    1    4    4    0    0 -0.72001165764E+02 -0.68744170253E+02  0.24050536739E+03  0.26029360453E+03  0.00000000000E+00 0.  1.
</event>
<event>
12    1  0.8526130E-002  0.1934550E+03  0.7818608E-02  0.1155518E+00
         21   -1    0    0  501  502  0.00000000000E+00  0.00000000000E+00  0.42345119803E+03  0.42345119803E+03  0.00000000000E+00 0. -1.
         21   -1    0    0  502  503 -0.00000000000E+00 -0.00000000000E+00 -0.19133395447E+03  0.19133395447E+03  0.00000000000E+00 0. -1.
         -6    2    1    2    0  503  0.74794643152E+02 -0.43737599929E+02 -0.10982124158E+03  0.22191523316E+03  0.17227434317E+03 0.  0.
        -24    2    3    3    0    0  0.30159005217E+02 -0.19523590654E+01  0.11026464961E+02  0.86399165094E+02  0.80186379752E+02 0.  0.
          6    2    1    2  501    0 -0.74794643152E+02  0.43737599929E+02  0.34193848513E+03  0.39286991935E+03  0.17296713452E+03 0.  0.
         24    2    5    5    0    0 -0.73887825773E+01  0.74896017340E+00  0.61796675512E+02  0.10150571996E+03  0.80183708015E+02 0.  0.
          5    1    5    5  501    0 -0.67405860575E+02  0.42988639755E+02  0.28014180962E+03  0.29136419938E+03  0.47000000000E+01 0. -1.
        -11    1    6    6    0    0  0.10195324750E+02 -0.28732001459E+02  0.59797361354E+02  0.67120764146E+02  0.00000000000E+00 0.  1.
         12    1    6    6    0    0 -0.17584107327E+02  0.29480961633E+02  0.19993141579E+01  0.34384955815E+02  0.00000000000E+00 0. -1.
         -5    1    3    3    0  503  0.44635637935E+02 -0.41785240863E+02 -0.12084770654E+03  0.13551606806E+03  0.47000000000E+01 0.  1.
         13    1    4    4    0    0  0.62611239509E+00 -0.15258738416E+02 -0.30276085295E+02  0.33909621873E+02  0.00000000000E+00 0. -1.
        -14    1    4    4    0    0  0.29532892822E+02  0.13306379350E+02  0.41302550256E+02  0.52489543221E+02  0.00000000000E+00 0.  1.
</event>
<event>
12    1  0.8526130E-002  0.1943496E+03  0.7818608E-02  0.1155013E+00
         21   -1    0    0  501  502  0.00000000000E+00  0.00000000000E+00  0.13321529008E+04  0.13321529008E+04  0.00000000000E+00 0. -1.
         21   -1    0    0  502  503 -0.00000000000E+00 -0.00000000000E+00 -0.84376898695E+02  0.84376898695E+02  0.00000000000E+00 0.  1.
         -6    2    1    2    0  503 -0.87373653537E+02 -0.18276808706E+02  0.44333215781E+02  0.19749481600E+03  0.17050094210E+03 0.  0.
        -24    2    3    3    0    0 -0.17215908201E+02 -0.58696404619E+02 -0.61336623647E+01  0.10197074179E+03  0.81355730938E+02 0.  0.
          6    2    1    2  501    0  0.87373653537E+02  0.18276808706E+02  0.12034427863E+04  0.12190349835E+04  0.17263705847E+03 0.  0.
         24    2    5    5    0    0  0.18714971176E+02 -0.47960699035E+02  0.73144849439E+03  0.73747281335E+03  0.78732278555E+02 0.  0.
          5    1    5    5  501    0  0.68658682362E+02  0.66237507741E+02  0.47199429196E+03  0.48156217017E+03  0.47000000000E+01 0. -1.
        -13    1    6    6    0    0 -0.94272250824E+01  0.16740694910E+02  0.26759435857E+03  0.26828317908E+03  0.00000000000E+00 0.  1.
         14    1    6    6    0    0  0.28142196258E+02 -0.64701393945E+02  0.46385413582E+03  0.46918963427E+03  0.00000000000E+00 0. -1.
         -5    1    3    3    0  503 -0.70157745336E+02  0.40419595913E+02  0.50466878145E+02  0.95524074212E+02  0.47000000000E+01 0.  1.
         11    1    4    4    0    0 -0.35518461593E+02  0.28774747215E+01 -0.11667615195E+02  0.37496322740E+02  0.00000000000E+00 0. -1.
        -12    1    4    4    0    0  0.18302553391E+02 -0.61573879341E+02  0.55339528307E+01  0.64474419048E+02  0.00000000000E+00 0.  1.
</event>
<event>
12    1  0.8526130E-002  0.1923058E+03  0.7818608E-02  0.1156677E+00
         21   -1    0    0  501  502  0.00000000000E+00  0.00000000000E+00  0.15396151668E+04  0.15396151668E+04  0.00000000000E+00 0.  1.
         21   -1    0    0  502  503 -0.00000000000E+00 -0.00000000000E+00 -0.25143684066E+02  0.25143684066E+02  0.00000000000E+00 0.  1.
         -6    2    1    2    0  503 -0.83669354228E+02 -0.16712686569E+02  0.93610266480E+03  0.95565145580E+03  0.17234161192E+03 0.  0.
        -24    2    3    3    0    0 -0.10809390170E+03  0.20933260244E+02  0.81767904696E+03  0.82892332517E+03  0.79952249534E+02 0.  0.
          6    2    1    2  501    0  0.83669354228E+02  0.16712686569E+02  0.57836881798E+03  0.60910739511E+03  0.17094283968E+03 0.  0.
         24    2    5    5    0    0  0.35977150354E+02 -0.44701635598E+02  0.19016628247E+03  0.21316603095E+03  0.77355996466E+02 0.  0.
          5    1    5    5  501    0  0.47692203874E+02  0.61414322168E+02  0.38820253551E+03  0.39594136416E+03  0.47000000000E+01 0. -1.
        -11    1    6    6    0    0  0.51129836057E+02 -0.33678224916E+02  0.76586253571E+02  0.98050686916E+02  0.00000000000E+00 0.  1.
         12    1    6    6    0    0 -0.15152685703E+02 -0.11023410682E+02  0.11358002890E+03  0.11511534403E+03  0.00000000000E+00 0. -1.
         -5    1    3    3    0  503  0.24424547472E+02 -0.37645946813E+02  0.11842361784E+03  0.12672813063E+03  0.47000000000E+01 0.  1.
         13    1    4    4    0    0 -0.50066653864E+02 -0.10629921468E+02  0.16122681405E+03  0.16915599496E+03  0.00000000000E+00 0. -1.
        -14    1    4    4    0    0 -0.58027247835E+02  0.31563181712E+02  0.65645223291E+03  0.65976733022E+03  0.00000000000E+00 0.  1.
</event>
<event>
12    1  0.8526130E-002  0.2507904E+03  0.7818608E-02  0.1113368E+00
         21   -1    0    0  501  502  0.00000000000E+00  0.00000000000E+00  0.33390222439E+03  0.33390222439E+03  0.00000000000E+00 0.  1.
         21   -1    0    0  502  503 -0.00000000000E+00 -0.00000000000E+00 -0.33205416637E+03  0.33205416637E+03  0.00000000000E+00 0. -1.
         -6    2    1    2    0  503  0.53744570667E+02  0.16946532189E+03 -0.22012812109E+03  0.33103964478E+03  0.17182515102E+03 0.  0.
        -24    2    3    3    0    0  0.83495176435E+02  0.81576196311E+02 -0.18311713412E+03  0.23103214458E+03  0.78853324161E+02 0.  0.
          6    2    1    2  501    0 -0.53744570667E+02 -0.16946532189E+03  0.22197617910E+03  0.33491674598E+03  0.17688648464E+03 0.  0.
         24    2    5    5    0    0 -0.84218279981E+02 -0.16373223016E+03  0.22708689047E+03  0.30314058084E+03  0.80154813025E+02 0.  0.
          5    1    5    5  501    0  0.30473709314E+02 -0.57330917348E+01 -0.51107113731E+01  0.31776165139E+02  0.47000000000E+01 0. -1.
        -11    1    6    6    0    0 -0.11955992436E+02 -0.11001130995E+03  0.12019355151E+03  0.16337663204E+03  0.00000000000E+00 0.  1.
         12    1    6    6    0    0 -0.72262287545E+02 -0.53720920208E+02  0.10689333896E+03  0.13976394880E+03  0.00000000000E+00 0. -1.
         -5    1    3    3    0  503 -0.29750605768E+02  0.87889125583E+02 -0.37010986969E+02  0.10000750020E+03  0.47000000000E+01 0.  1.
         11    1    4    4    0    0  0.35254492775E+02  0.84168886711E+02 -0.13414864864E+03  0.16224407750E+03  0.00000000000E+00 0. -1.
        -12    1    4    4    0    0  0.48240683660E+02 -0.25926904002E+01 -0.48968485473E+02  0.68788067083E+02  0.00000000000E+00 0.  1.
</event>
<event>
12    1  0.8526130E-002  0.1837215E+03  0.7818608E-02  0.1164258E+00
         21   -1    0    0  503  502  0.00000000000E+00  0.00000000000E+00  0.30719550678E+03  0.30719550678E+03  0.00000000000E+00 0.  1.
         21   -1    0    0  501  503 -0.00000000000E+00 -0.00000000000E+00 -0.13496385877E+03  0.13496385877E+03  0.00000000000E+00 0.  1.
          6    2    1    2  501    0 -0.51228886280E+02  0.41734504288E+02 -0.92487671247E+01  0.18391773984E+03  0.17138852848E+03 0.  0.
         24    2    3    3    0    0 -0.26803785533E+02  0.10507664666E+02 -0.71353398587E+02  0.11008836690E+03  0.78735551697E+02 0.  0.
         -6    2    1    2    0  502  0.51228886280E+02 -0.41734504288E+02  0.18148041514E+03  0.25824162572E+03  0.17142761895E+03 0.  0.
        -24    2    5    5    0    0 -0.14869294475E+02 -0.67284863104E+02  0.71253571630E+02  0.12711635217E+03  0.79581070598E+02 0.  0.
          5    1    3    3  501    0 -0.24425100746E+02  0.31226839621E+02  0.62104631463E+02  0.73829372937E+02  0.47000000000E+01 0. -1.
        -13    1    4    4    0    0 -0.41451886941E+02  0.33794034962E+02 -0.59865809318E+02  0.80275842290E+02  0.00000000000E+00 0.  1.
         14    1    4    4    0    0  0.14648101408E+02 -0.23286370295E+02 -0.11487589269E+02  0.29812524610E+02  0.00000000000E+00 0. -1.
         -5    1    5    5    0  502  0.66098180754E+02  0.25550358817E+02  0.11022684351E+03  0.13112527355E+03  0.47000000000E+01 0.  1.
         11    1    6    6    0    0 -0.19765273197E+01  0.89928438541E+01 -0.10902772874E+02  0.14270541586E+02  0.00000000000E+00 0. -1.
        -12    1    6    6    0    0 -0.12892767155E+02 -0.76277706958E+02  0.82156344504E+02  0.11284581058E+03  0.00000000000E+00 0.  1.
</event>
<event>
12    1  0.8526130E-002  0.1979438E+03  0.7818608E-02  0.1151862E+00
         21   -1    0    0  503  502  0.00000000000E+00  0.00000000000E+00  0.77404809168E+03  0.77404809168E+03  0.00000000000E+00 0. -1.
         21   -1    0    0  501  503 -0.00000000000E+00 -0.00000000000E+00 -0.94845945802E+02  0.94845945802E+02  0.00000000000E+00 0.  1.
          6    2    1    2  501    0  0.92839061958E+02  0.20576420773E+02  0.42237848935E+02  0.20240003581E+03  0.17360661882E+03 0.  0.
         24    2    3    3    0    0  0.81614067445E+02  0.64228637875E+02 -0.12331823193E+02  0.13146728120E+03  0.79658007983E+02 0.  0.
         -6    2    1    2    0  502 -0.92839061958E+02 -0.20576420773E+02  0.63696429694E+03  0.66649400167E+03  0.17160494797E+03 0.  0.
        -24    2    5    5    0    0 -0.32751276863E+02  0.31081743118E+02  0.49803302828E+03  0.50648432938E+03  0.80316609488E+02 0.  0.
          5    1    3    3  501    0  0.11224994513E+02 -0.43652217103E+02  0.54569672128E+02  0.70932754606E+02  0.47000000000E+01 0. -1.
        -11    1    4    4    0    0  0.29702628942E+02 -0.25910412768E+01 -0.32888102676E+02  0.44391293725E+02  0.00000000000E+00 0.  1.
         12    1    4    4    0    0  0.51911438503E+02  0.66819679152E+02  0.20556279483E+02  0.87075987480E+02  0.00000000000E+00 0. -1.
         -5    1    5    5    0  502 -0.60087785095E+02 -0.51658163891E+02  0.13893126866E+03  0.16000967229E+03  0.47000000000E+01 0.  1.
         13    1    6    6    0    0 -0.47676137413E+02  0.15415154806E+02  0.46004861128E+03  0.46276923603E+03  0.00000000000E+00 0. -1.
        -14    1    6    6    0    0  0.14924860550E+02  0.15666588312E+02  0.37984417000E+02  0.43715093350E+02  0.00000000000E+00 0.  1.
</event>
<event>
12    1  0.8526130E-002  0.2538775E+03  0.7818608E-02  0.1112185E+00
         21   -1    0    0  501  502  0.00000000000E+00  0.00000000000E+00  0.40935350000E+03  0.40935350000E+03  0.00000000000E+00 0. -1.
         21   -1    0    0  502  503 -0.00000000000E+00 -0.00000000000E+00 -0.18131965462E+03  0.18131965462E+03  0.00000000000E+00 0.  1.
         -6    2    1    2    0  503 -0.99893827327E+02  0.14021037138E+03 -0.24217126387E+01  0.25388905729E+03  0.18659063144E+03 0.  0.
        -24    2    3    3    0    0  0.10300433053E+02  0.77269208137E+02  0.39277348683E+02  0.12022804291E+03  0.82676736356E+02 0.  0.
          6    2    1    2  501    0  0.99893827327E+02 -0.14021037138E+03  0.23045555802E+03  0.33678409733E+03  0.17514576503E+03 0.  0.
         24    2    5    5    0    0  0.28002912263E+02 -0.17329564717E+02  0.14265167429E+03  0.16945326241E+03  0.85325442016E+02 0.  0.
          5    1    5    5  501    0  0.71890915064E+02 -0.12288080666E+03  0.87803883730E+02  0.16733083491E+03  0.47000000000E+01 0. -1.
        -11    1    6    6    0    0 -0.71521651033E+01  0.18088106388E+02  0.12348961748E+01  0.19489946817E+02  0.00000000000E+00 0.  1.
         12    1    6    6    0    0  0.35155077367E+02 -0.35417671105E+02  0.14141677812E+03  0.14996331559E+03  0.00000000000E+00 0. -1.
         -5    1    3    3    0  503 -0.11019426038E+03  0.62941163244E+02 -0.41699061321E+02  0.13366101438E+03  0.47000000000E+01 0.  1.
         11    1    4    4    0    0  0.12472650072E+02 -0.13985471702E+02 -0.40727328599E+01  0.19176745592E+02  0.00000000000E+00 0. -1.
        -12    1    4    4    0    0 -0.21722170187E+01  0.91254679839E+02  0.43350081543E+02  0.10105129732E+03  0.00000000000E+00 0.  1.
</event>
<event>
12    1  0.8526130E-002  0.1780804E+03  0.7818608E-02  0.1169821E+00
         21   -1    0    0  501  502  0.00000000000E+00  0.00000000000E+00  0.46665242175E+03  0.46665242175E+03  0.00000000000E+00 0. -1.
         21   -1    0    0  502  503 -0.00000000000E+00 -0.00000000000E+00 -0.12329103234E+03  0.12329103234E+03  0.00000000000E+00 0. -1.
         -6    2    1    2    0  503  0.35118654005E+02  0.30174442912E+02 -0.26496053957E+02  0.17944723059E+03  0.17133432472E+03 0.  0.
        -24    2    3    3    0    0  0.49854774518E+02  0.73008662488E+02  0.98541338864E+01  0.12117760067E+03  0.82286958923E+02 0.  0.
          6    2    1    2  501    0 -0.35118654005E+02 -0.30174442912E+02  0.36985744337E+03  0.41049622350E+03  0.17195582058E+03 0.  0.
         24    2    5    5    0    0 -0.14776134168E+02 -0.43624840682E+02  0.86487692848E+02  0.12604018679E+03  0.79275133594E+02 0.  0.
          5    1    5    5  501    0 -0.20342519837E+02  0.13450397770E+02  0.28336975052E+03  0.28445603671E+03  0.47000000000E+01 0. -1.
        -11    1    6    6    0    0 -0.79913904545E+01  0.22076421649E+02  0.11605176530E+02  0.26189899513E+02  0.00000000000E+00 0.  1.
         12    1    6    6    0    0 -0.67847437132E+01 -0.65701262331E+02  0.74882516319E+02  0.99850287277E+02  0.00000000000E+00 0. -1.
         -5    1    3    3    0  503 -0.14736120513E+02 -0.42834219576E+02 -0.36350187843E+02  0.58269629917E+02  0.47000000000E+01 0.  1.
         11    1    4    4    0    0  0.11291586302E+02  0.58823643887E+02 -0.27259044951E+02  0.65808635703E+02  0.00000000000E+00 0. -1.
        -12    1    4    4    0    0  0.38563188216E+02  0.14185018600E+02  0.37113178837E+02  0.55368964967E+02  0.00000000000E+00 0.  1.
</event>
<event>
12    1  0.8526130E-002  0.3059057E+03  0.7818608E-02  0.1082707E+00
         21   -1    0    0  503  502  0.00000000000E+00  0.00000000000E+00  0.35374129159E+03  0.35374129159E+03  0.00000000000E+00 0.  1.
         21   -1    0    0  501  503 -0.00000000000E+00 -0.00000000000E+00 -0.34790417360E+03  0.34790417360E+03  0.00000000000E+00 0. -1.
          6    2    1    2  501    0  0.22902255902E+03  0.97691087568E+02 -0.17154573714E+03  0.35072244670E+03  0.17771722922E+03 0.  0.
         24    2    3    3    0    0  0.10897423343E+03 -0.17899214770E+02 -0.79383391167E+02  0.16022649796E+03  0.84705622104E+02 0.  0.
         -6    2    1    2    0  502 -0.22902255902E+03 -0.97691087568E+02  0.17738285514E+03  0.35092301848E+03  0.17230033801E+03 0.  0.
        -24    2    5    5    0    0 -0.70858198912E+02 -0.25550487500E+02  0.96988488598E+01  0.10934436267E+03  0.78666449095E+02 0.  0.
          5    1    3    3  501    0  0.12004832559E+03  0.11559030234E+03 -0.92162345973E+02  0.19049594874E+03  0.47000000000E+01 0. -1.
        -11    1    4    4    0    0  0.12151857766E+03 -0.14654540884E+02 -0.58525106099E+02  0.13567132464E+03  0.00000000000E+00 0.  1.
         12    1    4    4    0    0 -0.12544344236E+02 -0.32446738863E+01 -0.20858285068E+02  0.24555173323E+02  0.00000000000E+00 0. -1.
         -5    1    5    5    0  502 -0.15816436010E+03 -0.72140600068E+02  0.16768400628E+03  0.24157865582E+03  0.47000000000E+01 0.  1.
         11    1    6    6    0    0  0.28626687015E+01  0.86477691103E+01 -0.20670338167E+02  0.22588529448E+02  0.00000000000E+00 0. -1.
        -12    1    6    6    0    0 -0.73720867613E+02 -0.34198256611E+02  0.30369187026E+02  0.86755833219E+02  0.00000000000E+00 0.  1.
</event>
<event>
12    1  0.8526130E-002  0.1905730E+03  0.7818608E-02  0.1158054E+00
         21   -1    0    0  501  502  0.00000000000E+00  0.00000000000E+00  0.72686363792E+02  0.72686363792E+02  0.00000000000E+00 0. -1.
         21   -1    0    0  502  503 -0.00000000000E+00 -0.00000000000E+00 -0.69899104034E+03  0.69899104034E+03  0.00000000000E+00 0. -1.
         -6    2    1    2    0  503  0.60737332250E+02  0.53882139117E+02 -0.52013643366E+03  0.55394944777E+03  0.17241163714E+03 0.  0.
        -24    2    3    3    0    0  0.99921092416E+02  0.24362733379E+02 -0.27683589559E+03  0.30570762172E+03  0.79001705064E+02 0.  0.
          6    2    1    2  501    0 -0.60737332250E+02 -0.53882139117E+02 -0.10616824288E+03  0.21772795635E+03  0.17187628905E+03 0.  0.
         24    2    5    5    0    0  0.15032672830E+01  0.22753591277E+02 -0.88885690109E+02  0.11739000723E+03  0.73210396556E+02 0.  0.
          5    1    5    5  501    0 -0.62240599533E+02 -0.76635730394E+02 -0.17282552772E+02  0.10033794912E+03  0.47000000000E+01 0. -1.
        -13    1    6    6    0    0 -0.24070297692E+01 -0.26714618409E+02 -0.35644915131E+02  0.44609691814E+02  0.00000000000E+00 0.  1.
         14    1    6    6    0    0  0.39102970522E+01  0.49468209686E+02 -0.53240774978E+02  0.72780315421E+02  0.00000000000E+00 0. -1.
         -5    1    3    3    0  503 -0.39183760166E+02  0.29519405737E+02 -0.24330053808E+03  0.24824182606E+03  0.47000000000E+01 0.  1.
         11    1    4    4    0    0 -0.11556537992E+02  0.10501126360E+02 -0.53179521791E+02  0.55424622354E+02  0.00000000000E+00 0. -1.
        -12    1    4    4    0    0  0.11147763041E+03  0.13861607019E+02 -0.22365637379E+03  0.25028299936E+03  0.00000000000E+00 0.  1.
</event>
<event>
12    1  0.8526130E-002  0.1883960E+03  0.7818608E-02  0.1160240E+00
         21   -1    0    0  503  502  0.00000000000E+00  0.00000000000E+00  0.17403009902E+03  0.17403009902E+03  0.00000000000E+00 0.  1.
         21   -1    0    0  501  503 -0.00000000000E+00 -0.00000000000E+00 -0.35397627152E+03  0.35397627152E+03  0.00000000000E+00 0.  1.
          6    2    1    2  501    0  0.24985314390E+02 -0.71339689701E+02 -0.26291338183E+03  0.32344474875E+03  0.17256720975E+03 0.  0.
         24    2    3    3    0    0  0.83748214821E+02 -0.49533646877E+02 -0.15242582518E+03  0.19632994966E+03  0.76449141879E+02 0.  0.
         -6    2    1    2    0  502 -0.24985314390E+02  0.71339689701E+02  0.82967209334E+02  0.20456162179E+03  0.17102129114E+03 0.  0.
        -24    2    5    5    0    0 -0.40402497468E+02  0.78582737172E+02  0.11706137359E+03  0.16616040687E+03  0.78091659223E+02 0.  0.
          5    1    3    3  501    0 -0.58762900431E+02 -0.21806042824E+02 -0.11048755665E+03  0.12711479908E+03  0.47000000000E+01 0. -1.
        -11    1    4    4    0    0  0.67166988304E+02 -0.45501298541E+02 -0.15863052944E+03  0.17817243714E+03  0.00000000000E+00 0.  1.
         12    1    4    4    0    0  0.16581226517E+02 -0.40323483360E+01  0.62047042615E+01  0.18157512519E+02  0.00000000000E+00 0. -1.
         -5    1    5    5    0  502  0.15417183079E+02 -0.72430474715E+01 -0.34094164258E+02  0.38401214919E+02  0.47000000000E+01 0.  1.
         13    1    6    6    0    0  0.10757320736E+02  0.16195025637E+02 -0.47857510438E+01  0.20022542742E+02  0.00000000000E+00 0. -1.
        -14    1    6    6    0    0 -0.51159818205E+02  0.62387711535E+02  0.12184712464E+03  0.14613786413E+03  0.00000000000E+00 0.  1.
</event>
<event>
12    1  0.8526130E-002  0.1753763E+03  0.7818608E-02  0.1172733E+00
         21   -1    0    0  501  502  0.00000000000E+00  0.00000000000E+00  0.19818217588E+04  0.19818217588E+04  0.00000000000E+00 0.  1.
         21   -1    0    0  502  503 -0.00000000000E+00 -0.00000000000E+00 -0.39033032581E+02  0.39033032581E+02  0.00000000000E+00 0.  1.
         -6    2    1    2    0  503 -0.18118164154E+02  0.21287622539E+02  0.18329246935E+03  0.25263989530E+03  0.17160814850E+03 0.  0.
        -24    2    3    3    0    0 -0.16903014872E+02  0.22396085237E+02  0.20953805288E+03  0.22592611735E+03  0.79681355108E+02 0.  0.
          6    2    1    2  501    0  0.18118164154E+02 -0.21287622539E+02  0.17594962569E+04  0.17682148961E+04  0.17313408107E+03 0.  0.
         24    2    5    5    0    0  0.68170102681E+02  0.20451537626E+02  0.92685053397E+03  0.93300932623E+03  0.79931609654E+02 0.  0.
          5    1    5    5  501    0 -0.50051938527E+02 -0.41739160166E+02  0.83264572289E+03  0.83520556984E+03  0.47000000000E+01 0. -1.
        -11    1    6    6    0    0  0.63921157879E+02 -0.12511019216E+02  0.76581698546E+03  0.76858187283E+03  0.00000000000E+00 0.  1.
         12    1    6    6    0    0  0.42489448024E+01  0.32962556842E+02  0.16103354851E+03  0.16442745340E+03  0.00000000000E+00 0. -1.
         -5    1    3    3    0  503 -0.12151492816E+01 -0.11084626980E+01 -0.26245583532E+02  0.26713777948E+02  0.47000000000E+01 0.  1.
         11    1    4    4    0    0 -0.43449075462E+02 -0.76230301009E+01  0.10039427189E+03  0.10965829916E+03  0.00000000000E+00 0. -1.
        -12    1    4    4    0    0  0.26546060590E+02  0.30019115338E+02  0.10914378099E+03  0.11626781819E+03  0.00000000000E+00 0.  1.
</event>
<event>
12    1  0.8526130E-002  0.1887363E+03  0.7818608E-02  0.1159645E+00
         21   -1    0    0  501  502  0.00000000000E+00  0.00000000000E+00  0.33925295780E+02  0.33925295780E+02  0.00000000000E+00 0.  1.
         21   -1    0    0  502  503 -0.00000000000E+00 -0.00000000000E+00 -0.11921211419E+04  0.11921211419E+04  0.00000000000E+00 0.  1.
         -6    2    1    2    0  503  0.45949853812E+02  0.60934919292E+02 -0.79123980744E+03  0.81339875521E+03  0.17243157672E+03 0.  0.
        -24    2    3    3    0    0  0.69856683031E+02  0.67846742110E+02 -0.37403648911E+03  0.39542745404E+03  0.83525083927E+02 0.  0.
          6    2    1    2  501    0 -0.45949853812E+02 -0.60934919292E+02 -0.36695603870E+03  0.41264768249E+03  0.17261784980E+03 0.  0.
         24    2    5    5    0    0  0.27213847534E+02 -0.62467930086E+02 -0.14170728612E+03  0.17576296821E+03  0.78541901361E+02 0.  0.
          5    1    5    5  501    0 -0.73163701347E+02  0.15330107939E+01 -0.22524875258E+03  0.23688471428E+03  0.47000000000E+01 0. -1.
        -13    1    6    6    0    0 -0.12781586675E+02 -0.18543723764E+02 -0.45420605035E+00  0.22526538840E+02  0.00000000000E+00 0.  1.
         14    1    6    6    0    0  0.39995434209E+02 -0.43924206322E+02 -0.14125308007E+03  0.15323642937E+03  0.00000000000E+00 0. -1.
         -5    1    3    3    0  503 -0.23906829218E+02 -0.69118228183E+01 -0.41720331832E+03  0.41797130117E+03  0.47000000000E+01 0.  1.
         13    1    4    4    0    0  0.10094355425E+02 -0.21086185717E+01 -0.73606133341E-01  0.10312502198E+02  0.00000000000E+00 0. -1.
        -14    1    4    4    0    0  0.59762327605E+02  0.69955360682E+02 -0.37396288298E+03  0.38511495185E+03  0.00000000000E+00 0.  1.
</event>
<event>
12    1  0.8526130E-002  0.2707462E+03  0.7818608E-02  0.1100871E+00
         21   -1    0    0  501  502  0.00000000000E+00  0.00000000000E+00  0.12903655596E+03  0.12903655596E+03  0.00000000000E+00 0. -1.
         21   -1    0    0  502  503 -0.00000000000E+00 -0.00000000000E+00 -0.62320745197E+03  0.62320745197E+03  0.00000000000E+00 0.  1.
         -6    2    1    2    0  503 -0.81432459454E+02  0.19237324180E+03 -0.35926300941E+03  0.44985932630E+03  0.17223470588E+03 0.  0.
        -24    2    3    3    0    0  0.18807058378E+02  0.93146079304E+02 -0.12900324117E+03  0.17979333143E+03  0.81571491708E+02 0.  0.
          6    2    1    2  501    0  0.81432459454E+02 -0.19237324180E+03 -0.13490788659E+03  0.30238468164E+03  0.17203967045E+03 0.  0.
         24    2    5    5    0    0 -0.14360283387E+02 -0.57460286196E+02 -0.22735966593E+02  0.10242872447E+03  0.80416523119E+02 0.  0.
          5    1    5    5  501    0  0.95792742842E+02 -0.13491295560E+03 -0.11217192000E+03  0.19995595717E+03  0.47000000000E+01 0. -1.
        -11    1    6    6    0    0  0.52143152662E+01 -0.11453544782E+02  0.28306933121E+02  0.30978302641E+02  0.00000000000E+00 0.  1.
         12    1    6    6    0    0 -0.19574598654E+02 -0.46006741414E+02 -0.51042899714E+02  0.71450421827E+02  0.00000000000E+00 0. -1.
         -5    1    3    3    0  503 -0.10023951783E+03  0.99227162496E+02 -0.23025976824E+03  0.27006599487E+03  0.47000000000E+01 0.  1.
         11    1    4    4    0    0  0.26605202035E+01  0.48711497443E+02 -0.74244218030E+01  0.49345824444E+02  0.00000000000E+00 0. -1.
        -12    1    4    4    0    0  0.16146538175E+02  0.44434581861E+02 -0.12157881937E+03  0.13044750698E+03  0.00000000000E+00 0.  1.
</event>
<event>
12    1  0.8526130E-002  0.2137895E+03  0.7818608E-02  0.1138624E+00
         21   -1    0    0  503  502  0.00000000000E+00  0.00000000000E+00  0.19492820321E+03  0.19492820321E+03  0.00000000000E+00 0. -1.
         21   -1    0    0  501  503 -0.00000000000E+00 -0.00000000000E+00 -0.23434604400E+03  0.23434604400E+03  0.00000000000E+00 0.  1.
          6    2    1    2  501    0  0.12079257343E+03  0.38549045310E+02 -0.18632266512E+02  0.21447669558E+03  0.17197737322E+03 0.  0.
         24    2    3    3    0    0 -0.94976251838E+01  0.17510229297E+02 -0.90249980127E+01  0.82066132398E+02  0.79098587114E+02 0.  0.
         -6    2    1    2    0  502 -0.12079257343E+03 -0.38549045310E+02 -0.20785574279E+02  0.21479755163E+03  0.17213097745E+03 0.  0.
        -24    2    5    5    0    0  0.43716822571E+01  0.71145135989E+00  0.73257375325E+01  0.80559653288E+02  0.80103517642E+02 0.  0.
          5    1    3    3  501    0  0.13029019861E+03  0.21038816012E+02 -0.96072684988E+01  0.13241056318E+03  0.47000000000E+01 0. -1.
        -13    1    4    4    0    0  0.33055087591E+02  0.18087199991E+02  0.31240209079E+01  0.37809325911E+02  0.00000000000E+00 0.  1.
         14    1    4    4    0    0 -0.42552712775E+02 -0.57697069381E+00 -0.12149018921E+02  0.44256806487E+02  0.00000000000E+00 0. -1.
         -5    1    5    5    0  502 -0.12516425569E+03 -0.39260496670E+02 -0.28111311811E+02  0.13423789834E+03  0.47000000000E+01 0.  1.
         11    1    6    6    0    0  0.16057118665E+02 -0.32431554911E+02 -0.14726998293E+02  0.39070721679E+02  0.00000000000E+00 0. -1.
        -12    1    6    6    0    0 -0.11685436408E+02  0.33143006271E+02  0.22052735825E+02  0.41488931609E+02  0.00000000000E+00 0.  1.
</event>
<event>
12    1  0.8526130E-002  0.1904508E+03  0.7818608E-02  0.1161422E+00
         21   -1    0    0  501  502  0.00000000000E+00  0.00000000000E+00  0.16653913829E+03  0.16653913829E+03  0.00000000000E+00 0.  1.
         21   -1    0    0  502  503 -0.00000000000E+00 -0.00000000000E+00 -0.39694923485E+03  0.39694923485E+03  0.00000000000E+00 0.  1.
         -6    2    1    2    0  503 -0.79636648552E+02 -0.11213222910E+02 -0.31502991595E+03  0.36812412537E+03  0.17263774667E+03 0.  0.
        -24    2    3    3    0    0 -0.10097098625E+02 -0.11593902170E+02 -0.52117081312E+02  0.96129378109E+02  0.79298784373E+02 0.  0.
          6    2    1    2  501    0  0.79636648552E+02  0.11213222910E+02  0.84619819393E+02  0.19536424777E+03  0.15664910887E+03 0.  0.
         24    2    5    5    0    0  0.62211448763E+02  0.65804176632E+02  0.72625383527E+02  0.13662953650E+03  0.72060598750E+02 0.  0.
          5    1    5    5  501    0  0.17425199789E+02 -0.54590953722E+02  0.11994435866E+02  0.58734711268E+02  0.47000000000E+01 0. -1.
        -13    1    6    6    0    0  0.68323513795E+02  0.48098433877E+02  0.27818260397E+02  0.88064848210E+02  0.00000000000E+00 0.  1.
         14    1    6    6    0    0 -0.61120650320E+01  0.17705742755E+02  0.44807123131E+02  0.48564688290E+02  0.00000000000E+00 0. -1.
         -5    1    3    3    0  503 -0.69539549927E+02  0.38067926059E+00 -0.26291283464E+03  0.27199474726E+03  0.47000000000E+01 0.  1.
         11    1    4    4    0    0  0.12602540856E+02  0.30470522129E+02 -0.21690670181E+02  0.39468492849E+02  0.00000000000E+00 0. -1.
        -12    1    4    4    0    0 -0.22699639480E+02 -0.42064424300E+02 -0.30426411131E+02  0.56660885260E+02  0.00000000000E+00 0.  1.
</event>
<event>
12    1  0.8526130E-002  0.1931145E+03  0.7818608E-02  0.1155741E+00
         21   -1    0    0  501  502  0.00000000000E+00  0.00000000000E+00  0.96976627559E+02  0.96976627559E+02  0.00000000000E+00 0.  1.
         21   -1    0    0  502  503 -0.00000000000E+00 -0.00000000000E+00 -0.43395072899E+03  0.43395072899E+03  0.00000000000E+00 0.  1.
         -6    2    1    2    0  503 -0.59011072180E+01  0.86328454615E+02 -0.25842583852E+03  0.32244947749E+03  0.17234362875E+03 0.  0.
        -24    2    3    3    0    0 -0.55045446781E+01 -0.41034027078E+00 -0.20495905489E+03  0.22044671893E+03  0.80981932037E+02 0.  0.
          6    2    1    2  501    0  0.59011072180E+01 -0.86328454615E+02 -0.78548262901E+02  0.20847787906E+03  0.17264348036E+03 0.  0.
         24    2    5    5    0    0  0.24975154443E+02 -0.28570586936E+01  0.11550047547E+02  0.84095047606E+02  0.79414433888E+02 0.  0.
          5    1    5    5  501    0 -0.19074047225E+02 -0.83471395922E+02 -0.90098310448E+02  0.12438283145E+03  0.47000000000E+01 0. -1.
        -13    1    6    6    0    0  0.18827349976E+02 -0.40487812783E+02  0.10888500824E+02  0.45959672989E+02  0.00000000000E+00 0.  1.
         14    1    6    6    0    0  0.61478044675E+01  0.37630754090E+02  0.66154672335E+00  0.38135374617E+02  0.00000000000E+00 0. -1.
         -5    1    3    3    0  503 -0.39656253988E+00  0.86738794886E+02 -0.53466783639E+02  0.10200275856E+03  0.47000000000E+01 0.  1.
         11    1    4    4    0    0  0.61322946243E+01 -0.33347966871E+02 -0.42985153574E+02  0.54748656235E+02  0.00000000000E+00 0. -1.
        -12    1    4    4    0    0 -0.11636839302E+02  0.32937626600E+02 -0.16197390131E+03  0.16569806270E+03  0.00000000000E+00 0.  1.
</event>
<event>
12    1  0.8526130E-002  0.1881664E+03  0.7818608E-02  0.1160244E+00
         21   -1    0    0  501  502  0.00000000000E+00  0.00000000000E+00  0.81031195793E+03  0.81031195793E+03  0.00000000000E+00 0.  1.
         21   -1    0    0  502  503 -0.00000000000E+00 -0.00000000000E+00 -0.51150854276E+02  0.51150854276E+02  0.00000000000E+00 0.  1.
         -6    2    1    2    0  503  0.77239492797E+02  0.56376520667E+01  0.54579529221E+03  0.57732061613E+03  0.17149014677E+03 0.  0.
        -24    2    3    3    0    0  0.46987475501E+02 -0.57852655971E+02  0.41044975707E+03  0.42472078767E+03  0.79774630917E+02 0.  0.
          6    2    1    2  501    0 -0.77239492797E+02 -0.56376520667E+01  0.21336581145E+03  0.28414219608E+03  0.17092131444E+03 0.  0.
         24    2    5    5    0    0 -0.19532522814E+02  0.21279594061E+02  0.20505976886E+03  0.21975498565E+03  0.73541854357E+02 0.  0.
          5    1    5    5  501    0 -0.57706969983E+02 -0.26917246128E+02  0.83060425890E+01  0.64387210432E+02  0.47000000000E+01 0. -1.
        -11    1    6    6    0    0  0.22040182536E+02  0.24745081862E+01  0.22553725051E+02  0.31631682704E+02  0.00000000000E+00 0.  1.
         12    1    6    6    0    0 -0.41572705349E+02  0.18805085875E+02  0.18250604381E+03  0.18812330295E+03  0.00000000000E+00 0. -1.
         -5    1    3    3    0  503  0.30252017296E+02  0.63490308038E+02  0.13534553513E+03  0.15259982846E+03  0.47000000000E+01 0.  1.
         11    1    4    4    0    0  0.31798802508E+02  0.95891736940E+01  0.72117849944E+02  0.79398365056E+02  0.00000000000E+00 0. -1.
        -12    1    4    4    0    0  0.15188672993E+02 -0.67441829665E+02  0.33833190713E+03  0.34532242261E+03  0.00000000000E+00 0.  1.
</event>
<event>
12    1  0.8526130E-002  0.1716587E+03  0.7818608E-02  0.1177019E+00
         21   -1    0    0  503  502  0.00000000000E+00  0.00000000000E+00  0.12873570094E+03  0.12873570094E+03  0.00000000000E+00 0.  1.
         21   -1    0    0  501  503 -0.00000000000E+00 -0.00000000000E+00 -0.24380433807E+03  0.24380433807E+03  0.00000000000E+00 0.  1.
          6    2    1    2  501    0 -0.12525056348E+02  0.13291621650E+02 -0.11067442367E+03  0.20424380917E+03  0.17068439087E+03 0.  0.
         24    2    3    3    0    0  0.32640468701E+02  0.45401327671E+02 -0.26477428344E+02  0.10333701111E+03  0.82769577149E+02 0.  0.
         -6    2    1    2    0  502  0.12525056348E+02 -0.13291621650E+02 -0.43942134538E+01  0.16829622983E+03  0.16724463406E+03 0.  0.
        -24    2    5    5    0    0  0.67577696783E+02  0.82504656920E+00 -0.24900621510E+02  0.10769362005E+03  0.80065279892E+02 0.  0.
          5    1    3    3  501    0 -0.45165525049E+02 -0.32109706021E+02 -0.84196995330E+02  0.10090679807E+03  0.47000000000E+01 0. -1.
        -11    1    4    4    0    0 -0.16361818230E+02  0.34531638576E+02  0.12044674510E+02  0.40065163703E+02  0.00000000000E+00 0.  1.
         12    1    4    4    0    0  0.49002286931E+02  0.10869689096E+02 -0.38522102854E+02  0.63271847404E+02  0.00000000000E+00 0. -1.
         -5    1    5    5    0  502 -0.55052640435E+02 -0.14116668219E+02  0.20506408056E+02  0.60602609777E+02  0.47000000000E+01 0.  1.
         13    1    6    6    0    0  0.20548066552E+02  0.38276772442E+02 -0.24296133268E+01  0.43511347584E+02  0.00000000000E+00 0. -1.
        -14    1    6    6    0    0  0.47029630231E+02 -0.37451725873E+02 -0.22471008183E+02  0.64182272469E+02  0.00000000000E+00 0.  1.
</event>
<event>
12    1  0.8526130E-002  0.1822133E+03  0.7818608E-02  0.1165947E+00
         21   -1    0    0  503  502  0.00000000000E+00  0.00000000000E+00  0.12566835232E+03  0.12566835232E+03  0.00000000000E+00 0. -1.
         21   -1    0    0  501  503 -0.00000000000E+00 -0.00000000000E+00 -0.26277621189E+03  0.26277621189E+03  0.00000000000E+00 0. -1.
          6    2    1    2  501    0 -0.57357541989E+02  0.48254925525E+01 -0.63322459018E+02  0.19290262548E+03  0.17288295492E+03 0.  0.
         24    2    3    3    0    0 -0.31226172148E+02 -0.50947125996E+02 -0.81267002144E+02  0.12857898988E+03  0.79734230581E+02 0.  0.
         -6    2    1    2    0  502  0.57357541989E+02 -0.48254925525E+01 -0.73785400549E+02  0.19554193872E+03  0.17169505369E+03 0.  0.
        -24    2    5    5    0    0 -0.28177010984E+02  0.33152297617E+02 -0.38049308261E+02  0.95254199736E+02  0.75713895178E+02 0.  0.
          5    1    3    3  501    0 -0.26131369842E+02  0.55772618549E+02  0.17944543126E+02  0.64323635606E+02  0.47000000000E+01 0. -1.
        -11    1    4    4    0    0 -0.11238846259E+02 -0.29061777956E+02 -0.91940337567E+02  0.97076898772E+02  0.00000000000E+00 0.  1.
         12    1    4    4    0    0 -0.19987325888E+02 -0.21885348040E+02  0.10673335423E+02  0.31502091106E+02  0.00000000000E+00 0. -1.
         -5    1    5    5    0  502  0.85534552973E+02 -0.37977790170E+02 -0.35736092288E+02  0.10028773898E+03  0.47000000000E+01 0.  1.
         13    1    6    6    0    0 -0.16587302426E+02 -0.17128739412E+02 -0.36541506029E+02  0.43632716836E+02  0.00000000000E+00 0. -1.
        -14    1    6    6    0    0 -0.11589708557E+02  0.50281037030E+02 -0.15078022314E+01  0.51621482900E+02  0.00000000000E+00 0.  1.
</event>
<event>
12    1  0.8526130E-002  0.1858679E+03  0.7818608E-02  0.1162412E+00
         21   -1    0    0  501  502  0.00000000000E+00  0.00000000000E+00  0.28855853055E+02  0.28855853055E+02  0.00000000000E+00 0. -1.
         21   -1    0    0  502  503 -0.00000000000E+00 -0.00000000000E+00 -0.18007245171E+04  0.18007245171E+04  0.00000000000E+00 0. -1.
         -6    2    1    2    0  503  0.50595671072E+02  0.46249167030E+02 -0.14187408114E+04  0.14308642068E+04  0.17276568245E+03 0.  0.
        -24    2    3    3    0    0 -0.17923760209E+02  0.52381647839E+02 -0.11266596827E+04  0.11307542344E+04  0.78600253460E+02 0.  0.
          6    2    1    2  501    0 -0.50595671072E+02 -0.46249167030E+02 -0.35312785259E+03  0.39871616329E+03  0.17197788000E+03 0.  0.
         24    2    5    5    0    0  0.76267568391E+01 -0.91714909410E+01 -0.30081357305E+03  0.31197817265E+03  0.81849195554E+02 0.  0.
          5    1    5    5  501    0 -0.58222427911E+02 -0.37077676089E+02 -0.52314279545E+02  0.86737990640E+02  0.47000000000E+01 0. -1.
        -11    1    6    6    0    0  0.66875512898E+01  0.35994275928E+02 -0.11183059243E+03  0.11767069578E+03  0.00000000000E+00 0.  1.
         12    1    6    6    0    0  0.93920554932E+00 -0.45165766869E+02 -0.18898298061E+03  0.19430747687E+03  0.00000000000E+00 0. -1.
         -5    1    3    3    0  503  0.68519431281E+02 -0.61324808083E+01 -0.29208112872E+03  0.30010997240E+03  0.47000000000E+01 0.  1.
         11    1    4    4    0    0  0.24128552391E+02  0.25144746648E+02 -0.22298686105E+03  0.22569356554E+03  0.00000000000E+00 0. -1.
        -12    1    4    4    0    0 -0.42052312601E+02  0.27236901190E+02 -0.90367282165E+03  0.90506066889E+03  0.00000000000E+00 0.  1.
</event>
<event>
12    1  0.8526130E-002  0.1772138E+03  0.7818608E-02  0.1171330E+00
         21   -1    0    0  503  502  0.00000000000E+00  0.00000000000E+00  0.83755965158E+03  0.83755965158E+03  0.00000000000E+00 0. -1.
         21   -1    0    0  501  503 -0.00000000000E+00 -0.00000000000E+00 -0.74868507679E+02  0.74868507679E+02  0.00000000000E+00 0. -1.
          6    2    1    2  501    0  0.13645342755E+02  0.33187710808E+02  0.54394957055E+02  0.18229926380E+03  0.17025448805E+03 0.  0.
         24    2    3    3    0    0 -0.44085149353E+02 -0.22685566403E+02  0.35089714950E+02  0.99538070007E+02  0.78856857463E+02 0.  0.
         -6    2    1    2    0  502 -0.13645342755E+02 -0.33187710808E+02  0.70829618684E+03  0.73012889546E+03  0.17354277903E+03 0.  0.
        -24    2    5    5    0    0  0.17490649020E+02 -0.63126956221E+01  0.66614219763E+03  0.67104619721E+03  0.78814963055E+02 0.  0.
          5    1    3    3  501    0  0.57730492108E+02  0.55873277212E+02  0.19305242105E+02  0.82761193794E+02  0.47000000000E+01 0. -1.
        -11    1    4    4    0    0  0.67553247576E+00  0.12794127243E+02  0.40200842338E+02  0.42193053465E+02  0.00000000000E+00 0.  1.
         12    1    4    4    0    0 -0.44760681829E+02 -0.35479693647E+02 -0.51111273882E+01  0.57345016542E+02  0.00000000000E+00 0. -1.
         -5    1    5    5    0  502 -0.31135991775E+02 -0.26875015186E+02  0.42153989219E+02  0.59082698247E+02  0.47000000000E+01 0.  1.
         13    1    6    6    0    0 -0.27241297872E+02 -0.19734861530E+02  0.23827871229E+03  0.24064142993E+03  0.00000000000E+00 0. -1.
        -14    1    6    6    0    0  0.44731946892E+02  0.13422165908E+02  0.42786348533E+03  0.43040476728E+03  0.00000000000E+00 0.  1.
</event>
<event>
12    1  0.8526130E-002  0.1740272E+03  0.7818608E-02  0.1173894E+00
         21   -1    0    0  503  502  0.00000000000E+00  0.00000000000E+00  0.19893722712E+03  0.19893722712E+03  0.00000000000E+00 0.  1.
         21   -1    0    0  501  503 -0.00000000000E+00 -0.00000000000E+00 -0.15577699512E+03  0.15577699512E+03  0.00000000000E+00 0.  1.
          6    2    1    2  501    0  0.29106970871E+02 -0.19494668805E+01 -0.74811046822E+01  0.17346848774E+03  0.17083422706E+03 0.  0.
         24    2    3    3    0    0  0.65421896142E+02 -0.62789294585E+01  0.41820819349E+02  0.11190317480E+03  0.80336107383E+02 0.  0.
         -6    2    1    2    0  502 -0.29106970871E+02  0.19494668805E+01  0.50641336681E+02  0.18124573451E+03  0.17156472575E+03 0.  0.
        -24    2    5    5    0    0 -0.62489411880E+02  0.39142037308E+02 -0.48281540606E+01  0.10643511316E+03  0.76603502273E+02 0.  0.
          5    1    3    3  501    0 -0.36314925271E+02  0.43294625780E+01 -0.49301924031E+02  0.61565312935E+02  0.47000000000E+01 0. -1.
        -11    1    4    4    0    0  0.51243035171E+02  0.24694440679E+02  0.51242061372E+02  0.76559864862E+02  0.00000000000E+00 0.  1.
         12    1    4    4    0    0  0.14178860971E+02 -0.30973370138E+02 -0.94212420232E+01  0.35343309938E+02  0.00000000000E+00 0. -1.
         -5    1    5    5    0  502  0.33382441009E+02 -0.37192570427E+02  0.55469490741E+02  0.74810621344E+02  0.47000000000E+01 0.  1.
         13    1    6    6    0    0 -0.91999410503E+00  0.18515989316E+02  0.28073693679E+02  0.33642540426E+02  0.00000000000E+00 0. -1.
        -14    1    6    6    0    0 -0.61569417775E+02  0.20626047992E+02 -0.32901847740E+02  0.72792572737E+02  0.00000000000E+00 0.  1.
</event>
<event>
12    1  0.8526130E-002  0.2020600E+03  0.7818608E-02  0.1148783E+00
         21   -1    0    0  503  502  0.00000000000E+00  0.00000000000E+00  0.92556727072E+02  0.92556727072E+02  0.00000000000E+00 0. -1.
         21   -1    0    0  501  503 -0.00000000000E+00 -0.00000000000E+00 -0.50214107745E+03  0.50214107745E+03  0.00000000000E+00 0. -1.
          6    2    1    2  501    0  0.96545290215E+02 -0.22363964525E+02 -0.31661799448E+03  0.37559979047E+03  0.17608835339E+03 0.  0.
         24    2    3    3    0    0  0.35647095555E+01  0.23040794207E+02 -0.73672058679E+02  0.11149413317E+03  0.80372782390E+02 0.  0.
         -6    2    1    2    0  502 -0.96545290215E+02  0.22363964525E+02 -0.92966355899E+02  0.21909801405E+03  0.17187220968E+03 0.  0.
        -24    2    5    5    0    0 -0.95157077483E+02 -0.25511747845E+02 -0.14796782972E+02  0.12730159201E+03  0.79252961254E+02 0.  0.
          5    1    3    3  501    0  0.92980580659E+02 -0.45404758732E+02 -0.24294593580E+03  0.26410565730E+03  0.47000000000E+01 0. -1.
        -11    1    4    4    0    0 -0.25004794802E+02  0.68361060221E+01 -0.74248791231E+02  0.78643849778E+02  0.00000000000E+00 0.  1.
         12    1    4    4    0    0  0.28569504357E+02  0.16204688185E+02  0.57673255231E+00  0.32850283390E+02  0.00000000000E+00 0. -1.
         -5    1    5    5    0  502 -0.13882127313E+01  0.47875712370E+02 -0.78169572926E+02  0.91796422049E+02  0.47000000000E+01 0.  1.
         11    1    6    6    0    0 -0.58545365139E+02  0.15707390998E+02  0.17900405707E+02  0.63203690048E+02  0.00000000000E+00 0. -1.
        -12    1    6    6    0    0 -0.36611712344E+02 -0.41219138843E+02 -0.32697188680E+02  0.64097901957E+02  0.00000000000E+00 0.  1.
</event>
<event>
12    1  0.8526130E-002  0.1883498E+03  0.7818608E-02  0.1160303E+00
         21   -1    0    0  501  502  0.00000000000E+00  0.00000000000E+00  0.56553361248E+03  0.56553361248E+03  0.00000000000E+00 0. -1.
         21   -1    0    0  502  503 -0.00000000000E+00 -0.00000000000E+00 -0.20071126815E+03  0.20071126815E+03  0.00000000000E+00 0. -1.
         -6    2    1    2    0  503 -0.53563097033E+02 -0.56397684774E+02 -0.13604957162E+03  0.23112964019E+03  0.16988737571E+03 0.  0.
        -24    2    3    3    0    0  0.39742624334E+02 -0.27325000345E+02 -0.46618032671E+02  0.98572977669E+02  0.72230596866E+02 0.  0.
          6    2    1    2  501    0  0.53563097033E+02  0.56397684774E+02  0.50087191595E+03  0.53511524044E+03  0.17153990832E+03 0.  0.
         24    2    5    5    0    0  0.94918753223E+02  0.28418662710E+02  0.26576717925E+03  0.29472089110E+03  0.80068845248E+02 0.  0.
          5    1    5    5  501    0 -0.41355656189E+02  0.27979022064E+02  0.23510473670E+03  0.24039434934E+03  0.47000000000E+01 0. -1.
        -13    1    6    6    0    0 -0.10713584756E+02  0.18098744768E+02  0.37784165328E+02  0.43243364925E+02  0.00000000000E+00 0.  1.
         14    1    6    6    0    0  0.10563233798E+03  0.10319917943E+02  0.22798301392E+03  0.25147752617E+03  0.00000000000E+00 0. -1.
         -5    1    3    3    0  503 -0.93305721367E+02 -0.29072684429E+02 -0.89431538950E+02  0.13255666252E+03  0.47000000000E+01 0.  1.
         13    1    4    4    0    0 -0.15661390296E+02 -0.11437686127E+02 -0.34648027564E+02  0.39706241626E+02  0.00000000000E+00 0. -1.
        -14    1    4    4    0    0  0.55404014630E+02 -0.15887314218E+02 -0.11970005107E+02  0.58866736044E+02  0.00000000000E+00 0.  1.
</event>
<event>
12    1  0.8526130E-002  0.2906565E+03  0.7818608E-02  0.1090279E+00
         21   -1    0    0  503  502  0.00000000000E+00  0.00000000000E+00  0.24362492937E+03  0.24362492937E+03  0.00000000000E+00 0.  1.
         21   -1    0    0  501  503 -0.00000000000E+00 -0.00000000000E+00 -0.42139014492E+03  0.42139014492E+03  0.00000000000E+00 0.  1.
          6    2    1    2  501    0  0.16193258689E+03  0.16454148650E+03  0.53086641535E+02  0.29546469920E+03  0.17659312978E+03 0.  0.
         24    2    3    3    0    0  0.14785610482E+03  0.55726243565E+02  0.80417897914E+01  0.17676325392E+03  0.78827251630E+02 0.  0.
         -6    2    1    2    0  502 -0.16193258689E+03 -0.16454148650E+03 -0.23085185708E+03  0.36955037509E+03  0.17314397573E+03 0.  0.
        -24    2    5    5    0    0 -0.66828448281E+02 -0.15250596479E+03 -0.10759364826E+03  0.21333153178E+03  0.78802528553E+02 0.  0.
          5    1    3    3  501    0  0.14076482069E+02  0.10881524293E+03  0.45044851744E+02  0.11870144527E+03  0.47000000000E+01 0. -1.
        -13    1    4    4    0    0  0.14588175588E+03  0.60681388213E+02  0.24114343711E+02  0.15982871815E+03  0.00000000000E+00 0.  1.
         14    1    4    4    0    0  0.19743489428E+01 -0.49551446487E+01 -0.16072553920E+02  0.16934535770E+02  0.00000000000E+00 0. -1.
         -5    1    5    5    0  502 -0.95104138609E+02 -0.12035521703E+02 -0.12325820882E+03  0.15621884331E+03  0.47000000000E+01 0.  1.
         13    1    6    6    0    0 -0.41125812910E+02 -0.93788717882E+02 -0.19278284271E+02  0.10420800513E+03  0.00000000000E+00 0. -1.
        -14    1    6    6    0    0 -0.25702635371E+02 -0.58717246910E+02 -0.88315363993E+02  0.10912352664E+03  0.00000000000E+00 0.  1.
</event>
<event>
12    1  0.8526130E-002  0.1798773E+03  0.7818608E-02  0.1168242E+00
         21   -1    0    0  503  502  0.00000000000E+00  0.00000000000E+00  0.28943264381E+03  0.28943264381E+03  0.00000000000E+00 0.  1.
         21   -1    0    0  501  503 -0.00000000000E+00 -0.00000000000E+00 -0.16264061336E+03  0.16264061336E+03  0.00000000000E+00 0.  1.
          6    2    1    2  501    0  0.61339988565E+01  0.47668958497E+02  0.19063771875E+03  0.26120128765E+03  0.17196923364E+03 0.  0.
         24    2    3    3    0    0 -0.32203190276E+02  0.25352572372E+02  0.30046138440E+02  0.94529433925E+02  0.79707245926E+02 0.  0.
         -6    2    1    2    0  502 -0.61339988565E+01 -0.47668958497E+02 -0.63845688304E+02  0.19087196951E+03  0.17333747802E+03 0.  0.
        -24    2    5    5    0    0 -0.12751990899E+02  0.39720641027E+02 -0.42041130932E+02  0.10043818907E+03  0.81117387395E+02 0.  0.
          5    1    3    3  501    0  0.38337189132E+02  0.22316386125E+02  0.16059158031E+03  0.16667185373E+03  0.47000000000E+01 0. -1.
        -13    1    4    4    0    0  0.15791573555E+02  0.26580172479E+02 -0.94838753781E+01  0.32339190722E+02  0.00000000000E+00 0.  1.
         14    1    4    4    0    0 -0.47994763831E+02 -0.12276001069E+01  0.39530013818E+02  0.62190243203E+02  0.00000000000E+00 0. -1.
         -5    1    5    5    0  502  0.66179920423E+01 -0.87389599524E+02 -0.21804557371E+02  0.90433780446E+02  0.47000000000E+01 0.  1.
         13    1    6    6    0    0 -0.44746312381E+02  0.67270046247E+01 -0.20188768796E+02  0.49548677565E+02  0.00000000000E+00 0. -1.
        -14    1    6    6    0    0  0.31994321482E+02  0.32993636402E+02 -0.21852362136E+02  0.50889511504E+02  0.00000000000E+00 0.  1.
</event>
<event>
12    1  0.8526130E-002  0.1930871E+03  0.7818608E-02  0.1156100E+00
         21   -1    0    0  501  502  0.00000000000E+00  0.00000000000E+00  0.57935937933E+03  0.57935937933E+03  0.00000000000E+00 0. -1.
         21   -1    0    0  502  503 -0.00000000000E+00 -0.00000000000E+00 -0.25530718376E+03  0.25530718376E+03  0.00000000000E+00 0. -1.
         -6    2    1    2    0  503 -0.63191101929E+02 -0.59555597565E+02 -0.19964317244E+03  0.27650937161E+03  0.17047009040E+03 0.  0.
        -24    2    3    3    0    0 -0.55226569201E+02 -0.28762887308E+01 -0.36424314649E+02  0.10348202299E+03  0.79520760819E+02 0.  0.
          6    2    1    2  501    0  0.63191101929E+02  0.59555597565E+02  0.52369536801E+03  0.55815719148E+03  0.17246050958E+03 0.  0.
         24    2    5    5    0    0  0.10329289247E+02  0.55477214391E+02  0.48208193941E+03  0.49059409587E+03  0.71380354854E+02 0.  0.
          5    1    5    5  501    0  0.52861812682E+02  0.40783831740E+01  0.41613428597E+02  0.67563095614E+02  0.47000000000E+01 0. -1.
        -11    1    6    6    0    0 -0.11272423638E+00 -0.15909843805E+02  0.48289826460E+02  0.50843319878E+02  0.00000000000E+00 0.  1.
         12    1    6    6    0    0  0.10442013483E+02  0.71387058196E+02  0.43379211295E+03  0.43975077599E+03  0.00000000000E+00 0. -1.
         -5    1    3    3    0  503 -0.79645327283E+01 -0.56679308834E+02 -0.16321885779E+03  0.17302734862E+03  0.47000000000E+01 0.  1.
         13    1    4    4    0    0 -0.25851905899E+02 -0.38607743071E+02 -0.32841328878E+01  0.46579656423E+02  0.00000000000E+00 0. -1.
        -14    1    4    4    0    0 -0.29374663301E+02  0.35731454340E+02 -0.33140181761E+02  0.56902366563E+02  0.00000000000E+00 0.  1.
</event>
<event>
12    1  0.8526130E-002  0.1716388E+03  0.7818608E-02  0.1178008E+00
         21   -1    0    0  501  502  0.00000000000E+00  0.00000000000E+00  0.91826744993E+03  0.91826744993E+03  0.00000000000E+00 0.  1.
         21   -1    0    0  502  503 -0.00000000000E+00 -0.00000000000E+00 -0.57589212818E+02  0.57589212818E+02  0.00000000000E+00 0.  1.
         -6    2    1    2    0  503  0.29561443164E+01  0.18636211203E+02  0.10227350999E+03  0.19979926104E+03  0.17059843700E+03 0.  0.
        -24    2    3    3    0    0 -0.52180013186E+01  0.57067610771E+01  0.13078188603E+03  0.16710668020E+03  0.10373498058E+03 0.  0.
          6    2    1    2  501    0 -0.29561443164E+01 -0.18636211203E+02  0.75840472712E+03  0.77605740171E+03  0.16349713598E+03 0.  0.
         24    2    5    5    0    0 -0.23633755874E+02 -0.62090736656E+02  0.63442188866E+03  0.64297962883E+03  0.80733241505E+02 0.  0.
          5    1    5    5  501    0  0.20677611558E+02  0.43454525453E+02  0.12398283846E+03  0.13307777288E+03  0.47000000000E+01 0. -1.
        -11    1    6    6    0    0  0.39540008631E+01 -0.23866709605E+02  0.49902951246E+03  0.49961556046E+03  0.00000000000E+00 0.  1.
         12    1    6    6    0    0 -0.27587756737E+02 -0.38224027051E+02  0.13539237620E+03  0.14336406837E+03  0.00000000000E+00 0. -1.
         -5    1    3    3    0  503  0.81741456350E+01  0.12929450126E+02 -0.28508376035E+02  0.32692580834E+02  0.47000000000E+01 0.  1.
         13    1    4    4    0    0  0.12637403888E+02  0.52065190122E+02  0.57698564981E+02  0.78737617441E+02  0.00000000000E+00 0. -1.
        -14    1    4    4    0    0 -0.17855405207E+02 -0.46358429045E+02  0.73083321044E+02  0.88369062762E+02  0.00000000000E+00 0.  1.
</event>
<event>
12    1  0.8526130E-002  0.2051648E+03  0.7818608E-02  0.1146169E+00
         21   -1    0    0  503  502  0.00000000000E+00  0.00000000000E+00  0.12041341061E+03  0.12041341061E+03  0.00000000000E+00 0. -1.
         21   -1    0    0  501  503 -0.00000000000E+00 -0.00000000000E+00 -0.38701487171E+03  0.38701487171E+03  0.00000000000E+00 0.  1.
          6    2    1    2  501    0 -0.62593523452E+02  0.90682823992E+02 -0.47380337576E+02  0.20717755350E+03  0.16892696215E+03 0.  0.
         24    2    3    3    0    0  0.18663709525E+02  0.40100923223E+02  0.13528312817E+02  0.93629236521E+02  0.81406391563E+02 0.  0.
         -6    2    1    2    0  502  0.62593523452E+02 -0.90682823992E+02 -0.21922112352E+03  0.30025072881E+03  0.17306436782E+03 0.  0.
        -24    2    5    5    0    0  0.10786923612E+03 -0.59247904706E+02 -0.17663904212E+03  0.23044121682E+03  0.82193168188E+02 0.  0.
          5    1    3    3  501    0 -0.81257232977E+02  0.50581900769E+02 -0.60908650392E+02  0.11354831698E+03  0.47000000000E+01 0. -1.
        -11    1    4    4    0    0 -0.10218424821E+02  0.26501174582E+02 -0.28907528458E+02  0.40526209563E+02  0.00000000000E+00 0.  1.
         12    1    4    4    0    0  0.28882134345E+02  0.13599748641E+02  0.42435841274E+02  0.53103026958E+02  0.00000000000E+00 0. -1.
         -5    1    5    5    0  502 -0.45275712664E+02 -0.31434919286E+02 -0.42582081403E+02  0.69809511991E+02  0.47000000000E+01 0.  1.
         11    1    6    6    0    0  0.93317226712E+01  0.15670865262E+02 -0.51643958231E+01  0.18955950261E+02  0.00000000000E+00 0. -1.
        -12    1    6    6    0    0  0.98537513445E+02 -0.74918769969E+02 -0.17147464630E+03  0.21148526656E+03  0.00000000000E+00 0.  1.
</event>
<event>
12    1  0.8526130E-002  0.1821616E+03  0.7818608E-02  0.1166346E+00
         21   -1    0    0  503  502  0.00000000000E+00  0.00000000000E+00  0.17592277582E+03  0.17592277582E+03  0.00000000000E+00 0. -1.
         21   -1    0    0  501  503 -0.00000000000E+00 -0.00000000000E+00 -0.42495881506E+03  0.42495881506E+03  0.00000000000E+00 0. -1.
          6    2    1    2  501    0 -0.44247253867E+02 -0.22699972955E+02  0.10040114635E+03  0.20799816464E+03  0.17524194149E+03 0.  0.
         24    2    3    3    0    0 -0.32306893367E+02 -0.66062911084E+02  0.11784582764E+03  0.15952834395E+03  0.78444947909E+02 0.  0.
         -6    2    1    2    0  502  0.44247253867E+02  0.22699972955E+02 -0.34943718559E+03  0.39288342624E+03  0.17256283405E+03 0.  0.
        -24    2    5    5    0    0  0.59550826423E+02 -0.96058328919E+01 -0.34055266314E+03  0.35575002937E+03  0.83327030831E+02 0.  0.
          5    1    3    3  501    0 -0.11940360499E+02  0.43362938129E+02 -0.17444681291E+02  0.48469820686E+02  0.47000000000E+01 0. -1.
        -11    1    4    4    0    0 -0.54377018394E+02 -0.65113265549E+02  0.86268790334E+02  0.12099132889E+03  0.00000000000E+00 0.  1.
         12    1    4    4    0    0  0.22070125026E+02 -0.94964553497E+00  0.31577037305E+02  0.38537015067E+02  0.00000000000E+00 0. -1.
         -5    1    5    5    0  502 -0.15303572556E+02  0.32305805847E+02 -0.88845224487E+01  0.37133396876E+02  0.47000000000E+01 0.  1.
         13    1    6    6    0    0  0.29014220163E+02  0.37071624915E+02 -0.15881114550E+03  0.16564151134E+03  0.00000000000E+00 0. -1.
        -14    1    6    6    0    0  0.30536606259E+02 -0.46677457807E+02 -0.18174151764E+03  0.19010851802E+03  0.00000000000E+00 0.  1.
</event>
<event>
12    1  0.8526130E-002  0.1790982E+03  0.7818608E-02  0.1168913E+00
         21   -1    0    0  501  502  0.00000000000E+00  0.00000000000E+00  0.10607272586E+03  0.10607272586E+03  0.00000000000E+00 0. -1.
         21   -1    0    0  502  503 -0.00000000000E+00 -0.00000000000E+00 -0.68600574553E+03  0.68600574553E+03  0.00000000000E+00 0. -1.
         -6    2    1    2    0  503  0.39414298113E+02 -0.23336792272E+02 -0.58640325035E+03  0.61286345054E+03  0.17214744909E+03 0.  0.
        -24    2    3    3    0    0  0.69056092675E+02 -0.43801936300E+02 -0.25272211353E+03  0.27721087842E+03  0.79309841063E+02 0.  0.
          6    2    1    2  501    0 -0.39414298113E+02  0.23336792272E+02  0.64702306713E+01  0.17921502085E+03  0.17314175419E+03 0.  0.
         24    2    5    5    0    0  0.67348243136E+01 -0.22856622108E+02  0.53287460892E+02  0.98732003520E+02  0.79628336652E+02 0.  0.
          5    1    5    5  501    0 -0.46149122427E+02  0.46193414380E+02 -0.46817230221E+02  0.80483017329E+02  0.47000000000E+01 0. -1.
        -11    1    6    6    0    0 -0.19693614511E+02  0.75718781509E+01 -0.10275655466E+02  0.23468295347E+02  0.00000000000E+00 0.  1.
         12    1    6    6    0    0  0.26428438825E+02 -0.30428500259E+02  0.63563116358E+02  0.75263708173E+02  0.00000000000E+00 0. -1.
         -5    1    3    3    0  503 -0.29641794561E+02  0.20465144028E+02 -0.33368113682E+03  0.33565257212E+03  0.47000000000E+01 0.  1.
         11    1    4    4    0    0  0.74700371349E+02 -0.40565555718E+02 -0.25612924825E+03  0.26986645142E+03  0.00000000000E+00 0. -1.
        -12    1    4    4    0    0 -0.56442786743E+01 -0.32363805821E+01  0.34071347217E+01  0.73444270054E+01  0.00000000000E+00 0.  1.
</event>
<event>
12    1  0.8526130E-002  0.2696844E+03  0.7818608E-02  0.1101814E+00
         21   -1    0    0  503  502  0.00000000000E+00  0.00000000000E+00  0.48841931963E+03  0.48841931963E+03  0.00000000000E+00 0. -1.
         21   -1    0    0  501  503 -0.00000000000E+00 -0.00000000000E+00 -0.20958030957E+03  0.20958030957E+03  0.00000000000E+00 0.  1.
          6    2    1    2  501    0 -0.39322145260E+02 -0.20391721804E+03 -0.49990553824E+02  0.27427851863E+03  0.17204995608E+03 0.  0.
         24    2    3    3    0    0  0.44164457325E+02 -0.12444748457E+03 -0.26739997134E+02  0.15660044193E+03  0.79818514518E+02 0.  0.
         -6    2    1    2    0  502  0.39322145260E+02  0.20391721804E+03  0.32882956388E+03  0.42372111057E+03  0.16817322778E+03 0.  0.
        -24    2    5    5    0    0  0.63272154449E+02  0.10903497787E+03  0.27035996099E+03  0.30962892459E+03  0.82967285793E+02 0.  0.
          5    1    3    3  501    0 -0.83486602584E+02 -0.79469733466E+02 -0.23250556690E+02  0.11767807669E+03  0.47000000000E+01 0. -1.
        -13    1    4    4    0    0 -0.95079525894E+01 -0.87703882028E+02 -0.24328868485E+02  0.91511015332E+02  0.00000000000E+00 0.  1.
         14    1    4    4    0    0  0.53672409914E+02 -0.36743602542E+02 -0.24111286487E+01  0.65089426600E+02  0.00000000000E+00 0. -1.
         -5    1    5    5    0  502 -0.23950009189E+02  0.94882240162E+02  0.58469602892E+02  0.11409218598E+03  0.47000000000E+01 0.  1.
         11    1    6    6    0    0  0.70152245295E+02  0.11900295041E+03  0.25554440141E+03  0.29049265192E+03  0.00000000000E+00 0. -1.
        -12    1    6    6    0    0 -0.68800908457E+01 -0.99679725317E+01  0.14815559578E+02  0.19136272679E+02  0.00000000000E+00 0.  1.
</event>
<event>
12    1  0.8526130E-002  0.1799467E+03  0.7818608E-02  0.1168519E+00
         21   -1    0    0  503  502  0.00000000000E+00  0.00000000000E+00  0.96128912181E+02  0.96128912181E+02  0.00000000000E+00 0. -1.
         21   -1    0    0  501  503 -0.00000000000E+00 -0.00000000000E+00 -0.15375620957E+04  0.15375620957E+04  0.00000000000E+00 0. -1.
          6    2    1    2  501    0  0.48906156297E+02 -0.24402166484E+02 -0.14428953665E+04  0.14537383837E+04  0.16858520570E+03 0.  0.
         24    2    3    3    0    0  0.52021962865E+02 -0.63531070685E+02 -0.13090196283E+04  0.13141476150E+04  0.81909006577E+02 0.  0.
         -6    2    1    2    0  502 -0.48906156297E+02  0.24402166484E+02  0.14621829347E+01  0.17995262428E+03  0.17144541741E+03 0.  0.
        -24    2    5    5    0    0  0.93707770943E+01  0.46233419826E+02  0.31169766277E+02  0.11083363198E+03  0.95326801457E+02 0.  0.
          5    1    3    3  501    0 -0.31158065676E+01  0.39128904201E+02 -0.13387573824E+03  0.13959076862E+03  0.47000000000E+01 0. -1.
        -13    1    4    4    0    0  0.42796742655E+02 -0.23161873319E+02 -0.27316355636E+03  0.27746416359E+03  0.00000000000E+00 0.  1.
         14    1    4    4    0    0  0.92252202104E+01 -0.40369197366E+02 -0.10358560719E+04  0.10366834514E+04  0.00000000000E+00 0. -1.
         -5    1    5    5    0  502 -0.58276933392E+02 -0.21831253342E+02 -0.29707583342E+02  0.69118992296E+02  0.47000000000E+01 0.  1.
         13    1    6    6    0    0 -0.19808367219E+02  0.41443672647E+02  0.55853306634E+02  0.72315567316E+02  0.00000000000E+00 0. -1.
        -14    1    6    6    0    0  0.29179144313E+02  0.47897471792E+01 -0.24683540357E+02  0.38518064664E+02  0.00000000000E+00 0.  1.
</event>
<event>
12    1  0.8526130E-002  0.1840243E+03  0.7818608E-02  0.1164432E+00
         21   -1    0    0  503  502  0.00000000000E+00  0.00000000000E+00  0.54814494139E+02  0.54814494139E+02  0.00000000000E+00 0. -1.
         21   -1    0    0  501  503 -0.00000000000E+00 -0.00000000000E+00 -0.75734015583E+03  0.75734015583E+03  0.00000000000E+00 0. -1.
          6    2    1    2  501    0  0.10586021302E+02  0.61995503863E+02 -0.52811691776E+03  0.55861302880E+03  0.17083773226E+03 0.  0.
         24    2    3    3    0    0  0.37330778474E+02  0.47340075475E+02 -0.15564520651E+03  0.18486534746E+03  0.79467582166E+02 0.  0.
         -6    2    1    2    0  502 -0.10586021302E+02 -0.61995503863E+02 -0.17440874393E+03  0.25354162117E+03  0.17294345134E+03 0.  0.
        -24    2    5    5    0    0 -0.55099239755E+02 -0.48161859795E+02 -0.47282178813E+02  0.11805712065E+03  0.79664222470E+02 0.  0.
          5    1    3    3  501    0 -0.26744757171E+02  0.14655428388E+02 -0.37247171125E+03  0.37374768133E+03  0.47000000000E+01 0. -1.
        -13    1    4    4    0    0  0.16841212975E+01  0.37166772076E+01  0.95195629292E+01  0.10357221267E+02  0.00000000000E+00 0.  1.
         14    1    4    4    0    0  0.35646657176E+02  0.43623398267E+02 -0.16516476944E+03  0.17450812619E+03  0.00000000000E+00 0. -1.
         -5    1    5    5    0  502  0.44513218452E+02 -0.13833644068E+02 -0.12712656511E+03  0.13548450053E+03  0.47000000000E+01 0.  1.
         13    1    6    6    0    0 -0.64729851727E+02 -0.39078803338E+02 -0.62347655283E+02  0.98001717813E+02  0.00000000000E+00 0. -1.
        -14    1    6    6    0    0  0.96306119727E+01 -0.90830564571E+01  0.15065476470E+02  0.20055402834E+02  0.00000000000E+00 0.  1.
</event>
<event>
12    1  0.8526130E-002  0.2330729E+03  0.7818608E-02  0.1124763E+00
         21   -1    0    0  503  502  0.00000000000E+00  0.00000000000E+00  0.28773488944E+03  0.28773488944E+03  0.00000000000E+00 0.  1.
         21   -1    0    0  501  503 -0.00000000000E+00 -0.00000000000E+00 -0.26240686690E+03  0.26240686690E+03  0.00000000000E+00 0.  1.
          6    2    1    2  501    0  0.42719832850E+02  0.15194672621E+03 -0.13422364441E+03  0.26895900109E+03  0.17149392358E+03 0.  0.
         24    2    3    3    0    0  0.75254164153E+02  0.12359568070E+03 -0.14980766730E+03  0.22283724631E+03  0.79215021649E+02 0.  0.
         -6    2    1    2    0  502 -0.42719832850E+02 -0.15194672621E+03  0.15955166695E+03  0.28118275525E+03  0.16939367078E+03 0.  0.
        -24    2    5    5    0    0 -0.38624728940E+02 -0.13605106745E+02  0.40686564074E+02  0.98682957353E+02  0.80037247332E+02 0.  0.
          5    1    3    3  501    0 -0.32534331302E+02  0.28351045509E+02  0.15584022883E+02  0.46121754780E+02  0.47000000000E+01 0. -1.
        -13    1    4    4    0    0  0.84423386850E+02  0.68007023639E+02 -0.93064403832E+02  0.14287493402E+03  0.00000000000E+00 0.  1.
         14    1    4    4    0    0 -0.91692226973E+01  0.55588657057E+02 -0.56743263466E+02  0.79962312292E+02  0.00000000000E+00 0. -1.
         -5    1    5    5    0  502 -0.40951039107E+01 -0.13834161946E+03  0.11886510288E+03  0.18249979790E+03  0.47000000000E+01 0.  1.
         13    1    6    6    0    0  0.21508044430E+02 -0.73696168163E+01 -0.45379202538E+01  0.23184045106E+02  0.00000000000E+00 0. -1.
        -14    1    6    6    0    0 -0.60132773370E+02 -0.62354899284E+01  0.45224484328E+02  0.75498912247E+02  0.00000000000E+00 0.  1.
</event>
<event>
12    1  0.8526130E-002  0.2107149E+03  0.7818608E-02  0.1141086E+00
         21   -1    0    0  501  502  0.00000000000E+00  0.00000000000E+00  0.55489015725E+02  0.55489015725E+02  0.00000000000E+00 0.  1.
         21   -1    0    0  502  503 -0.00000000000E+00 -0.00000000000E+00 -0.92067113424E+03  0.92067113424E+03  0.00000000000E+00 0.  1.
         -6    2    1    2    0  503  0.12037652248E+03 -0.36036440438E+01 -0.25444198231E+03  0.33009181856E+03  0.17238443347E+03 0.  0.
        -24    2    3    3    0    0  0.97129457013E+02 -0.33677344334E+02 -0.83475354197E+02  0.15488756224E+03  0.80335093442E+02 0.  0.
          6    2    1    2  501    0 -0.12037652248E+03  0.36036440438E+01 -0.61074013621E+03  0.64606833141E+03  0.17290830363E+03 0.  0.
         24    2    5    5    0    0 -0.96225321038E+02  0.59614445154E+02 -0.31272671728E+03  0.34184049207E+03  0.79017262893E+02 0.  0.
          5    1    5    5  501    0 -0.24151201439E+02 -0.56010801111E+02 -0.29801341893E+03  0.30422783934E+03  0.47000000000E+01 0. -1.
        -11    1    6    6    0    0  0.24344190415E+01 -0.11306023325E+02 -0.63830590985E+02  0.64869845884E+02  0.00000000000E+00 0.  1.
         12    1    6    6    0    0 -0.98659740080E+02  0.70920468479E+02 -0.24889612630E+03  0.27697064618E+03  0.00000000000E+00 0. -1.
         -5    1    3    3    0  503  0.23247065465E+02  0.30073700290E+02 -0.17096662811E+03  0.17520425631E+03  0.47000000000E+01 0.  1.
         11    1    4    4    0    0 -0.83256921807E+01  0.32573485767E+01 -0.29447741222E+02  0.30774940018E+02  0.00000000000E+00 0. -1.
        -12    1    4    4    0    0  0.10545514919E+03 -0.36934692911E+02 -0.54027612975E+02  0.12411262223E+03  0.00000000000E+00 0.  1.
</event>
<event>
12    1  0.8526130E-002  0.2129591E+03  0.7818608E-02  0.1139412E+00
         21   -1    0    0  501  502  0.00000000000E+00  0.00000000000E+00  0.12480599352E+04  0.12480599352E+04  0.00000000000E+00 0. -1.
         21   -1    0    0  502  503 -0.00000000000E+00 -0.00000000000E+00 -0.43440856667E+02  0.43440856667E+02  0.00000000000E+00 0. -1.
         -6    2    1    2    0  503  0.11970930033E+03 -0.35632312486E+02  0.33951900181E+03  0.40078015252E+03  0.17248652060E+03 0.  0.
        -24    2    3    3    0    0  0.14623103678E+03 -0.47441534137E+02  0.32383995786E+03  0.36745174663E+03  0.80710919456E+02 0.  0.
          6    2    1    2  501    0 -0.11970930033E+03  0.35632312486E+02  0.86510007669E+03  0.89072063931E+03  0.17142093315E+03 0.  0.
         24    2    5    5    0    0 -0.13530596218E+03  0.49327784242E+02  0.83862688063E+03  0.85675386264E+03  0.99956003032E+02 0.  0.
          5    1    5    5  501    0  0.15596661846E+02 -0.13695471755E+02  0.26473196063E+02  0.33966776667E+02  0.47000000000E+01 0. -1.
        -13    1    6    6    0    0 -0.47769807488E+02  0.12455755176E+01  0.93898466964E+02  0.10535856901E+03  0.00000000000E+00 0.  1.
         14    1    6    6    0    0 -0.87536154689E+02  0.48082208724E+02  0.74472841366E+03  0.75139529363E+03  0.00000000000E+00 0. -1.
         -5    1    3    3    0  503 -0.26521736445E+02  0.11809221651E+02  0.15679043949E+02  0.33328405891E+02  0.47000000000E+01 0.  1.
         13    1    4    4    0    0  0.14468496521E+03 -0.33248940913E+02  0.23852774455E+03  0.28095322769E+03  0.00000000000E+00 0. -1.
        -14    1    4    4    0    0  0.15460715668E+01 -0.14192593225E+02  0.85312213303E+02  0.86498518937E+02  0.00000000000E+00 0.  1.
</event>
<event>
12    1  0.8526130E-002  0.3008684E+03  0.7818608E-02  0.1085277E+00
         21   -1    0    0  503  502  0.00000000000E+00  0.00000000000E+00  0.65987461702E+02  0.65987461702E+02  0.00000000000E+00 0. -1.
         21   -1    0    0  501  503 -0.00000000000E+00 -0.00000000000E+00 -0.13700127230E+04  0.13700127230E+04  0.00000000000E+00 0.  1.
          6    2    1    2  501    0 -0.17221562416E+03  0.17686762344E+03 -0.72372565351E+03  0.78234170570E+03  0.16534613847E+03 0.  0.
         24    2    3    3    0    0 -0.85109825900E+02  0.23095108197E+02 -0.25398612767E+03  0.28043462399E+03  0.79734301260E+02 0.  0.
         -6    2    1    2    0  502  0.17221562416E+03 -0.17686762344E+03 -0.58029960775E+03  0.65365847896E+03  0.17199242696E+03 0.  0.
        -24    2    5    5    0    0  0.11447671274E+03 -0.16934922649E+03 -0.32826874789E+03  0.39494637544E+03  0.80238334737E+02 0.  0.
          5    1    3    3  501    0 -0.87105798261E+02  0.15377251525E+03 -0.46973952584E+03  0.50190708171E+03  0.47000000000E+01 0. -1.
        -11    1    4    4    0    0  0.59360400833E+01  0.19823834383E+02 -0.94703707304E+02  0.96938192466E+02  0.00000000000E+00 0.  1.
         12    1    4    4    0    0 -0.91045865983E+02  0.32712738136E+01 -0.15928242037E+03  0.18349643153E+03  0.00000000000E+00 0. -1.
         -5    1    5    5    0  502  0.57738911420E+02 -0.75183969577E+01 -0.25203085987E+03  0.25871210352E+03  0.47000000000E+01 0.  1.
         13    1    6    6    0    0  0.41283679735E+02 -0.24341939588E+02 -0.33790059871E+02  0.58639921397E+02  0.00000000000E+00 0. -1.
        -14    1    6    6    0    0  0.73193033005E+02 -0.14500728690E+03 -0.29447868802E+03  0.33630645404E+03  0.00000000000E+00 0.  1.
</event>
<event>
12    1  0.8526130E-002  0.1891754E+03  0.7818608E-02  0.1159604E+00
         21   -1    0    0  503  502  0.00000000000E+00  0.00000000000E+00  0.97827224836E+03  0.97827224836E+03  0.00000000000E+00 0. -1.
         21   -1    0    0  501  503 -0.00000000000E+00 -0.00000000000E+00 -0.43117161883E+02  0.43117161883E+02  0.00000000000E+00 0. -1.
          6    2    1    2  501    0  0.75870544893E+02 -0.19767502054E+02  0.26552847627E+03  0.32602559021E+03  0.17216335277E+03 0.  0.
         24    2    3    3    0    0  0.68187499838E+02  0.24034180836E+02  0.26120767102E+03  0.28109925090E+03  0.74566510401E+02 0.  0.
         -6    2    1    2    0  502 -0.75870544893E+02  0.19767502054E+02  0.66962661020E+03  0.69536382004E+03  0.17024673684E+03 0.  0.
        -24    2    5    5    0    0 -0.51830822933E+02 -0.58770371948E+01  0.64528203509E+03  0.65234871847E+03  0.80305491155E+02 0.  0.
          5    1    3    3  501    0  0.76830450549E+01 -0.43801682890E+02  0.43208052504E+01  0.44926339305E+02  0.47000000000E+01 0. -1.
        -13    1    4    4    0    0  0.25756804154E+02 -0.24732637217E+02  0.60648029803E+02  0.70379683311E+02  0.00000000000E+00 0.  1.
         14    1    4    4    0    0  0.42430695684E+02  0.48766818053E+02  0.20055964122E+03  0.21071956759E+03  0.00000000000E+00 0. -1.
         -5    1    5    5    0  502 -0.24039721960E+02  0.25644539249E+02  0.24344575114E+02  0.43015101565E+02  0.47000000000E+01 0.  1.
         13    1    6    6    0    0 -0.47449929733E+02  0.27736257578E+02  0.50709520109E+03  0.51006503388E+03  0.00000000000E+00 0. -1.
        -14    1    6    6    0    0 -0.43808931995E+01 -0.33613294773E+02  0.13818683400E+03  0.14228368459E+03  0.00000000000E+00 0.  1.
</event>
<event>
12    1  0.8526130E-002  0.2021192E+03  0.7818608E-02  0.1148963E+00
         21   -1    0    0  503  502  0.00000000000E+00  0.00000000000E+00  0.12372787032E+04  0.12372787032E+04  0.00000000000E+00 0. -1.
         21   -1    0    0  501  503 -0.00000000000E+00 -0.00000000000E+00 -0.82981976891E+02  0.82981976891E+02  0.00000000000E+00 0. -1.
          6    2    1    2  501    0 -0.70859492949E+02 -0.76666959307E+02  0.58332705961E+02  0.20581494482E+03  0.16750581045E+03 0.  0.
         24    2    3    3    0    0 -0.99076907608E+02 -0.79862267663E+02  0.79647942755E+02  0.16999788456E+03  0.79757573645E+02 0.  0.
         -6    2    1    2    0  502  0.70859492949E+02  0.76666959307E+02  0.10959640204E+04  0.11144457353E+04  0.17307013777E+03 0.  0.
        -24    2    5    5    0    0 -0.12862076994E+02  0.11806595612E+02  0.69508411053E+03  0.69978568156E+03  0.79077497941E+02 0.  0.
          5    1    3    3  501    0  0.28217414659E+02  0.31953083560E+01 -0.21315236793E+02  0.35817060252E+02  0.47000000000E+01 0. -1.
        -13    1    4    4    0    0 -0.60619284888E+02 -0.19203864320E+02  0.74563497443E+02  0.97995924691E+02  0.00000000000E+00 0.  1.
         14    1    4    4    0    0 -0.38457622720E+02 -0.60658403343E+02  0.50844453120E+01  0.72001959873E+02  0.00000000000E+00 0. -1.
         -5    1    5    5    0  502  0.83721569943E+02  0.64860363695E+02  0.40087990984E+03  0.41466005373E+03  0.47000000000E+01 0.  1.
         13    1    6    6    0    0  0.29358550796E+02  0.22764815211E+02  0.29463736961E+03  0.29697026936E+03  0.00000000000E+00 0. -1.
        -14    1    6    6    0    0 -0.42220627790E+02 -0.10958219599E+02  0.40044674093E+03  0.40281541220E+03  0.00000000000E+00 0.  1.
</event>
<event>
12    1  0.8526130E-002  0.2050007E+03  0.7818608E-02  0.1145621E+00
         21   -1    0    0  501  502  0.00000000000E+00  0.00000000000E+00  0.37860118251E+02  0.37860118251E+02  0.00000000000E+00 0.  1.
         21   -1    0    0  502  503 -0.00000000000E+00 -0.00000000000E+00 -0.13636649556E+04  0.13636649556E+04  0.00000000000E+00 0.  1.
         -6    2    1    2    0  503  0.10793973568E+03 -0.25889163007E+02 -0.96587925075E+03  0.98739456628E+03  0.17234867913E+03 0.  0.
        -24    2    3    3    0    0  0.12511904027E+03 -0.97352820050E+01 -0.94110274259E+03  0.95286860888E+03  0.80837267009E+02 0.  0.
          6    2    1    2  501    0 -0.10793973568E+03  0.25889163007E+02 -0.35992558659E+03  0.41413050756E+03  0.17215229917E+03 0.  0.
         24    2    5    5    0    0 -0.83963631444E+02  0.64650665932E+02 -0.34053901938E+03  0.36437875713E+03  0.74668968880E+02 0.  0.
          5    1    5    5  501    0 -0.23976104231E+02 -0.38761502926E+02 -0.19386567213E+02  0.49751750436E+02  0.47000000000E+01 0. -1.
        -11    1    6    6    0    0  0.82720321996E+00  0.15972893522E+02 -0.82340249832E+01  0.17989351297E+02  0.00000000000E+00 0.  1.
         12    1    6    6    0    0 -0.84790834664E+02  0.48677772410E+02 -0.33230499440E+03  0.34638940583E+03  0.00000000000E+00 0. -1.
         -5    1    3    3    0  503 -0.17179304590E+02 -0.16153881002E+02 -0.24776508162E+02  0.34525957399E+02  0.47000000000E+01 0.  1.
         11    1    4    4    0    0  0.37973704122E+02 -0.27963979089E+02 -0.16288077870E+03  0.16957044082E+03  0.00000000000E+00 0. -1.
        -12    1    4    4    0    0  0.87145336143E+02  0.18228697084E+02 -0.77822196389E+03  0.78329816806E+03  0.00000000000E+00 0.  1.
</event>
<event>
12    1  0.8526130E-002  0.1823786E+03  0.7818608E-02  0.1165681E+00
         21   -1    0    0  503  502  0.00000000000E+00  0.00000000000E+00  0.46207999571E+02  0.46207999571E+02  0.00000000000E+00 0.  1.
         21   -1    0    0  501  503 -0.00000000000E+00 -0.00000000000E+00 -0.72523991775E+03  0.72523991775E+03  0.00000000000E+00 0.  1.
          6    2    1    2  501    0  0.43207006862E+02  0.42412725722E+02 -0.29947642392E+03  0.35063955318E+03  0.17203570276E+03 0.  0.
         24    2    3    3    0    0 -0.70298806636E+01  0.83713566752E+02 -0.20928288368E+03  0.23934503831E+03  0.80183174570E+02 0.  0.
         -6    2    1    2    0  502 -0.43207006862E+02 -0.42412725722E+02 -0.37955549426E+03  0.42080836414E+03  0.17132314894E+03 0.  0.
        -24    2    5    5    0    0 -0.57121553947E+02  0.16722884183E+02 -0.12864635920E+03  0.16260666191E+03  0.79677562597E+02 0.  0.
          5    1    3    3  501    0  0.50236887526E+02 -0.41300841030E+02 -0.90193540245E+02  0.11129451487E+03  0.47000000000E+01 0. -1.
        -11    1    4    4    0    0 -0.15692334567E+02  0.21544950285E+02 -0.70152277437E+01  0.27561706537E+02  0.00000000000E+00 0.  1.
         12    1    4    4    0    0  0.86624539038E+01  0.62168616467E+02 -0.20226765593E+03  0.21178333178E+03  0.00000000000E+00 0. -1.
         -5    1    5    5    0  502  0.13914547085E+02 -0.59135609905E+02 -0.25090913505E+03  0.25820170222E+03  0.47000000000E+01 0.  1.
         11    1    6    6    0    0 -0.18564753511E+02 -0.32194258255E+02 -0.47323866651E+02  0.60171992591E+02  0.00000000000E+00 0. -1.
        -12    1    6    6    0    0 -0.38556800436E+02  0.48917142438E+02 -0.81322492554E+02  0.10243466932E+03  0.00000000000E+00 0.  1.
</event>
<event>
12    1  0.8526130E-002  0.1740258E+03  0.7818608E-02  0.1173931E+00
         21   -1    0    0  503  502  0.00000000000E+00  0.00000000000E+00  0.28903642587E+03  0.28903642587E+03  0.00000000000E+00 0.  1.
         21   -1    0    0  501  503 -0.00000000000E+00 -0.00000000000E+00 -0.11842419358E+03  0.11842419358E+03  0.00000000000E+00 0.  1.
          6    2    1    2  501    0  0.11064515784E+02  0.17101115198E+02  0.15042747790E+02  0.17467471215E+03  0.17282968250E+03 0.  0.
         24    2    3    3    0    0  0.53511870147E+02  0.61648209386E+02  0.52540227211E+01  0.11219166940E+03  0.76781143268E+02 0.  0.
         -6    2    1    2    0  502 -0.11064515784E+02 -0.17101115198E+02  0.15556948450E+03  0.23278590729E+03  0.17196669002E+03 0.  0.
        -24    2    5    5    0    0 -0.60985900118E+02 -0.36160416309E+01  0.15787365825E+03  0.18081099950E+03  0.63530857093E+02 0.  0.
          5    1    3    3  501    0 -0.42447354363E+02 -0.44547094188E+02  0.97887250688E+01  0.62483042751E+02  0.47000000000E+01 0. -1.
        -11    1    4    4    0    0 -0.12854897613E+02 -0.56660260023E+01  0.10467098954E+02  0.17518915600E+02  0.00000000000E+00 0.  1.
         12    1    4    4    0    0  0.66366767760E+02  0.67314235388E+02 -0.52130762325E+01  0.94672753803E+02  0.00000000000E+00 0. -1.
         -5    1    5    5    0  502  0.49921384334E+02 -0.13485073567E+02 -0.23041737487E+01  0.51974907788E+02  0.47000000000E+01 0.  1.
         11    1    6    6    0    0 -0.23518988342E+02 -0.33000348596E+02  0.72856391475E+02  0.83367977058E+02  0.00000000000E+00 0. -1.
        -12    1    6    6    0    0 -0.37466911776E+02  0.29384306965E+02  0.85017266772E+02  0.97443022445E+02  0.00000000000E+00 0.  1.
</event>
<event>
12    1  0.8526130E-002  0.1780329E+03  0.7818608E-02  0.1169749E+00
         21   -1    0    0  503  502  0.00000000000E+00  0.00000000000E+00  0.10821721350E+03  0.10821721350E+03  0.00000000000E+00 0. -1.
         21   -1    0    0  501  503 -0.00000000000E+00 -0.00000000000E+00 -0.57096348467E+03  0.57096348467E+03  0.00000000000E+00 0. -1.
          6    2    1    2  501    0  0.34824886457E+00 -0.43989566304E+02 -0.46840702022E+03  0.50105779853E+03  0.17239077020E+03 0.  0.
         24    2    3    3    0    0 -0.21477009501E+02  0.19989593971E+02 -0.12719804104E+03  0.15318521793E+03  0.80159363427E+02 0.  0.
         -6    2    1    2    0  502 -0.34824886457E+00  0.43989566304E+02  0.56607490558E+01  0.17812289964E+03  0.17251237659E+03 0.  0.
        -24    2    5    5    0    0 -0.10929691299E+02  0.31501509547E+02  0.70921551240E+02  0.11067676716E+03  0.78151628916E+02 0.  0.
          5    1    3    3  501    0  0.21825258366E+02 -0.63979160275E+02 -0.34120897919E+03  0.34787258059E+03  0.47000000000E+01 0. -1.
        -11    1    4    4    0    0  0.28844132497E+02  0.43388793696E+01 -0.25939416647E+02  0.39034128525E+02  0.00000000000E+00 0.  1.
         12    1    4    4    0    0 -0.50321141999E+02  0.15650714601E+02 -0.10125862439E+03  0.11415108941E+03  0.00000000000E+00 0. -1.
         -5    1    5    5    0  502  0.10581442434E+02  0.12488056757E+02 -0.65260802184E+02  0.67446132486E+02  0.47000000000E+01 0.  1.
         11    1    6    6    0    0 -0.87178011484E+01  0.56305361453E+02  0.34668326508E+02  0.66694727289E+02  0.00000000000E+00 0. -1.
        -12    1    6    6    0    0 -0.22118901502E+01 -0.24803851906E+02  0.36253224732E+02  0.43982039868E+02  0.00000000000E+00 0.  1.
</event>
<event>
12    1  0.8526130E-002  0.1895198E+03  0.7818608E-02  0.1159303E+00
         21   -1    0    0  501  502  0.00000000000E+00  0.00000000000E+00  0.19289452574E+03  0.19289452574E+03  0.00000000000E+00 0. -1.
         21   -1    0    0  502  503 -0.00000000000E+00 -0.00000000000E+00 -0.32026609595E+03  0.32026609595E+03  0.00000000000E+00 0. -1.
         -6    2    1    2    0  503 -0.32777571459E+02  0.68685126172E+02 -0.23059988632E+03  0.29735092545E+03  0.17160783650E+03 0.  0.
        -24    2    3    3    0    0 -0.76170981205E+02  0.77997610882E+02 -0.12964278949E+03  0.18696915258E+03  0.79149008020E+02 0.  0.
          6    2    1    2  501    0  0.32777571459E+02 -0.68685126172E+02  0.10322831611E+03  0.21580969623E+03  0.17356763521E+03 0.  0.
         24    2    5    5    0    0 -0.42420669528E+02 -0.40396589897E+02  0.23148730806E+02  0.10227623546E+03  0.80580189395E+02 0.  0.
          5    1    5    5  501    0  0.75198240987E+02 -0.28288536274E+02  0.80079585306E+02  0.11353346077E+03  0.47000000000E+01 0. -1.
        -11    1    6    6    0    0 -0.17159288577E+02 -0.61943699608E+02  0.50834436568E+01  0.64477162662E+02  0.00000000000E+00 0.  1.
         12    1    6    6    0    0 -0.25261380951E+02  0.21547109710E+02  0.18065287150E+02  0.37799072795E+02  0.00000000000E+00 0. -1.
         -5    1    3    3    0  503  0.43393409746E+02 -0.93124847105E+01 -0.10095709683E+03  0.11038177287E+03  0.47000000000E+01 0.  1.
         13    1    4    4    0    0 -0.16178580618E+02  0.24585271102E+02 -0.95068825017E+02  0.99520166379E+02  0.00000000000E+00 0. -1.
        -14    1    4    4    0    0 -0.59992400587E+02  0.53412339780E+02 -0.34573964471E+02  0.87448986205E+02  0.00000000000E+00 0.  1.
</event>
<event>
12    1  0.8526130E-002  0.2262573E+03  0.7818608E-02  0.1129309E+00
         21   -1    0    0  503  502  0.00000000000E+00  0.00000000000E+00  0.20104715713E+03  0.20104715713E+03  0.00000000000E+00 0.  1.
         21   -1    0    0  501  503 -0.00000000000E+00 -0.00000000000E+00 -0.25458396703E+03  0.25458396703E+03  0.00000000000E+00 0. -1.
          6    2    1    2  501    0 -0.23550169269E+02  0.14472823752E+03 -0.26833641817E+02  0.22780345658E+03  0.17225997007E+03 0.  0.
         24    2    3    3    0    0  0.14867654615E+02  0.77523890991E+02  0.46326561276E+02  0.12118798537E+03  0.79431584964E+02 0.  0.
         -6    2    1    2    0  502  0.23550169269E+02 -0.14472823752E+03 -0.26703168086E+02  0.22782766759E+03  0.17231225645E+03 0.  0.
        -24    2    5    5    0    0  0.77769916398E+02 -0.11817743680E+03 -0.21672510237E+01  0.16249140488E+03  0.79904275347E+02 0.  0.
          5    1    3    3  501    0 -0.38417823885E+02  0.67204346533E+02 -0.73160203093E+02  0.10661547121E+03  0.47000000000E+01 0. -1.
        -13    1    4    4    0    0 -0.12168072008E+02  0.80834311691E+02  0.46307850308E+02  0.93950332214E+02  0.00000000000E+00 0.  1.
         14    1    4    4    0    0  0.27035726623E+02 -0.33104207005E+01  0.18710967520E-01  0.27237653154E+02  0.00000000000E+00 0. -1.
         -5    1    5    5    0  502 -0.54219747129E+02 -0.26550800723E+02 -0.24535917062E+02  0.65336262702E+02  0.47000000000E+01 0.  1.
         11    1    6    6    0    0  0.63792689163E+02 -0.72015360575E+02 -0.36915659348E+02  0.10304603464E+03  0.00000000000E+00 0. -1.
        -12    1    6    6    0    0  0.13977227235E+02 -0.46162076225E+02  0.34748408324E+02  0.59445370245E+02  0.00000000000E+00 0.  1.
</event>
<event>
12    1  0.8526130E-002  0.1927976E+03  0.7818608E-02  0.1156635E+00
         21   -1    0    0  501  502  0.00000000000E+00  0.00000000000E+00  0.10218014909E+03  0.10218014909E+03  0.00000000000E+00 0. -1.
         21   -1    0    0  502  503 -0.00000000000E+00 -0.00000000000E+00 -0.44484719445E+03  0.44484719445E+03  0.00000000000E+00 0. -1.
         -6    2    1    2    0  503 -0.19606987066E+02  0.85285928309E+02 -0.29101941481E+03  0.34743174866E+03  0.16839951506E+03 0.  0.
        -24    2    3    3    0    0  0.52124809113E+02  0.35130972810E+02 -0.13734102954E+03  0.17051338827E+03  0.79126962592E+02 0.  0.
          6    2    1    2  501    0  0.19606987066E+02 -0.85285928309E+02 -0.51647630551E+02  0.19959559488E+03  0.17179289928E+03 0.  0.
         24    2    5    5    0    0  0.58553772042E+01 -0.37893357543E+02  0.38456401291E+02  0.96755966853E+02  0.80078900675E+02 0.  0.
          5    1    5    5  501    0  0.13751609862E+02 -0.47392570766E+02 -0.90104031843E+02  0.10283962802E+03  0.47000000000E+01 0. -1.
        -13    1    6    6    0    0 -0.33021351595E+02 -0.21509878622E+02 -0.38454116553E+00  0.39411069656E+02  0.00000000000E+00 0.  1.
         14    1    6    6    0    0  0.38876728799E+02 -0.16383478921E+02  0.38840942457E+02  0.57344897198E+02  0.00000000000E+00 0. -1.
         -5    1    3    3    0  503 -0.71731796179E+02  0.50154955499E+02 -0.15367838527E+03  0.17691836039E+03  0.47000000000E+01 0.  1.
         11    1    4    4    0    0  0.19871486300E+02  0.37590340893E+02 -0.16817513217E+02  0.45724593459E+02  0.00000000000E+00 0. -1.
        -12    1    4    4    0    0  0.32253322813E+02 -0.24593680828E+01 -0.12052351632E+03  0.12478879481E+03  0.00000000000E+00 0.  1.
</event>
<event>
12    1  0.8526130E-002  0.2101373E+03  0.7818608E-02  0.1141746E+00
         21   -1    0    0  503  502  0.00000000000E+00  0.00000000000E+00  0.10630997163E+03  0.10630997163E+03  0.00000000000E+00 0. -1.
         21   -1    0    0  501  503 -0.00000000000E+00 -0.00000000000E+00 -0.45189134188E+03  0.45189134188E+03  0.00000000000E+00 0. -1.
          6    2    1    2  501    0 -0.11915909036E+03 -0.10379063372E+02 -0.25464709513E+03  0.32923243700E+03  0.17100362787E+03 0.  0.
         24    2    3    3    0    0 -0.11166959989E+03 -0.46319009539E+02 -0.25408360685E+03  0.29221649831E+03  0.78844482569E+02 0.  0.
         -6    2    1    2    0  502  0.11915909036E+03  0.10379063372E+02 -0.90934275121E+02  0.22896887651E+03  0.17277468057E+03 0.  0.
        -24    2    5    5    0    0  0.15087900208E+03  0.80387276888E+00 -0.52269155033E+02  0.17783260185E+03  0.78276754109E+02 0.  0.
          5    1    3    3  501    0 -0.74894904747E+01  0.35939946168E+02 -0.56348827753E+00  0.37015938690E+02  0.47000000000E+01 0. -1.
        -11    1    4    4    0    0 -0.16235536765E+02 -0.46123867345E+02 -0.86542187118E+02  0.99400975569E+02  0.00000000000E+00 0.  1.
         12    1    4    4    0    0 -0.95434063122E+02 -0.19514219472E+00 -0.16754141973E+03  0.19281552274E+03  0.00000000000E+00 0. -1.
         -5    1    5    5    0  502 -0.31719911715E+02  0.95751906030E+01 -0.38665120088E+02  0.51136274657E+02  0.47000000000E+01 0.  1.
         11    1    6    6    0    0  0.51155266525E+02 -0.32488241179E+02 -0.40390658371E+00  0.60601239663E+02  0.00000000000E+00 0. -1.
        -12    1    6    6    0    0  0.99723735552E+02  0.33292113948E+02 -0.51865248449E+02  0.11723136219E+03  0.00000000000E+00 0.  1.
</event>
<event>
12    1  0.8526130E-002  0.1824653E+03  0.7818608E-02  0.1165796E+00
         21   -1    0    0  503  502  0.00000000000E+00  0.00000000000E+00  0.20362376693E+03  0.20362376693E+03  0.00000000000E+00 0. -1.
         21   -1    0    0  501  503 -0.00000000000E+00 -0.00000000000E+00 -0.33485068786E+03  0.33485068786E+03  0.00000000000E+00 0. -1.
          6    2    1    2  501    0  0.56547196650E+02 -0.13263745817E+02 -0.25882873762E+03  0.31581821496E+03  0.17139229002E+03 0.  0.
         24    2    3    3    0    0  0.29914691985E+01 -0.10384766524E+02 -0.24817917816E+03  0.26093645495E+03  0.79863238013E+02 0.  0.
         -6    2    1    2    0  502 -0.56547196650E+02  0.13263745817E+02  0.12760181669E+03  0.22265623983E+03  0.17297417469E+03 0.  0.
        -24    2    5    5    0    0 -0.65840335040E+02 -0.44700249151E+02  0.40967642351E+02  0.11790053689E+03  0.76740646901E+02 0.  0.
          5    1    3    3  501    0  0.53555727451E+02 -0.28789792930E+01 -0.10649559457E+02  0.54881760005E+02  0.47000000000E+01 0. -1.
        -11    1    4    4    0    0 -0.37714048192E+02 -0.27918842813E+01 -0.94757005582E+02  0.10202467425E+03  0.00000000000E+00 0.  1.
         12    1    4    4    0    0  0.40705517391E+02 -0.75928822426E+01 -0.15342217258E+03  0.15891178071E+03  0.00000000000E+00 0. -1.
         -5    1    5    5    0  502  0.92931383902E+01  0.57963994968E+02  0.86634174341E+02  0.10475570294E+03  0.47000000000E+01 0.  1.
         13    1    6    6    0    0 -0.27934951941E+02 -0.60881013085E+02  0.36927312928E+02  0.76488467983E+02  0.00000000000E+00 0. -1.
        -14    1    6    6    0    0 -0.37905383099E+02  0.16180763934E+02  0.40403294227E+01  0.41412068907E+02  0.00000000000E+00 0.  1.
</event>
<event>
12    1  0.8526130E-002  0.1843154E+03  0.7818608E-02  0.1164198E+00
         21   -1    0    0  501  502  0.00000000000E+00  0.00000000000E+00  0.94793579513E+02  0.94793579513E+02  0.00000000000E+00 0.  1.
         21   -1    0    0  502  503 -0.00000000000E+00 -0.00000000000E+00 -0.61388721173E+03  0.61388721173E+03  0.00000000000E+00 0.  1.
         -6    2    1    2    0  503 -0.53518320527E+01  0.45595903944E+02 -0.49088156570E+03  0.52434422520E+03  0.17850637635E+03 0.  0.
        -24    2    3    3    0    0 -0.21935875956E+01  0.99096500266E+02 -0.28050314397E+03  0.30719575377E+03  0.76565587357E+02 0.  0.
          6    2    1    2  501    0  0.53518320527E+01 -0.45595903944E+02 -0.28212066520E+02  0.18433656604E+03  0.17628505416E+03 0.  0.
         24    2    5    5    0    0  0.71422674880E+02 -0.26674976271E+02 -0.29853079347E+02  0.11542981239E+03  0.81363888770E+02 0.  0.
          5    1    5    5  501    0 -0.66070842827E+02 -0.18920927673E+02  0.16410128263E+01  0.68906753653E+02  0.47000000000E+01 0. -1.
        -11    1    6    6    0    0  0.13988416351E+02  0.26067192398E+02  0.50263432355E+01  0.30007306408E+02  0.00000000000E+00 0.  1.
         12    1    6    6    0    0  0.57434258529E+02 -0.52742168669E+02 -0.34879422582E+02  0.85422505982E+02  0.00000000000E+00 0. -1.
         -5    1    3    3    0  503 -0.31582444571E+01 -0.53500596322E+02 -0.21037842173E+03  0.21714847143E+03  0.47000000000E+01 0.  1.
         11    1    4    4    0    0  0.13870778766E+02 -0.77448675649E+00 -0.69393140613E+01  0.15529082811E+02  0.00000000000E+00 0. -1.
        -12    1    4    4    0    0 -0.16064366362E+02  0.99870987022E+02 -0.27356382990E+03  0.29166667096E+03  0.00000000000E+00 0.  1.
</event>
<event>
12    1  0.8526130E-002  0.2097716E+03  0.7818608E-02  0.1142052E+00
         21   -1    0    0  501  502  0.00000000000E+00  0.00000000000E+00  0.96192871673E+03  0.96192871673E+03  0.00000000000E+00 0. -1.
         21   -1    0    0  502  503 -0.00000000000E+00 -0.00000000000E+00 -0.17849328129E+03  0.17849328129E+03  0.00000000000E+00 0. -1.
         -6    2    1    2    0  503 -0.53512005539E+02 -0.10501367361E+03 -0.10100588774E+03  0.23144424392E+03  0.17167656306E+03 0.  0.
        -24    2    3    3    0    0 -0.44758943600E+02  0.93851595341E+01 -0.33650440251E+02  0.98318155479E+02  0.80266202825E+02 0.  0.
          6    2    1    2  501    0  0.53512005539E+02  0.10501367361E+03  0.88444132318E+03  0.90897775409E+03  0.17353010372E+03 0.  0.
         24    2    5    5    0    0  0.44892086430E+02  0.12992462431E+02  0.65479008192E+03  0.66138133060E+03  0.80567422591E+02 0.  0.
          5    1    5    5  501    0  0.86199191095E+01  0.92021211174E+02  0.22965124126E+03  0.24759642349E+03  0.47000000000E+01 0. -1.
        -11    1    6    6    0    0 -0.22458690329E+02 -0.32279685931E+01  0.21104335973E+03  0.21225953981E+03  0.00000000000E+00 0.  1.
         12    1    6    6    0    0  0.67350776759E+02  0.16220431024E+02  0.44374672219E+03  0.44912179079E+03  0.00000000000E+00 0. -1.
         -5    1    3    3    0  503 -0.87530619394E+01 -0.11439883314E+03 -0.67355447492E+02  0.13312608844E+03  0.47000000000E+01 0.  1.
         13    1    4    4    0    0  0.10431296201E+02 -0.19545132798E+02 -0.28064336920E+02  0.35755155758E+02  0.00000000000E+00 0. -1.
        -14    1    4    4    0    0 -0.55190239800E+02  0.28930292332E+02 -0.55861033310E+01  0.62562999721E+02  0.00000000000E+00 0.  1.
</event>
<event>
12    1  0.8526130E-002  0.2082456E+03  0.7818608E-02  0.1143076E+00
         21   -1    0    0  501  502  0.00000000000E+00  0.00000000000E+00  0.34402559876E+04  0.34402559876E+04  0.00000000000E+00 0. -1.
         21   -1    0    0  502  503 -0.00000000000E+00 -0.00000000000E+00 -0.13027650525E+02  0.13027650525E+02  0.00000000000E+00 0. -1.
         -6    2    1    2    0  503 -0.68482016022E+02 -0.94520729975E+02  0.13882340534E+04  0.14036827257E+04  0.17177733350E+03 0.  0.
        -24    2    3    3    0    0  0.19868993269E+02 -0.63675453508E+02  0.52736444209E+03  0.53772896844E+03  0.81177881483E+02 0.  0.
          6    2    1    2  501    0  0.68482016022E+02  0.94520729975E+02  0.20389942836E+04  0.20496009124E+04  0.17245943501E+03 0.  0.
         24    2    5    5    0    0 -0.19733564604E+02  0.55921720905E+02  0.69070238917E+03  0.69786684288E+03  0.80197802623E+02 0.  0.
          5    1    5    5  501    0  0.88215580625E+02  0.38599009070E+02  0.13482918944E+04  0.13517340696E+04  0.47000000000E+01 0. -1.
        -11    1    6    6    0    0  0.82862341961E+01  0.56589738879E+02  0.60501031434E+03  0.60770761118E+03  0.00000000000E+00 0.  1.
         12    1    6    6    0    0 -0.28019798800E+02 -0.66801797375E+00  0.85692074825E+02  0.90159231699E+02  0.00000000000E+00 0. -1.
         -5    1    3    3    0  503 -0.88351009291E+02 -0.30845276467E+02  0.86086961135E+03  0.86595375724E+03  0.47000000000E+01 0.  1.
         11    1    4    4    0    0 -0.28427972296E+02 -0.35446289004E+02  0.30850230893E+03  0.31183050465E+03  0.00000000000E+00 0. -1.
        -12    1    4    4    0    0  0.48296965565E+02 -0.28229164504E+02  0.21886213316E+03  0.22589846379E+03  0.00000000000E+00 0.  1.
</event>
<event>
12    1  0.8526130E-002  0.1891509E+03  0.7818608E-02  0.1159450E+00
         21   -1    0    0  501  502  0.00000000000E+00  0.00000000000E+00  0.82118205328E+03  0.82118205328E+03  0.00000000000E+00 0.  1.
         21   -1    0    0  502  503 -0.00000000000E+00 -0.00000000000E+00 -0.43405581470E+02  0.43405581470E+02  0.00000000000E+00 0.  1.
         -6    2    1    2    0  503  0.15555468978E+02 -0.77602287587E+02  0.37178550273E+03  0.41669619748E+03  0.17072543251E+03 0.  0.
        -24    2    3    3    0    0  0.67789167833E+02 -0.18761136933E+02  0.25065018281E+03  0.27217458651E+03  0.79411207435E+02 0.  0.
          6    2    1    2  501    0 -0.15555468978E+02  0.77602287587E+02  0.40599096908E+03  0.44789143726E+03  0.17179634730E+03 0.  0.
         24    2    5    5    0    0 -0.33171477973E+02 -0.85318869287E+01  0.28752527052E+03  0.30029187247E+03  0.79569387561E+02 0.  0.
          5    1    5    5  501    0  0.17616008994E+02  0.86134174516E+02  0.11846569856E+03  0.14759956480E+03  0.47000000000E+01 0. -1.
        -11    1    6    6    0    0 -0.51642116555E+02 -0.20529543502E+02  0.13209704725E+03  0.14331085182E+03  0.00000000000E+00 0.  1.
         12    1    6    6    0    0  0.18470638582E+02  0.11997656573E+02  0.15542822328E+03  0.15698102065E+03  0.00000000000E+00 0. -1.
         -5    1    3    3    0  503 -0.52233698855E+02 -0.58841150654E+02  0.12113531992E+03  0.14452161097E+03  0.47000000000E+01 0.  1.
         13    1    4    4    0    0 -0.13252740509E+02 -0.83442643319E+01  0.95971530961E+02  0.97240920570E+02  0.00000000000E+00 0. -1.
        -14    1    4    4    0    0  0.81041908342E+02 -0.10416872601E+02  0.15467865185E+03  0.17493366594E+03  0.00000000000E+00 0.  1.
</event>
<event>
12    1  0.8526130E-002  0.2626702E+03  0.7818608E-02  0.1105589E+00
         21   -1    0    0  503  502  0.00000000000E+00  0.00000000000E+00  0.23145990748E+03  0.23145990748E+03  0.00000000000E+00 0.  1.
         21   -1    0    0  501  503 -0.00000000000E+00 -0.00000000000E+00 -0.35979810573E+03  0.35979810573E+03  0.00000000000E+00 0.  1.
          6    2    1    2  501    0 -0.90412272725E+02  0.17624556747E+03  0.58588921387E+02  0.26886481046E+03  0.17210097467E+03 0.  0.
         24    2    3    3    0    0 -0.20958941384E+01  0.81662964154E+02  0.77559912091E+02  0.13799220040E+03  0.79706178680E+02 0.  0.
         -6    2    1    2    0  502  0.90412272725E+02 -0.17624556747E+03 -0.18692711964E+03  0.32239320274E+03  0.17250724624E+03 0.  0.
        -24    2    5    5    0    0  0.46974206950E+02 -0.67745194465E+02 -0.17124327375E+03  0.20437934965E+03  0.75170953596E+02 0.  0.
          5    1    3    3  501    0 -0.88316378586E+02  0.94582603318E+02 -0.18970990703E+02  0.13087261007E+03  0.47000000000E+01 0. -1.
        -11    1    4    4    0    0 -0.38042655861E+01  0.52964821752E+02 -0.22635395452E+01  0.53149490977E+02  0.00000000000E+00 0.  1.
         12    1    4    4    0    0  0.17083714476E+01  0.28698142402E+02  0.79823451636E+02  0.84842709418E+02  0.00000000000E+00 0. -1.
         -5    1    5    5    0  502  0.43438065774E+02 -0.10850037301E+03 -0.15683845882E+02  0.11801385310E+03  0.47000000000E+01 0.  1.
         13    1    6    6    0    0 -0.16135939494E+02 -0.33945397829E+02 -0.80110914460E+02  0.88489644551E+02  0.00000000000E+00 0. -1.
        -14    1    6    6    0    0  0.63110146444E+02 -0.33799796635E+02 -0.91132359294E+02  0.11588970510E+03  0.00000000000E+00 0.  1.
</event>
<event>
12    1  0.8526130E-002  0.2313943E+03  0.7818608E-02  0.1125801E+00
         21   -1    0    0  503  502  0.00000000000E+00  0.00000000000E+00  0.44521491457E+03  0.44521491457E+03  0.00000000000E+00 0. -1.
         21   -1    0    0  501  503 -0.00000000000E+00 -0.00000000000E+00 -0.15798232844E+03  0.15798232844E+03  0.00000000000E+00 0. -1.
          6    2    1    2  501    0 -0.12228626000E+03  0.96161186955E+02 -0.43643790385E+01  0.23143544392E+03  0.17129627444E+03 0.  0.
         24    2    3    3    0    0  0.32146445183E+01  0.24102698009E+02  0.16201891148E+02  0.85189198384E+02  0.80021398725E+02 0.  0.
         -6    2    1    2    0  502  0.12228626000E+03 -0.96161186955E+02  0.29159696518E+03  0.37176179909E+03  0.17022673673E+03 0.  0.
        -24    2    5    5    0    0  0.11875957885E+03 -0.16911716009E+02  0.22092649110E+03  0.26541650285E+03  0.85132613079E+02 0.  0.
          5    1    3    3  501    0 -0.12550090452E+03  0.72058488945E+02 -0.20566270187E+02  0.14624624554E+03  0.47000000000E+01 0. -1.
        -11    1    4    4    0    0 -0.22457129698E+02  0.44456282205E+02  0.16369090491E+02  0.52427386215E+02  0.00000000000E+00 0.  1.
         12    1    4    4    0    0  0.25671774216E+02 -0.20353584196E+02 -0.16719934311E+00  0.32761812170E+02  0.00000000000E+00 0. -1.
         -5    1    5    5    0  502  0.35266811585E+01 -0.79249470945E+02  0.70670474074E+02  0.10634529623E+03  0.47000000000E+01 0.  1.
         13    1    6    6    0    0  0.50708230572E+02  0.33399396110E+02  0.11284449323E+03  0.12814337268E+03  0.00000000000E+00 0. -1.
        -14    1    6    6    0    0  0.68051348274E+02 -0.50311112119E+02  0.10808199787E+03  0.13727313018E+03  0.00000000000E+00 0.  1.
</event>
<event>
12    1  0.8526130E-002  0.4038197E+03  0.7818608E-02  0.1042508E+00
         21   -1    0    0  501  502  0.00000000000E+00  0.00000000000E+00  0.31202115410E+03  0.31202115410E+03  0.00000000000E+00 0. -1.
         21   -1    0    0  502  503 -0.00000000000E+00 -0.00000000000E+00 -0.57241788577E+03  0.57241788577E+03  0.00000000000E+00 0.  1.
         -6    2    1    2    0  503  0.85750835504E+02  0.35488991565E+03 -0.26140147545E+03  0.48061808877E+03  0.17135623091E+03 0.  0.
        -24    2    3    3    0    0  0.82745939573E+02  0.35841930881E+03 -0.21536814051E+03  0.43411385304E+03  0.82219888136E+02 0.  0.
          6    2    1    2  501    0 -0.85750835504E+02 -0.35488991565E+03  0.10047437849E+01  0.40382095110E+03  0.17254069961E+03 0.  0.
         24    2    5    5    0    0  0.20326159408E+02 -0.15738371124E+03 -0.17955384688E+02  0.17878182984E+03  0.80360198606E+02 0.  0.
          5    1    5    5  501    0 -0.10607699491E+03 -0.19750620441E+03  0.18960128472E+02  0.22503912127E+03  0.47000000000E+01 0. -1.
        -11    1    6    6    0    0 -0.25419532345E+02 -0.10327038327E+03 -0.31861759543E+01  0.10640054700E+03  0.00000000000E+00 0.  1.
         12    1    6    6    0    0  0.45745691753E+02 -0.54113327975E+02 -0.14769208733E+02  0.72381282837E+02  0.00000000000E+00 0. -1.
         -5    1    3    3    0  503  0.30048959312E+01 -0.35293931675E+01 -0.46033334940E+02  0.46504235736E+02  0.47000000000E+01 0.  1.
         11    1    4    4    0    0  0.57111659209E+02  0.27628786044E+03 -0.12268111301E+03  0.30764814144E+03  0.00000000000E+00 0. -1.
        -12    1    4    4    0    0  0.25634280364E+02  0.82131448372E+02 -0.92687027501E+02  0.12646571159E+03  0.00000000000E+00 0.  1.
</event>
<event>
12    1  0.8526130E-002  0.2271744E+03  0.7818608E-02  0.1128752E+00
         21   -1    0    0  501  502  0.00000000000E+00  0.00000000000E+00  0.15828838154E+03  0.15828838154E+03  0.00000000000E+00 0.  1.
         21   -1    0    0  502  503 -0.00000000000E+00 -0.00000000000E+00 -0.64394870305E+03  0.64394870305E+03  0.00000000000E+00 0. -1.
         -6    2    1    2    0  503  0.11783625981E+03  0.88546655256E+02 -0.52520907487E+03  0.57223491861E+03  0.17286507879E+03 0.  0.
        -24    2    3    3    0    0  0.10334698911E+03  0.11687133445E+03 -0.31558077404E+03  0.36015394133E+03  0.76027149967E+02 0.  0.
          6    2    1    2  501    0 -0.11783625981E+03 -0.88546655256E+02  0.39548753365E+02  0.23000216598E+03  0.17207846518E+03 0.  0.
         24    2    5    5    0    0  0.12673119043E+01 -0.73183174585E+02  0.13141389600E+02  0.10695284174E+03  0.76868921642E+02 0.  0.
          5    1    5    5  501    0 -0.11910357171E+03 -0.15363480672E+02  0.26407363764E+02  0.12304932423E+03  0.47000000000E+01 0. -1.
        -11    1    6    6    0    0 -0.22405457682E+02 -0.47841664121E+02  0.37317161705E+02  0.64679207769E+02  0.00000000000E+00 0.  1.
         12    1    6    6    0    0  0.23672769587E+02 -0.25341510464E+02 -0.24175772105E+02  0.42273633974E+02  0.00000000000E+00 0. -1.
         -5    1    3    3    0  503  0.14489270698E+02 -0.28324679197E+02 -0.20962830083E+03  0.21208097728E+03  0.47000000000E+01 0.  1.
         13    1    4    4    0    0  0.16488603550E+02  0.64050424300E+02 -0.17157435339E+03  0.18388063966E+03  0.00000000000E+00 0. -1.
        -14    1    4    4    0    0  0.86858385562E+02  0.52820910153E+02 -0.14400642066E+03  0.17627330167E+03  0.00000000000E+00 0.  1.
</event>
<event>
12    1  0.8526130E-002  0.1794608E+03  0.7818608E-02  0.1169521E+00
         21   -1    0    0  501  502  0.00000000000E+00  0.00000000000E+00  0.29363546275E+03  0.29363546275E+03  0.00000000000E+00 0.  1.
         21   -1    0    0  502  503 -0.00000000000E+00 -0.00000000000E+00 -0.11633037787E+03  0.11633037787E+03  0.00000000000E+00 0.  1.
         -6    2    1    2    0  503 -0.35050373305E+02  0.10716428627E+02  0.14862328917E+03  0.23301299315E+03  0.17567812152E+03 0.  0.
        -24    2    3    3    0    0 -0.62333903553E+01 -0.10907895361E+02  0.82052588627E+00  0.80809915884E+02  0.79823128891E+02 0.  0.
          6    2    1    2  501    0  0.35050373305E+02 -0.10716428627E+02  0.28681795708E+02  0.17695284747E+03  0.17072285819E+03 0.  0.
         24    2    5    5    0    0  0.11739435526E+02  0.52574332548E+02  0.46536822140E+02  0.10702422501E+03  0.79916419676E+02 0.  0.
          5    1    5    5  501    0  0.23310937779E+02 -0.63290761175E+02 -0.17855026432E+02  0.69928622460E+02  0.47000000000E+01 0. -1.
        -13    1    6    6    0    0  0.31120951444E+02  0.44841769529E+02  0.60831977267E+02  0.81730210887E+02  0.00000000000E+00 0.  1.
         14    1    6    6    0    0 -0.19381515919E+02  0.77325630189E+01 -0.14295155128E+02  0.25294014119E+02  0.00000000000E+00 0. -1.
         -5    1    3    3    0  503 -0.28816982949E+02  0.21624323988E+02  0.14780276329E+03  0.15220307727E+03  0.47000000000E+01 0.  1.
         13    1    4    4    0    0  0.22575319066E+01  0.16283295806E+02  0.33585766496E+02  0.37393126157E+02  0.00000000000E+00 0. -1.
        -14    1    4    4    0    0 -0.84909222619E+01 -0.27191191167E+02 -0.32765240610E+02  0.43416789727E+02  0.00000000000E+00 0.  1.
</event>
<event>
12    1  0.8526130E-002  0.2721654E+03  0.7818608E-02  0.1100214E+00
         21   -1    0    0  503  502  0.00000000000E+00  0.00000000000E+00  0.22993482210E+03  0.22993482210E+03  0.00000000000E+00 0.  1.
         21   -1    0    0  501  503 -0.00000000000E+00 -0.00000000000E+00 -0.37521047894E+03  0.37521047894E+03  0.00000000000E+00 0. -1.
          6    2    1    2  501    0  0.67606349005E+02  0.19993161093E+03 -0.18776790573E+03  0.32968274360E+03  0.16997251994E+03 0.  0.
         24    2    3    3    0    0  0.16974091362E+02  0.67418538485E+02 -0.14857145000E+03  0.18243535984E+03  0.79848642169E+02 0.  0.
         -6    2    1    2    0  502 -0.67606349005E+02 -0.19993161093E+03  0.42492248886E+02  0.27546255744E+03  0.17184516829E+03 0.  0.
        -24    2    5    5    0    0 -0.33876664966E+02 -0.21385307926E+03  0.54416569196E+02  0.23678726455E+03  0.78906765918E+02 0.  0.
          5    1    3    3  501    0  0.50632257643E+02  0.13251307245E+03 -0.39196455726E+02  0.14724738376E+03  0.47000000000E+01 0. -1.
        -11    1    4    4    0    0 -0.18595042667E+02 -0.34939305800E+01 -0.70435443032E+01  0.20188974195E+02  0.00000000000E+00 0.  1.
         12    1    4    4    0    0  0.35569134029E+02  0.70912469065E+02 -0.14152790570E+03  0.16224638565E+03  0.00000000000E+00 0. -1.
         -5    1    5    5    0  502 -0.33729684038E+02  0.13921468334E+02 -0.11924320310E+02  0.38675292898E+02  0.47000000000E+01 0.  1.
         13    1    6    6    0    0  0.16419266091E+02 -0.15126246495E+02 -0.59254919255E+01  0.23097772329E+02  0.00000000000E+00 0. -1.
        -14    1    6    6    0    0 -0.50295931057E+02 -0.19872683277E+03  0.60342061121E+02  0.21368949222E+03  0.00000000000E+00 0.  1.
</event>
<event>
12    1  0.8526130E-002  0.1972241E+03  0.7818608E-02  0.1152114E+00
         21   -1    0    0  503  502  0.00000000000E+00  0.00000000000E+00  0.21125609483E+03  0.21125609483E+03  0.00000000000E+00 0. -1.
         21   -1    0    0  501  503 -0.00000000000E+00 -0.00000000000E+00 -0.31709347887E+03  0.31709347887E+03  0.00000000000E+00 0.  1.
          6    2    1    2  501    0  0.79819576054E+02  0.54016573182E+02 -0.22402663126E+03  0.29847157307E+03  0.17207089678E+03 0.  0.
         24    2    3    3    0    0  0.39031088611E+02 -0.35528802755E+02 -0.14167034086E+03  0.17007093589E+03  0.77896829540E+02 0.  0.
         -6    2    1    2    0  502 -0.79819576054E+02 -0.54016573182E+02  0.11818924722E+03  0.22987800063E+03  0.17200651765E+03 0.  0.
        -24    2    5    5    0    0  0.62577918911E+01 -0.61284969231E+02  0.16362621185E+02  0.96263276055E+02  0.72137892482E+02 0.  0.
          5    1    3    3  501    0  0.40788487443E+02  0.89545375937E+02 -0.82356290402E+02  0.12840063718E+03  0.47000000000E+01 0. -1.
        -13    1    4    4    0    0  0.50717484201E+02 -0.51676237664E+02 -0.96034004488E+02  0.12027147110E+03  0.00000000000E+00 0.  1.
         14    1    4    4    0    0 -0.11686395590E+02  0.16147434909E+02 -0.45636336370E+02  0.49799464789E+02  0.00000000000E+00 0. -1.
         -5    1    5    5    0  502 -0.86077367945E+02  0.72683960490E+01  0.10182662604E+03  0.13361472458E+03  0.47000000000E+01 0.  1.
         11    1    6    6    0    0 -0.68680325946E+01  0.13103897581E+01  0.30054729196E+02  0.30857312587E+02  0.00000000000E+00 0. -1.
        -12    1    6    6    0    0  0.13125824486E+02 -0.62595358989E+02 -0.13692108011E+02  0.65405963468E+02  0.00000000000E+00 0.  1.
</event>
<event>
12    1  0.8526130E-002  0.1745168E+03  0.7818608E-02  0.1173567E+00
         21   -1    0    0  503  502  0.00000000000E+00  0.00000000000E+00  0.52020794613E+03  0.52020794613E+03  0.00000000000E+00 0.  1.
         21   -1    0    0  501  503 -0.00000000000E+00 -0.00000000000E+00 -0.71032242778E+02  0.71032242778E+02  0.00000000000E+00 0.  1.
          6    2    1    2  501    0  0.23639597438E+02 -0.27103806434E+01  0.99100136985E+02  0.20069115090E+03  0.17288702718E+03 0.  0.
         24    2    3    3    0    0  0.34291284958E+01 -0.77062776520E+01 -0.13679795811E+02  0.85909509146E+02  0.84392898461E+02 0.  0.
         -6    2    1    2    0  502 -0.23639597438E+02  0.27103806434E+01  0.35007556637E+03  0.39054903801E+03  0.17149190125E+03 0.  0.
        -24    2    5    5    0    0  0.26031356080E+02  0.46633215297E+02  0.13585327027E+03  0.16625079643E+03  0.79567128921E+02 0.  0.
          5    1    3    3  501    0  0.20210468942E+02  0.49958970086E+01  0.11277993280E+03  0.11478164175E+03  0.47000000000E+01 0. -1.
        -11    1    4    4    0    0  0.90493051396E+01 -0.45353040252E+02 -0.12142479524E+02  0.47814516547E+02  0.00000000000E+00 0.  1.
         12    1    4    4    0    0 -0.56201766438E+01  0.37646762600E+02 -0.15373162866E+01  0.38094992599E+02  0.00000000000E+00 0. -1.
         -5    1    5    5    0  502 -0.49670953518E+02 -0.43922834654E+02  0.21422229610E+03  0.22429824158E+03  0.47000000000E+01 0.  1.
         11    1    6    6    0    0  0.52475146073E+02  0.23586648652E+02  0.10407928756E+03  0.11892211337E+03  0.00000000000E+00 0. -1.
        -12    1    6    6    0    0 -0.26443789994E+02  0.23046566645E+02  0.31773982708E+02  0.47328683062E+02  0.00000000000E+00 0.  1.
</event>
<event>
12    1  0.8526130E-002  0.1859699E+03  0.7818608E-02  0.1162393E+00
         21   -1    0    0  503  502  0.00000000000E+00  0.00000000000E+00  0.11003469202E+04  0.11003469202E+04  0.00000000000E+00 0.  1.
         21   -1    0    0  501  503 -0.00000000000E+00 -0.00000000000E+00 -0.11727596550E+03  0.11727596550E+03  0.00000000000E+00 0.  1.
          6    2    1    2  501    0  0.69949537418E+02 -0.71889948055E+01 -0.29509812932E+02  0.18829666703E+03  0.17216325486E+03 0.  0.
         24    2    3    3    0    0 -0.59006546896E+01 -0.18945190270E+02 -0.64379788107E+02  0.10386050805E+03  0.79047517706E+02 0.  0.
         -6    2    1    2    0  502 -0.69949537418E+02  0.71889948055E+01  0.10125807676E+04  0.10293262187E+04  0.17102056608E+03 0.  0.
        -24    2    5    5    0    0  0.46725164295E+01 -0.47344691180E+02  0.49996540148E+03  0.50842413819E+03  0.79160276816E+02 0.  0.
          5    1    3    3  501    0  0.75850192108E+02  0.11756195465E+02  0.34869975175E+02  0.84436158980E+02  0.47000000000E+01 0. -1.
        -11    1    4    4    0    0 -0.37479757944E+02  0.78234547569E+01 -0.20100179089E+02  0.43242986707E+02  0.00000000000E+00 0.  1.
         12    1    4    4    0    0  0.31579103255E+02 -0.26768645027E+02 -0.44279609018E+02  0.60617521343E+02  0.00000000000E+00 0. -1.
         -5    1    5    5    0  502 -0.74622053847E+02  0.54533685986E+02  0.51261536617E+03  0.52090208049E+03  0.47000000000E+01 0.  1.
         11    1    6    6    0    0 -0.26323309611E+02 -0.37701769000E+02  0.14833231862E+03  0.15529590066E+03  0.00000000000E+00 0. -1.
        -12    1    6    6    0    0  0.30995826041E+02 -0.96429221801E+01  0.35163308286E+03  0.35312823753E+03  0.00000000000E+00 0.  1.
</event>
<event>
12    1  0.8526130E-002  0.2858260E+03  0.7818608E-02  0.1092583E+00
         21   -1    0    0  501  502  0.00000000000E+00  0.00000000000E+00  0.20084772854E+03  0.20084772854E+03  0.00000000000E+00 0.  1.
         21   -1    0    0  502  503 -0.00000000000E+00 -0.00000000000E+00 -0.40743233216E+03  0.40743233216E+03  0.00000000000E+00 0. -1.
         -6    2    1    2    0  503  0.52319122003E+02 -0.22195883234E+03 -0.11858305484E+03  0.30921353097E+03  0.17189547132E+03 0.  0.
        -24    2    3    3    0    0  0.46008166393E+02 -0.10535478083E+03 -0.13125014088E+03  0.19165980684E+03  0.79312677792E+02 0.  0.
          6    2    1    2  501    0 -0.52319122003E+02  0.22195883234E+03 -0.88001548777E+02  0.29906652973E+03  0.17231802819E+03 0.  0.
         24    2    5    5    0    0 -0.49212047294E+02  0.87936362511E+02  0.15114964969E+02  0.12987202114E+03  0.80521116840E+02 0.  0.
          5    1    5    5  501    0 -0.31070747086E+01  0.13402246983E+03 -0.10311651375E+03  0.16919450859E+03  0.47000000000E+01 0. -1.
        -11    1    6    6    0    0 -0.50235740463E+02  0.97632051304E+02  0.28382660022E+02  0.11340732980E+03  0.00000000000E+00 0.  1.
         12    1    6    6    0    0  0.10236931686E+01 -0.96956887926E+01 -0.13267695053E+02  0.16464691339E+02  0.00000000000E+00 0. -1.
         -5    1    3    3    0  503  0.63109556103E+01 -0.11660405151E+03  0.12667086039E+02  0.11755372413E+03  0.47000000000E+01 0.  1.
         11    1    4    4    0    0  0.20638012673E+02 -0.10431749451E+03 -0.12744839677E+03  0.16598542426E+03  0.00000000000E+00 0. -1.
        -12    1    4    4    0    0  0.25370153720E+02 -0.10372863238E+01 -0.38017441115E+01  0.25674382582E+02  0.00000000000E+00 0.  1.
</event>
<event>
12    1  0.8526130E-002  0.2590592E+03  0.7818608E-02  0.1107786E+00
         21   -1    0    0  501  502  0.00000000000E+00  0.00000000000E+00  0.44349135696E+03  0.44349135696E+03  0.00000000000E+00 0.  1.
         21   -1    0    0  502  503 -0.00000000000E+00 -0.00000000000E+00 -0.26356352261E+03  0.26356352261E+03  0.00000000000E+00 0. -1.
         -6    2    1    2    0  503 -0.45258459678E+02  0.19481901809E+03 -0.14098881667E+03  0.29493984087E+03  0.16464776136E+03 0.  0.
        -24    2    3    3    0    0 -0.43882810127E+02  0.16165250793E+03 -0.16923183531E+03  0.25110300807E+03  0.79724978722E+02 0.  0.
          6    2    1    2  501    0  0.45258459678E+02 -0.19481901809E+03  0.32091665101E+03  0.41211503870E+03  0.16385521122E+03 0.  0.
         24    2    5    5    0    0  0.73843369970E+02 -0.69141608225E+02  0.14418781834E+03  0.19332957588E+03  0.79704408115E+02 0.  0.
          5    1    5    5  501    0 -0.28584910292E+02 -0.12567740987E+03  0.17672883267E+03  0.21878546283E+03  0.47000000000E+01 0. -1.
        -11    1    6    6    0    0  0.62979366884E+02 -0.17574104860E+02  0.11699869457E+03  0.13402963981E+03  0.00000000000E+00 0.  1.
         12    1    6    6    0    0  0.10864003086E+02 -0.51567503366E+02  0.27189123771E+02  0.59299936070E+02  0.00000000000E+00 0. -1.
         -5    1    3    3    0  503 -0.13756495508E+01  0.33166510159E+02  0.28243018640E+02  0.43836832798E+02  0.47000000000E+01 0.  1.
         13    1    4    4    0    0 -0.65622893674E+02  0.11855995923E+03 -0.10892973828E+03  0.17386349815E+03  0.00000000000E+00 0. -1.
        -14    1    4    4    0    0  0.21740083547E+02  0.43092548709E+02 -0.60302097028E+02  0.77239509921E+02  0.00000000000E+00 0.  1.
</event>
<event>
12    1  0.8526130E-002  0.1824755E+03  0.7818608E-02  0.1165577E+00
         21   -1    0    0  503  502  0.00000000000E+00  0.00000000000E+00  0.62270982769E+03  0.62270982769E+03  0.00000000000E+00 0.  1.
         21   -1    0    0  501  503 -0.00000000000E+00 -0.00000000000E+00 -0.74567534162E+02  0.74567534162E+02  0.00000000000E+00 0.  1.
          6    2    1    2  501    0 -0.37728564801E+02  0.47615488477E+02  0.88166537889E+02  0.20265890462E+03  0.17206572545E+03 0.  0.
         24    2    3    3    0    0  0.53445177384E+01  0.36071315997E+02 -0.15748163154E+02  0.89482434228E+02  0.80183525023E+02 0.  0.
         -6    2    1    2    0  502  0.37728564801E+02 -0.47615488477E+02  0.45997575564E+03  0.49461845723E+03  0.17140315958E+03 0.  0.
        -24    2    5    5    0    0 -0.24147932298E+02 -0.77223898211E+02  0.29699757482E+03  0.31773053723E+03  0.78730437243E+02 0.  0.
          5    1    3    3  501    0 -0.43073082540E+02  0.11544172480E+02  0.10391470104E+03  0.11317647039E+03  0.47000000000E+01 0. -1.
        -11    1    4    4    0    0  0.98663993581E+01 -0.24564598858E+02 -0.10406401817E+02  0.28443954580E+02  0.00000000000E+00 0.  1.
         12    1    4    4    0    0 -0.45218816197E+01  0.60635914855E+02 -0.53417613372E+01  0.61038479649E+02  0.00000000000E+00 0. -1.
         -5    1    5    5    0  502  0.61876497099E+02  0.29608409733E+02  0.16297818082E+03  0.17688792001E+03  0.47000000000E+01 0.  1.
         13    1    6    6    0    0  0.83678438730E+01 -0.50864240213E+02  0.70147257137E+02  0.87050729046E+02  0.00000000000E+00 0. -1.
        -14    1    6    6    0    0 -0.32515776171E+02 -0.26359657997E+02  0.22685031768E+03  0.23067980818E+03  0.00000000000E+00 0.  1.
</event>
<event>
12    1  0.8526130E-002  0.2851021E+03  0.7818608E-02  0.1093016E+00
         21   -1    0    0  501  502  0.00000000000E+00  0.00000000000E+00  0.18886051932E+03  0.18886051932E+03  0.00000000000E+00 0.  1.
         21   -1    0    0  502  503 -0.00000000000E+00 -0.00000000000E+00 -0.13399076367E+04  0.13399076367E+04  0.00000000000E+00 0. -1.
         -6    2    1    2    0  503  0.22245571800E+03  0.46532698887E+02 -0.12058101022E+04  0.12390565790E+04  0.17213763339E+03 0.  0.
        -24    2    3    3    0    0  0.11395740536E+03  0.77637019670E+01 -0.92773781778E+03  0.93802301885E+03  0.78378313651E+02 0.  0.
          6    2    1    2  501    0 -0.22245571800E+03 -0.46532698887E+02  0.54762984868E+02  0.28971157699E+03  0.17111976740E+03 0.  0.
         24    2    5    5    0    0 -0.12145946952E+03 -0.93656009817E+02  0.32071460666E+02  0.17587905128E+03  0.79881231701E+02 0.  0.
          5    1    5    5  501    0 -0.10099624848E+03  0.47123310930E+02  0.22691524203E+02  0.11383252571E+03  0.47000000000E+01 0. -1.
        -13    1    6    6    0    0 -0.66323708982E+02 -0.33701010148E+02  0.53524380861E+02  0.91648523200E+02  0.00000000000E+00 0.  1.
         14    1    6    6    0    0 -0.55135760536E+02 -0.59954999668E+02 -0.21452920195E+02  0.84230528076E+02  0.00000000000E+00 0. -1.
         -5    1    3    3    0  503  0.10849831264E+03  0.38768996920E+02 -0.27807228447E+03  0.30103356018E+03  0.47000000000E+01 0.  1.
         13    1    4    4    0    0  0.11519849651E+03  0.17184383161E+02 -0.66566434303E+03  0.67577734070E+03  0.00000000000E+00 0. -1.
        -14    1    4    4    0    0 -0.12410911469E+01 -0.94206811939E+01 -0.26207347475E+03  0.26224567815E+03  0.00000000000E+00 0.  1.
</event>
<event>
12    1  0.8526130E-002  0.1782717E+03  0.7818608E-02  0.1170129E+00
         21   -1    0    0  503  502  0.00000000000E+00  0.00000000000E+00  0.86680187792E+03  0.86680187792E+03  0.00000000000E+00 0. -1.
         21   -1    0    0  501  503 -0.00000000000E+00 -0.00000000000E+00 -0.26781875345E+03  0.26781875345E+03  0.00000000000E+00 0. -1.
          6    2    1    2  501    0  0.37267790013E+02  0.28701271437E+02 -0.22786650366E+03  0.28931635448E+03  0.17195394244E+03 0.  0.
         24    2    3    3    0    0  0.65247829047E+01  0.23856705218E+02 -0.24095658325E+03  0.25522761012E+03  0.80432224748E+02 0.  0.
         -6    2    1    2    0  502 -0.37267790013E+02 -0.28701271437E+02  0.82684962813E+03  0.84530427690E+03  0.16925236146E+03 0.  0.
        -24    2    5    5    0    0  0.36631838093E+02 -0.12618194397E+02  0.29749580615E+03  0.31055444825E+03  0.80244627600E+02 0.  0.
          5    1    3    3  501    0  0.30743007108E+02  0.48445662196E+01  0.13090079595E+02  0.34088744355E+02  0.47000000000E+01 0. -1.
        -13    1    4    4    0    0  0.37398099413E+02 -0.81166383221E+01 -0.88388021220E+02  0.96316872627E+02  0.00000000000E+00 0.  1.
         14    1    4    4    0    0 -0.30873316508E+02  0.31973343540E+02 -0.15256856203E+03  0.15891073749E+03  0.00000000000E+00 0. -1.
         -5    1    5    5    0  502 -0.73899628105E+02 -0.16083077040E+02  0.52935382198E+03  0.53474982865E+03  0.47000000000E+01 0.  1.
         11    1    6    6    0    0  0.22194550421E+02 -0.44047720461E+02  0.12037324372E+03  0.13008657714E+03  0.00000000000E+00 0. -1.
        -12    1    6    6    0    0  0.14437287672E+02  0.31429526064E+02  0.17712256242E+03  0.18046787111E+03  0.00000000000E+00 0.  1.
</event>
<event>
12    1  0.8526130E-002  0.2070499E+03  0.7818608E-02  0.1143937E+00
         21   -1    0    0  501  502  0.00000000000E+00  0.00000000000E+00  0.28157255873E+03  0.28157255873E+03  0.00000000000E+00 0. -1.
         21   -1    0    0  502  503 -0.00000000000E+00 -0.00000000000E+00 -0.16091559175E+03  0.16091559175E+03  0.00000000000E+00 0. -1.
         -6    2    1    2    0  503  0.92419814315E+02  0.68455978132E+02  0.11180271887E+03  0.23524900748E+03  0.17208894373E+03 0.  0.
        -24    2    3    3    0    0  0.49572048146E+02  0.67178287311E+02  0.14171131019E+03  0.18276875030E+03  0.79699500669E+02 0.  0.
          6    2    1    2  501    0 -0.92419814315E+02 -0.68455978132E+02  0.88542481044E+01  0.20723914299E+03  0.17216858499E+03 0.  0.
         24    2    5    5    0    0 -0.68018348339E+02 -0.11238938704E+03  0.23196539428E+02  0.15476660465E+03  0.78464975903E+02 0.  0.
          5    1    5    5  501    0 -0.24401465976E+02  0.43933408905E+02 -0.14342291323E+02  0.52472538343E+02  0.47000000000E+01 0. -1.
        -11    1    6    6    0    0  0.16285287303E+02 -0.74292856651E+01 -0.12384569637E+01  0.17942648737E+02  0.00000000000E+00 0.  1.
         12    1    6    6    0    0 -0.84303635642E+02 -0.10496010137E+03  0.24434996391E+02  0.13682395591E+03  0.00000000000E+00 0. -1.
         -5    1    3    3    0  503  0.42847766169E+02  0.12776908205E+01 -0.29908591319E+02  0.52480257185E+02  0.47000000000E+01 0.  1.
         11    1    4    4    0    0 -0.28946743788E+01  0.16057426570E+02 -0.64046143484E+01  0.17528239294E+02  0.00000000000E+00 0. -1.
        -12    1    4    4    0    0  0.52466722525E+02  0.51120860741E+02  0.14811592454E+03  0.16524051101E+03  0.00000000000E+00 0.  1.
</event>
<event>
12    1  0.8526130E-002  0.2083304E+03  0.7818608E-02  0.1142907E+00
         21   -1    0    0  501  502  0.00000000000E+00  0.00000000000E+00  0.24029143278E+02  0.24029143278E+02  0.00000000000E+00 0. -1.
         21   -1    0    0  502  503 -0.00000000000E+00 -0.00000000000E+00 -0.18066836675E+04  0.18066836675E+04  0.00000000000E+00 0.  1.
         -6    2    1    2    0  503 -0.10088280111E+03 -0.62202021130E+02 -0.86975073467E+03  0.89435334345E+03  0.17133339280E+03 0.  0.
        -24    2    3    3    0    0 -0.51234933930E+02 -0.88481549729E+02 -0.38391228948E+03  0.40525559334E+03  0.79934015421E+02 0.  0.
          6    2    1    2  501    0  0.10088280111E+03  0.62202021130E+02 -0.91290378952E+03  0.93635946730E+03  0.17125796941E+03 0.  0.
         24    2    5    5    0    0  0.90486916163E+02  0.86746399069E+02 -0.88488942891E+03  0.89740570865E+03  0.81208895945E+02 0.  0.
          5    1    5    5  501    0  0.10395884943E+02 -0.24544377939E+02 -0.28014360614E+02  0.38953758647E+02  0.47000000000E+01 0. -1.
        -13    1    6    6    0    0  0.65246855585E+02  0.79292973119E+02 -0.83217825787E+03  0.83848982142E+03  0.00000000000E+00 0.  1.
         14    1    6    6    0    0  0.25240060578E+02  0.74534259502E+01 -0.52711171034E+02  0.58915887230E+02  0.00000000000E+00 0. -1.
         -5    1    3    3    0  503 -0.49647867176E+02  0.26279528599E+02 -0.48583844519E+03  0.48909775011E+03  0.47000000000E+01 0.  1.
         13    1    4    4    0    0 -0.79779096508E+01 -0.27355150375E+02 -0.22893438856E+02  0.36552165970E+02  0.00000000000E+00 0. -1.
        -14    1    4    4    0    0 -0.43257024279E+02 -0.61126399353E+02 -0.36101885062E+03  0.36870342737E+03  0.00000000000E+00 0.  1.
</event>
<event>
12    1  0.8526130E-002  0.2390245E+03  0.7818608E-02  0.1121036E+00
         21   -1    0    0  501  502  0.00000000000E+00  0.00000000000E+00  0.35045932649E+03  0.35045932649E+03  0.00000000000E+00 0.  1.
         21   -1    0    0  502  503 -0.00000000000E+00 -0.00000000000E+00 -0.16424542132E+03  0.16424542132E+03  0.00000000000E+00 0. -1.
         -6    2    1    2    0  503  0.93769757064E+02  0.13415365471E+03  0.13056956054E+03  0.26928876598E+03  0.16934597407E+03 0.  0.
        -24    2    3    3    0    0  0.43577693441E+02  0.57123915670E+02 -0.20264772679E+01  0.10786812545E+03  0.80431764689E+02 0.  0.
          6    2    1    2  501    0 -0.93769757064E+02 -0.13415365471E+03  0.55644344627E+02  0.24541598183E+03  0.17419167787E+03 0.  0.
         24    2    5    5    0    0 -0.82052547015E+02 -0.56658736424E+02  0.93477048669E+02  0.15826003616E+03  0.79783754817E+02 0.  0.
          5    1    5    5  501    0 -0.11717210049E+02 -0.77494918284E+02 -0.37832704041E+02  0.87155945673E+02  0.47000000000E+01 0. -1.
        -13    1    6    6    0    0  0.11331588372E+02 -0.77034031968E+01 -0.44038665182E+01  0.14392406197E+02  0.00000000000E+00 0.  1.
         14    1    6    6    0    0 -0.93384135387E+02 -0.48955333227E+02  0.97880915187E+02  0.14386762996E+03  0.00000000000E+00 0. -1.
         -5    1    3    3    0  503  0.50192063623E+02  0.77029739037E+02  0.13259603781E+03  0.16142064053E+03  0.47000000000E+01 0.  1.
         11    1    4    4    0    0 -0.40884220746E+01 -0.13720520372E+02 -0.15861617784E+02  0.21367236440E+02  0.00000000000E+00 0. -1.
        -12    1    4    4    0    0  0.47666115516E+02  0.70844436043E+02  0.13835140516E+02  0.86500889011E+02  0.00000000000E+00 0.  1.
</event>
<event>
12    1  0.8526130E-002  0.1886526E+03  0.7818608E-02  0.1159762E+00
         21   -1    0    0  501  502  0.00000000000E+00  0.00000000000E+00  0.16485951247E+04  0.16485951247E+04  0.00000000000E+00 0.  1.
         21   -1    0    0  502  503 -0.00000000000E+00 -0.00000000000E+00 -0.45829757119E+02  0.45829757119E+02  0.00000000000E+00 0.  1.
         -6    2    1    2    0  503 -0.38318384996E+02  0.67144597916E+02  0.18505432893E+03  0.26426295082E+03  0.17208459217E+03 0.  0.
        -24    2    3    3    0    0 -0.27860023893E+02  0.11043056058E+03  0.16299172928E+03  0.21434401469E+03  0.80037261200E+02 0.  0.
          6    2    1    2  501    0  0.38318384996E+02 -0.67144597916E+02  0.14177110387E+04  0.14301619310E+04  0.17170283662E+03 0.  0.
         24    2    5    5    0    0 -0.85324419091E+01 -0.41834928012E+01  0.11050400614E+04  0.11077579441E+04  0.76966364646E+02 0.  0.
          5    1    5    5  501    0  0.46850826905E+02 -0.62961105115E+02  0.31267097728E+03  0.32240398690E+03  0.47000000000E+01 0. -1.
        -11    1    6    6    0    0 -0.14768327604E+02 -0.38754486317E+02  0.51107856860E+03  0.51275853673E+03  0.00000000000E+00 0.  1.
         12    1    6    6    0    0  0.62358856948E+01  0.34570993516E+02  0.59396149281E+03  0.59499940740E+03  0.00000000000E+00 0. -1.
         -5    1    3    3    0  503 -0.10458361104E+02 -0.43285962663E+02  0.22062599647E+02  0.49918936125E+02  0.47000000000E+01 0.  1.
         11    1    4    4    0    0  0.11243042324E+02  0.68495457433E+02  0.13207074141E+03  0.14920024942E+03  0.00000000000E+00 0. -1.
        -12    1    4    4    0    0 -0.39103066216E+02  0.41935103146E+02  0.30920987867E+02  0.65143765274E+02  0.00000000000E+00 0.  1.
</event>
<event>
12    1  0.8526130E-002  0.1823419E+03  0.7818608E-02  0.1165746E+00
         21   -1    0    0  501  502  0.00000000000E+00  0.00000000000E+00  0.84496748064E+02  0.84496748064E+02  0.00000000000E+00 0.  1.
         21   -1    0    0  502  503 -0.00000000000E+00 -0.00000000000E+00 -0.51453504059E+03  0.51453504059E+03  0.00000000000E+00 0. -1.
         -6    2    1    2    0  503 -0.60254528271E+02  0.11358929752E+02 -0.36168333622E+03  0.40504740549E+03  0.17172341580E+03 0.  0.
        -24    2    3    3    0    0 -0.35155949164E+02 -0.59171703267E+02 -0.18557379702E+03  0.21362857501E+03  0.80388448730E+02 0.  0.
          6    2    1    2  501    0  0.60254528271E+02 -0.11358929752E+02 -0.68354956309E+02  0.19398438317E+03  0.17087395178E+03 0.  0.
         24    2    5    5    0    0 -0.10306705322E+02 -0.45630528850E+02 -0.63189746519E+02  0.11523033830E+03  0.84241993455E+02 0.  0.
          5    1    5    5  501    0  0.70561233594E+02  0.34271599097E+02 -0.51652097900E+01  0.78754044868E+02  0.47000000000E+01 0. -1.
        -13    1    6    6    0    0  0.71897988852E+01 -0.57968691567E+02 -0.11846229321E+02  0.59601976134E+02  0.00000000000E+00 0.  1.
         14    1    6    6    0    0 -0.17496504207E+02  0.12338162717E+02 -0.51343517198E+02  0.55628362163E+02  0.00000000000E+00 0. -1.
         -5    1    3    3    0  503 -0.25098579108E+02  0.70530633019E+02 -0.17610953919E+03  0.19141883048E+03  0.47000000000E+01 0.  1.
         13    1    4    4    0    0 -0.40061888708E+02 -0.13483907620E+02 -0.14905830538E+03  0.15493595159E+03  0.00000000000E+00 0. -1.
        -14    1    4    4    0    0  0.49059395445E+01 -0.45687795647E+02 -0.36515491639E+02  0.58692623417E+02  0.00000000000E+00 0.  1.
</event>
<event>
12    1  0.8526130E-002  0.1757850E+03  0.7818608E-02  0.1172637E+00
         21   -1    0    0  501  502  0.00000000000E+00  0.00000000000E+00  0.29101313657E+03  0.29101313657E+03  0.00000000000E+00 0.  1.
         21   -1    0    0  502  503 -0.00000000000E+00 -0.00000000000E+00 -0.18243666590E+03  0.18243666590E+03  0.00000000000E+00 0.  1.
         -6    2    1    2    0  503  0.15134547091E+02 -0.10503985022E+02 -0.10064790810E+03  0.20018215735E+03  0.17205669560E+03 0.  0.
        -24    2    3    3    0    0  0.74775978759E+02 -0.15969943536E+02 -0.48255798974E+02  0.12047017474E+03  0.79611272885E+02 0.  0.
          6    2    1    2  501    0 -0.15134547091E+02  0.10503985022E+02  0.20922437877E+03  0.27326764512E+03  0.17481698140E+03 0.  0.
         24    2    5    5    0    0 -0.37124477043E+01  0.69305463526E+02  0.89564506909E+02  0.13936972445E+03  0.81148565312E+02 0.  0.
          5    1    5    5  501    0 -0.11422099387E+02 -0.58801478504E+02  0.11965987186E+03  0.13389792068E+03  0.47000000000E+01 0. -1.
        -11    1    6    6    0    0 -0.34952199587E+02  0.83456246571E+01  0.45265414676E+02  0.57795012524E+02  0.00000000000E+00 0.  1.
         12    1    6    6    0    0  0.31239751883E+02  0.60959838869E+02  0.44299092233E+02  0.81574711923E+02  0.00000000000E+00 0. -1.
         -5    1    3    3    0  503 -0.59641431669E+02  0.54659585136E+01 -0.52392109123E+02  0.79711982614E+02  0.47000000000E+01 0.  1.
         11    1    4    4    0    0  0.12520975725E+01  0.21507009089E+02  0.51782241508E+01  0.22157012290E+02  0.00000000000E+00 0. -1.
        -12    1    4    4    0    0  0.73523881187E+02 -0.37476952624E+02 -0.53434023125E+02  0.98313162446E+02  0.00000000000E+00 0.  1.
</event>
<event>
12    1  0.8526130E-002  0.1975469E+03  0.7818608E-02  0.1151961E+00
         21   -1    0    0  501  502  0.00000000000E+00  0.00000000000E+00  0.39403951400E+03  0.39403951400E+03  0.00000000000E+00 0.  1.
         21   -1    0    0  502  503 -0.00000000000E+00 -0.00000000000E+00 -0.26089659026E+03  0.26089659026E+03  0.00000000000E+00 0. -1.
         -6    2    1    2    0  503 -0.25156403571E+02  0.93696481234E+02 -0.19165052478E+03  0.27478406945E+03  0.17136068959E+03 0.  0.
        -24    2    3    3    0    0  0.45959764750E+02  0.58872109250E+02 -0.15019891408E+03  0.18528226885E+03  0.78686594374E+02 0.  0.
          6    2    1    2  501    0  0.25156403571E+02 -0.93696481234E+02  0.32479344852E+03  0.38015203481E+03  0.17208402057E+03 0.  0.
         24    2    5    5    0    0  0.65785806319E+02 -0.10573061045E+03  0.28830540159E+03  0.32403576086E+03  0.79827535538E+02 0.  0.
          5    1    5    5  501    0 -0.40629402748E+02  0.12034129219E+02  0.36488046921E+02  0.56116273948E+02  0.47000000000E+01 0. -1.
        -11    1    6    6    0    0  0.32091361172E+02 -0.61108491723E+02  0.68552179911E+02  0.97280545810E+02  0.00000000000E+00 0.  1.
         12    1    6    6    0    0  0.33694445147E+02 -0.44622118730E+02  0.21975322168E+03  0.22675521505E+03  0.00000000000E+00 0. -1.
         -5    1    3    3    0  503 -0.71116168321E+02  0.34824371985E+02 -0.41451610700E+02  0.89501800599E+02  0.47000000000E+01 0.  1.
         13    1    4    4    0    0  0.57271587437E+02  0.11314268698E+02 -0.67764453059E+02  0.89443102038E+02  0.00000000000E+00 0. -1.
        -14    1    4    4    0    0 -0.11311822687E+02  0.47557840552E+02 -0.82434461024E+02  0.95839166810E+02  0.00000000000E+00 0.  1.
</event>
<event>
12    1  0.8526130E-002  0.2567960E+03  0.7818608E-02  0.1109173E+00
         21   -1    0    0  501  502  0.00000000000E+00  0.00000000000E+00  0.58219349870E+03  0.58219349870E+03  0.00000000000E+00 0. -1.
         21   -1    0    0  502  503 -0.00000000000E+00 -0.00000000000E+00 -0.39898833219E+03  0.39898833219E+03  0.00000000000E+00 0.  1.
         -6    2    1    2    0  503  0.32928639724E+02 -0.18737147532E+03 -0.32370992338E+03  0.41319763597E+03  0.17248712067E+03 0.  0.
        -24    2    3    3    0    0 -0.13138479159E+02 -0.15406709087E+03 -0.30873102289E+03  0.35422460039E+03  0.79062854115E+02 0.  0.
          6    2    1    2  501    0 -0.32928639724E+02  0.18737147532E+03  0.50691508989E+03  0.56798419492E+03  0.17161227300E+03 0.  0.
         24    2    5    5    0    0 -0.16131968191E+02  0.45325597875E+02  0.12798908280E+03  0.16293337302E+03  0.88608286899E+02 0.  0.
          5    1    5    5  501    0 -0.16796671534E+02  0.14204587745E+03  0.37892600709E+03  0.40505082190E+03  0.47000000000E+01 0. -1.
        -11    1    6    6    0    0 -0.12284525876E+02 -0.14920502095E+01  0.11292587745E+03  0.11360189078E+03  0.00000000000E+00 0.  1.
         12    1    6    6    0    0 -0.38474423147E+01  0.46817648085E+02  0.15063205342E+02  0.49331482237E+02  0.00000000000E+00 0. -1.
         -5    1    3    3    0  503  0.46067118884E+02 -0.33304384450E+02 -0.14978900492E+02  0.58973035582E+02  0.47000000000E+01 0.  1.
         13    1    4    4    0    0 -0.30976962629E+02 -0.74990606243E+02 -0.91136237238E+02  0.12202039574E+03  0.00000000000E+00 0. -1.
        -14    1    4    4    0    0  0.17838483470E+02 -0.79076484630E+02 -0.21759478565E+03  0.23220420465E+03  0.00000000000E+00 0.  1.
</event>
<event>
12    1  0.8526130E-002  0.1745175E+03  0.7818608E-02  0.1173512E+00
         21   -1    0    0  503  502  0.00000000000E+00  0.00000000000E+00  0.73114753358E+03  0.73114753358E+03  0.00000000000E+00 0.  1.
         21   -1    0    0  501  503 -0.00000000000E+00 -0.00000000000E+00 -0.41381358354E+02  0.41381358354E+02  0.00000000000E+00 0.  1.
          6    2    1    2  501    0 -0.22203547735E+02 -0.46909296369E+01  0.34735443217E+03  0.38820849035E+03  0.17185961737E+03 0.  0.
         24    2    3    3    0    0 -0.63234926606E+02 -0.18449136138E+02  0.12739275228E+03  0.16398072018E+03  0.79509349699E+02 0.  0.
         -6    2    1    2    0  502  0.22203547735E+02  0.46909296369E+01  0.34241174305E+03  0.38432040158E+03  0.17303573890E+03 0.  0.
        -24    2    5    5    0    0  0.72011561847E+00  0.56679826329E+02  0.29169923616E+03  0.30843738905E+03  0.82656259948E+02 0.  0.
          5    1    3    3  501    0  0.41031378871E+02  0.13758206501E+02  0.21996167989E+03  0.22422777017E+03  0.47000000000E+01 0. -1.
        -13    1    4    4    0    0 -0.90570223585E+01  0.19473871508E+02  0.79442897362E+02  0.82294807046E+02  0.00000000000E+00 0.  1.
         14    1    4    4    0    0 -0.54177904248E+02 -0.37923007646E+02  0.47949854920E+02  0.81685913134E+02  0.00000000000E+00 0. -1.
         -5    1    5    5    0  502  0.21483432116E+02 -0.51988896692E+02  0.50712506892E+02  0.75883012526E+02  0.47000000000E+01 0.  1.
         13    1    6    6    0    0  0.17692130293E+02  0.58553106581E+02  0.10938911019E+03  0.12532938679E+03  0.00000000000E+00 0. -1.
        -14    1    6    6    0    0 -0.16972014674E+02 -0.18732802518E+01  0.18231012597E+03  0.18310800227E+03  0.00000000000E+00 0.  1.
</event>
<event>
12    1  0.8526130E-002  0.1752739E+03  0.7818608E-02  0.1172709E+00
         21   -1    0    0  503  502  0.00000000000E+00  0.00000000000E+00  0.38241242534E+03  0.38241242534E+03  0.00000000000E+00 0. -1.
         21   -1    0    0  501  503 -0.00000000000E+00 -0.00000000000E+00 -0.80918228946E+02  0.80918228946E+02  0.00000000000E+00 0. -1.
          6    2    1    2  501    0 -0.11286089206E+02  0.22474989565E+02  0.17747959852E+03  0.24943925857E+03  0.17346018235E+03 0.  0.
         24    2    3    3    0    0 -0.14362558389E+01 -0.54258087195E+02  0.10633028565E+03  0.14422852239E+03  0.80930427943E+02 0.  0.
         -6    2    1    2    0  502  0.11286089206E+02 -0.22474989565E+02  0.12401459788E+03  0.21389139572E+03  0.17244537602E+03 0.  0.
        -24    2    5    5    0    0 -0.47583227052E+02 -0.24361765739E+02  0.26959084624E+02  0.10026473083E+03  0.80427388852E+02 0.  0.
          5    1    3    3  501    0 -0.98498333670E+01  0.76733076760E+02  0.71149312871E+02  0.10521073618E+03  0.47000000000E+01 0. -1.
        -11    1    4    4    0    0 -0.26674303906E+02 -0.63537834342E+02  0.87612283668E+02  0.11146518349E+03  0.00000000000E+00 0.  1.
         12    1    4    4    0    0  0.25238048067E+02  0.92797471466E+01  0.18718001981E+02  0.32763338894E+02  0.00000000000E+00 0. -1.
         -5    1    5    5    0  502  0.58869316258E+02  0.18867761738E+01  0.97055513255E+02  0.11362666489E+03  0.47000000000E+01 0.  1.
         11    1    6    6    0    0 -0.31739966584E+02 -0.41011376555E+02  0.46836350385E+02  0.69878481688E+02  0.00000000000E+00 0. -1.
        -12    1    6    6    0    0 -0.15843260468E+02  0.16649610817E+02 -0.19877265761E+02  0.30386249139E+02  0.00000000000E+00 0.  1.
</event>
<event>
12    1  0.8526130E-002  0.1853875E+03  0.7818608E-02  0.1163237E+00
         21   -1    0    0  503  502  0.00000000000E+00  0.00000000000E+00  0.52200342388E+03  0.52200342388E+03  0.00000000000E+00 0. -1.
         21   -1    0    0  501  503 -0.00000000000E+00 -0.00000000000E+00 -0.14514132902E+03  0.14514132902E+03  0.00000000000E+00 0. -1.
          6    2    1    2  501    0  0.66761075645E+02  0.10824449760E+02  0.43574494896E+03  0.47263073570E+03  0.17009392068E+03 0.  0.
         24    2    3    3    0    0  0.85566043124E+02 -0.19226407130E+02  0.41368471690E+03  0.43061377912E+03  0.81252564912E+02 0.  0.
         -6    2    1    2    0  502 -0.66761075645E+02 -0.10824449760E+02 -0.58882854101E+02  0.19451401720E+03  0.17261026171E+03 0.  0.
        -24    2    5    5    0    0 -0.49213184941E+02 -0.73151371166E+02 -0.32110129938E+02  0.12428978806E+03  0.81509694483E+02 0.  0.
          5    1    3    3  501    0 -0.18804967479E+02  0.30050856890E+02  0.22060232060E+02  0.42016956581E+02  0.47000000000E+01 0. -1.
        -11    1    4    4    0    0  0.26570160615E+02  0.25430659433E+02  0.70211849687E+02  0.79261565155E+02  0.00000000000E+00 0.  1.
         12    1    4    4    0    0  0.58995882509E+02 -0.44657066564E+02  0.34347286721E+03  0.35135221396E+03  0.00000000000E+00 0. -1.
         -5    1    5    5    0  502 -0.17547890705E+02  0.62326921406E+02 -0.26772724164E+02  0.70224229147E+02  0.47000000000E+01 0.  1.
         11    1    6    6    0    0 -0.36243384519E+02 -0.53361780625E+01 -0.40647121334E+02  0.54719705687E+02  0.00000000000E+00 0. -1.
        -12    1    6    6    0    0 -0.12969800422E+02 -0.67815193104E+02  0.85369913966E+01  0.69570082369E+02  0.00000000000E+00 0.  1.
</event>
<event>
12    1  0.8526130E-002  0.1987728E+03  0.7818608E-02  0.1150791E+00
         21   -1    0    0  501  502  0.00000000000E+00  0.00000000000E+00  0.21083395867E+02  0.21083395867E+02  0.00000000000E+00 0. -1.
         21   -1    0    0  502  503 -0.00000000000E+00 -0.00000000000E+00 -0.18808405638E+04  0.18808405638E+04  0.00000000000E+00 0.  1.
         -6    2    1    2    0  503  0.97353104932E+02  0.20619311160E+02 -0.87017011204E+03  0.89257111047E+03  0.17200110558E+03 0.  0.
        -24    2    3    3    0    0  0.81043365308E+02  0.60167071277E+02 -0.39413846315E+03  0.41459804252E+03  0.79738981695E+02 0.  0.
          6    2    1    2  501    0 -0.97353104932E+02 -0.20619311160E+02 -0.98958705589E+03  0.10093528492E+04  0.17206931732E+03 0.  0.
         24    2    5    5    0    0 -0.26539350858E+02 -0.10771924656E+02 -0.83189674326E+03  0.83614810479E+03  0.79190215265E+02 0.  0.
          5    1    5    5  501    0 -0.70813754075E+02 -0.98473865031E+01 -0.15769031263E+03  0.17320474440E+03  0.47000000000E+01 0. -1.
        -13    1    6    6    0    0 -0.17398978095E+02  0.13486053216E+02 -0.74831348617E+03  0.74863720964E+03  0.00000000000E+00 0.  1.
         14    1    6    6    0    0 -0.91403727627E+01 -0.24257977873E+02 -0.83583257090E+02  0.87510895153E+02  0.00000000000E+00 0. -1.
         -5    1    3    3    0  503  0.16309739625E+02 -0.39547760117E+02 -0.47603164889E+03  0.47797306795E+03  0.47000000000E+01 0.  1.
         13    1    4    4    0    0  0.52581950255E+02  0.54598825876E+01 -0.90917157966E+02  0.10516939395E+03  0.00000000000E+00 0. -1.
        -14    1    4    4    0    0  0.28461415052E+02  0.54707188689E+02 -0.30322130518E+03  0.30942864857E+03  0.00000000000E+00 0.  1.
</event>
<event>
12    1  0.8526130E-002  0.2672563E+03  0.7818608E-02  0.1103073E+00
         21   -1    0    0  503  502  0.00000000000E+00  0.00000000000E+00  0.91503967011E+03  0.91503967011E+03  0.00000000000E+00 0. -1.
         21   -1    0    0  501  503 -0.00000000000E+00 -0.00000000000E+00 -0.83085142064E+02  0.83085142064E+02  0.00000000000E+00 0.  1.
          6    2    1    2  501    0 -0.13610352851E+03 -0.15285391936E+03  0.28917892809E+03  0.39376438235E+03  0.17186461305E+03 0.  0.
         24    2    3    3    0    0 -0.56559708558E+02 -0.34088839871E+01  0.11482082120E+03  0.15069262889E+03  0.79459589101E+02 0.  0.
         -6    2    1    2    0  502  0.13610352851E+03  0.15285391936E+03  0.54277559996E+03  0.60436042983E+03  0.16958091313E+03 0.  0.
        -24    2    5    5    0    0  0.14096258453E+03  0.93303341387E+02  0.29273069558E+03  0.34723317346E+03  0.79395546893E+02 0.  0.
          5    1    3    3  501    0 -0.79543819950E+02 -0.14944503537E+03  0.17435810689E+03  0.24307175345E+03  0.47000000000E+01 0. -1.
        -11    1    4    4    0    0 -0.54144044468E+02 -0.30023016673E+02  0.46795878011E+02  0.77606786303E+02  0.00000000000E+00 0.  1.
         12    1    4    4    0    0 -0.24156640904E+01  0.26614132686E+02  0.68024943187E+02  0.73085842590E+02  0.00000000000E+00 0. -1.
         -5    1    5    5    0  502 -0.48590560172E+01  0.59550577969E+02  0.25004490438E+03  0.25712725637E+03  0.47000000000E+01 0.  1.
         13    1    6    6    0    0  0.29501101096E+01  0.27789569321E+02  0.84286355025E+02  0.88798383747E+02  0.00000000000E+00 0. -1.
        -14    1    6    6    0    0  0.13801247442E+03  0.65513772066E+02  0.20844434056E+03  0.25843478971E+03  0.00000000000E+00 0.  1.
</event>
<event>
12    1  0.8526130E-002  0.1933800E+03  0.7818608E-02  0.1155561E+00
         21   -1    0    0  501  502  0.00000000000E+00  0.00000000000E+00  0.46280705303E+03  0.46280705303E+03  0.00000000000E+00 0.  1.
         21   -1    0    0  502  503 -0.00000000000E+00 -0.00000000000E+00 -0.14086490825E+03  0.14086490825E+03  0.00000000000E+00 0.  1.
         -6    2    1    2    0  503 -0.65636509866E+02  0.58460789846E+02 -0.36594800869E+02  0.19630904207E+03  0.17167482393E+03 0.  0.
        -24    2    3    3    0    0 -0.49787760809E+02  0.79522141639E+02  0.32176368898E+02  0.12250980645E+03  0.71907870396E+02 0.  0.
          6    2    1    2  501    0  0.65636509866E+02 -0.58460789846E+02  0.35853694564E+03  0.40736291921E+03  0.17224979298E+03 0.  0.
         24    2    5    5    0    0  0.65312508800E+02  0.28099226836E+02  0.20277541955E+03  0.22910332066E+03  0.79468046472E+02 0.  0.
          5    1    5    5  501    0  0.32400106655E+00 -0.86560016682E+02  0.15576152609E+03  0.17825959855E+03  0.47000000000E+01 0. -1.
        -11    1    6    6    0    0  0.52607219383E+02  0.15372091348E+02  0.20384864847E+03  0.21108787792E+03  0.00000000000E+00 0.  1.
         12    1    6    6    0    0  0.12705289417E+02  0.12727135488E+02 -0.10732289147E+01  0.18015442742E+02  0.00000000000E+00 0. -1.
         -5    1    3    3    0  503 -0.15848749057E+02 -0.21061351793E+02 -0.68771169767E+02  0.73799235614E+02  0.47000000000E+01 0.  1.
         11    1    4    4    0    0  0.59766407091E+01 -0.77630166793E+01 -0.67080635944E+01  0.11873616943E+02  0.00000000000E+00 0. -1.
        -12    1    4    4    0    0 -0.55764401518E+02  0.87285158319E+02  0.38884432492E+02  0.11063618951E+03  0.00000000000E+00 0.  1.
</event>
<event>
12    1  0.8526130E-002  0.1894849E+03  0.7818608E-02  0.1160526E+00
         21   -1    0    0  501  502  0.00000000000E+00  0.00000000000E+00  0.12283548828E+04  0.12283548828E+04  0.00000000000E+00 0. -1.
         21   -1    0    0  502  503 -0.00000000000E+00 -0.00000000000E+00 -0.84261986776E+02  0.84261986776E+02  0.00000000000E+00 0.  1.
         -6    2    1    2    0  503 -0.48303118211E+02 -0.46653988209E+02  0.33040728782E+02  0.18552262880E+03  0.16975620811E+03 0.  0.
        -24    2    3    3    0    0 -0.15444070978E+02 -0.75782334749E+02 -0.24216770525E+02  0.11321295597E+03  0.79052133666E+02 0.  0.
          6    2    1    2  501    0  0.48303118211E+02  0.46653988209E+02  0.11110521673E+04  0.11270942408E+04  0.17718556210E+03 0.  0.
         24    2    5    5    0    0  0.21621156771E+01 -0.43785082553E+01  0.16186431036E+03  0.17540469820E+03  0.67401091248E+02 0.  0.
          5    1    5    5  501    0  0.46141002534E+02  0.51032496465E+02  0.94918785690E+03  0.95168954260E+03  0.47000000000E+01 0. -1.
        -13    1    6    6    0    0 -0.14750926602E+02  0.26574074844E+02  0.54593741826E+02  0.62483981436E+02  0.00000000000E+00 0.  1.
         14    1    6    6    0    0  0.16913042279E+02 -0.30952583099E+02  0.10727056854E+03  0.11292071676E+03  0.00000000000E+00 0. -1.
         -5    1    3    3    0  503 -0.32859047233E+02  0.29128346540E+02  0.57257499307E+02  0.72309672825E+02  0.47000000000E+01 0.  1.
         13    1    4    4    0    0  0.15174445662E+02 -0.28307260106E+02  0.23067701778E+02  0.39543439926E+02  0.00000000000E+00 0. -1.
        -14    1    4    4    0    0 -0.30618516640E+02 -0.47475074643E+02 -0.47284472303E+02  0.73669516047E+02  0.00000000000E+00 0.  1.
</event>
<event>
12    1  0.8526130E-002  0.2018272E+03  0.7818608E-02  0.1149384E+00
         21   -1    0    0  503  502  0.00000000000E+00  0.00000000000E+00  0.72755306168E+03  0.72755306168E+03  0.00000000000E+00 0.  1.
         21   -1    0    0  501  503 -0.00000000000E+00 -0.00000000000E+00 -0.55614374153E+02  0.55614374153E+02  0.00000000000E+00 0.  1.
          6    2    1    2  501    0  0.14472861851E+00  0.93770638646E+02  0.28403372569E+03  0.34843850997E+03  0.17872124743E+03 0.  0.
         24    2    3    3    0    0  0.44538265039E+02  0.98169774696E+01  0.75043028814E+02  0.11883405731E+03  0.80062768525E+02 0.  0.
         -6    2    1    2    0  502 -0.14472861851E+00 -0.93770638646E+02  0.38790496184E+03  0.43472892586E+03  0.17241237179E+03 0.  0.
        -24    2    5    5    0    0  0.48372543377E+02 -0.10124193234E+03  0.28101878287E+03  0.31701532782E+03  0.94537452507E+02 0.  0.
          5    1    3    3  501    0 -0.44393536421E+02  0.83953661176E+02  0.20899069688E+03  0.22960445266E+03  0.47000000000E+01 0. -1.
        -11    1    4    4    0    0 -0.12710890223E+01  0.34989782104E+02  0.12162183785E+02  0.37065067563E+02  0.00000000000E+00 0.  1.
         12    1    4    4    0    0  0.45809354061E+02 -0.25172804635E+02  0.62880845030E+02  0.81768989748E+02  0.00000000000E+00 0. -1.
         -5    1    5    5    0  502 -0.48517271995E+02  0.74712936936E+01  0.10688617896E+03  0.11771359804E+03  0.47000000000E+01 0.  1.
         11    1    6    6    0    0 -0.17727171746E+02  0.46593469047E+01  0.64836267229E+02  0.67377323187E+02  0.00000000000E+00 0. -1.
        -12    1    6    6    0    0  0.66099715123E+02 -0.10590127924E+03  0.21618251565E+03  0.24963800463E+03  0.00000000000E+00 0.  1.
</event>
<event>
12    1  0.8526130E-002  0.2989098E+03  0.7818608E-02  0.1085792E+00
         21   -1    0    0  503  502  0.00000000000E+00  0.00000000000E+00  0.10811789277E+04  0.10811789277E+04  0.00000000000E+00 0.  1.
         21   -1    0    0  501  503 -0.00000000000E+00 -0.00000000000E+00 -0.19303683372E+03  0.19303683372E+03  0.00000000000E+00 0.  1.
          6    2    1    2  501    0  0.89938850358E+02 -0.22762417558E+03 -0.37747975090E+02  0.30128384486E+03  0.17159628038E+03 0.  0.
         24    2    3    3    0    0  0.11026257109E+03 -0.10004426022E+03 -0.10441108563E+02  0.16915722609E+03  0.79614457260E+02 0.  0.
         -6    2    1    2    0  502 -0.89938850358E+02  0.22762417558E+03  0.92589006908E+03  0.97293191656E+03  0.17152939143E+03 0.  0.
        -24    2    5    5    0    0 -0.40182373629E+02  0.45354590621E+02  0.45230388266E+03  0.46302616591E+03  0.78375799875E+02 0.  0.
          5    1    3    3  501    0 -0.20323720736E+02 -0.12757991536E+03 -0.27306866527E+02  0.13212661877E+03  0.47000000000E+01 0. -1.
        -11    1    4    4    0    0  0.31906508375E+02 -0.58614691574E+02 -0.37415461248E+02  0.76508980423E+02  0.00000000000E+00 0.  1.
         12    1    4    4    0    0  0.78356062719E+02 -0.41429568642E+02  0.26974352685E+02  0.92648245669E+02  0.00000000000E+00 0. -1.
         -5    1    5    5    0  502 -0.49756476729E+02  0.18226958496E+03  0.47358618642E+03  0.50990575064E+03  0.47000000000E+01 0.  1.
         13    1    6    6    0    0  0.15228566294E+02 -0.89668864264E+01  0.44039182250E+02  0.47452753943E+02  0.00000000000E+00 0. -1.
        -14    1    6    6    0    0 -0.55410939923E+02  0.54321477048E+02  0.40826470041E+03  0.41557341197E+03  0.00000000000E+00 0.  1.
</event>
<event>
12    1  0.8526130E-002  0.1796138E+03  0.7818608E-02  0.1169459E+00
         21   -1    0    0  503  502  0.00000000000E+00  0.00000000000E+00  0.12872137865E+03  0.12872137865E+03  0.00000000000E+00 0.  1.
         21   -1    0    0  501  503 -0.00000000000E+00 -0.00000000000E+00 -0.24717262685E+03  0.24717262685E+03  0.00000000000E+00 0.  1.
          6    2    1    2  501    0  0.43231046793E+02  0.17861224750E+02 -0.83222531567E+02  0.19795732672E+03  0.17341616615E+03 0.  0.
         24    2    3    3    0    0  0.36616248956E+02  0.34599301624E+02 -0.12403127883E+03  0.15310910912E+03  0.74301950214E+02 0.  0.
         -6    2    1    2    0  502 -0.43231046793E+02 -0.17861224750E+02 -0.35228716633E+02  0.17793667879E+03  0.16802515415E+03 0.  0.
        -24    2    5    5    0    0 -0.58359491871E+02  0.67192571600E+01 -0.78151922932E+02  0.12599862357E+03  0.79479251226E+02 0.  0.
          5    1    3    3  501    0  0.66147978374E+01 -0.16738076874E+02  0.40808747268E+02  0.44848217595E+02  0.47000000000E+01 0. -1.
        -13    1    4    4    0    0  0.26313883032E+01  0.49798494113E+02 -0.52129103356E+02  0.72140540870E+02  0.00000000000E+00 0.  1.
         14    1    4    4    0    0  0.33984860653E+02 -0.15199192489E+02 -0.71902175479E+02  0.80968568250E+02  0.00000000000E+00 0. -1.
         -5    1    5    5    0  502  0.15128445078E+02 -0.24580481910E+02  0.42923206299E+02  0.51938055224E+02  0.47000000000E+01 0.  1.
         11    1    6    6    0    0  0.23686279807E+01  0.32681553273E+02 -0.24712228469E+02  0.41041303083E+02  0.00000000000E+00 0. -1.
        -12    1    6    6    0    0 -0.60728119852E+02 -0.25962296113E+02 -0.53439694463E+02  0.84957320488E+02  0.00000000000E+00 0.  1.
</event>
<event>
12    1  0.8526130E-002  0.1779841E+03  0.7818608E-02  0.1169913E+00
         21   -1    0    0  503  502  0.00000000000E+00  0.00000000000E+00  0.17823517495E+03  0.17823517495E+03  0.00000000000E+00 0. -1.
         21   -1    0    0  501  503 -0.00000000000E+00 -0.00000000000E+00 -0.28126064940E+03  0.28126064940E+03  0.00000000000E+00 0. -1.
          6    2    1    2  501    0  0.31507641091E+02 -0.32143169400E+02  0.88323247460E+02  0.19816715190E+03  0.17159052789E+03 0.  0.
         24    2    3    3    0    0 -0.21142502003E+02  0.73840562476E+01 -0.66151407229E+01  0.82539185185E+02  0.79167084868E+02 0.  0.
         -6    2    1    2    0  502 -0.31507641091E+02  0.32143169400E+02 -0.19134872191E+03  0.26132867245E+03  0.17219880046E+03 0.  0.
        -24    2    5    5    0    0  0.51389093701E+02  0.16382929919E+02 -0.11816251234E+03  0.14953169101E+03  0.74081765291E+02 0.  0.
          5    1    3    3  501    0  0.52650143094E+02 -0.39527225648E+02  0.94938388183E+02  0.11562796671E+03  0.47000000000E+01 0. -1.
        -11    1    4    4    0    0 -0.16986072437E+02  0.94029364030E+01  0.35344506319E+02  0.40325872548E+02  0.00000000000E+00 0.  1.
         12    1    4    4    0    0 -0.41564295659E+01 -0.20188801554E+01 -0.41959647042E+02  0.42213312636E+02  0.00000000000E+00 0. -1.
         -5    1    5    5    0  502 -0.82896734792E+02  0.15760239481E+02 -0.73186209572E+02  0.11179698144E+03  0.47000000000E+01 0.  1.
         11    1    6    6    0    0  0.54462717936E+02  0.20544380499E+01 -0.34295570172E+02  0.64394056357E+02  0.00000000000E+00 0. -1.
        -12    1    6    6    0    0 -0.30736242350E+01  0.14328491870E+02 -0.83866942166E+02  0.85137634648E+02  0.00000000000E+00 0.  1.
</event>
<event>
12    1  0.8526130E-002  0.1842232E+03  0.7818608E-02  0.1163791E+00
         21   -1    0    0  503  502  0.00000000000E+00  0.00000000000E+00  0.76632323280E+03  0.76632323280E+03  0.00000000000E+00 0. -1.
         21   -1    0    0  501  503 -0.00000000000E+00 -0.00000000000E+00 -0.60144233658E+02  0.60144233658E+02  0.00000000000E+00 0. -1.
          6    2    1    2  501    0 -0.46819611936E+02 -0.45713551419E+02  0.14085139685E+03  0.23189931859E+03  0.17221025847E+03 0.  0.
         24    2    3    3    0    0  0.33955853646E+02 -0.95432067714E+01  0.10504445989E+03  0.13631063512E+03  0.79386257636E+02 0.  0.
         -6    2    1    2    0  502  0.46819611936E+02  0.45713551419E+02  0.56532760229E+03  0.59456814787E+03  0.17214580943E+03 0.  0.
        -24    2    5    5    0    0 -0.38312886425E+02  0.61980444049E+01  0.24282978063E+03  0.25865751608E+03  0.80194234486E+02 0.  0.
          5    1    3    3  501    0 -0.80775465583E+02 -0.36170344648E+02  0.35806936964E+02  0.95588683466E+02  0.47000000000E+01 0. -1.
        -11    1    4    4    0    0  0.34879902569E+02 -0.28257567812E+02  0.19854809931E+02  0.49084735095E+02  0.00000000000E+00 0.  1.
         12    1    4    4    0    0 -0.92404892295E+00  0.18714361041E+02  0.85189649956E+02  0.87225900025E+02  0.00000000000E+00 0. -1.
         -5    1    5    5    0  502  0.85132498361E+02  0.39515507014E+02  0.32249782166E+03  0.33591063179E+03  0.47000000000E+01 0.  1.
         11    1    6    6    0    0  0.15941339822E+02 -0.57935439048E+01  0.14628745587E+03  0.14726748185E+03  0.00000000000E+00 0. -1.
        -12    1    6    6    0    0 -0.54254226246E+02  0.11991588310E+02  0.96542324760E+02  0.11139003423E+03  0.00000000000E+00 0.  1.
</event>
<event>
12    1  0.8526130E-002  0.3032273E+03  0.7818608E-02  0.1083658E+00
         21   -1    0    0  501  502  0.00000000000E+00  0.00000000000E+00  0.85644038790E+02  0.85644038790E+02  0.00000000000E+00 0.  1.
         21   -1    0    0  502  503 -0.00000000000E+00 -0.00000000000E+00 -0.11089846896E+04  0.11089846896E+04  0.00000000000E+00 0. -1.
         -6    2    1    2    0  503 -0.24148115370E+03 -0.61653221247E+02 -0.61908782987E+03  0.68929012011E+03  0.17244379175E+03 0.  0.
        -24    2    3    3    0    0 -0.62639424712E+02  0.24821606048E+02 -0.19626831943E+03  0.22210633595E+03  0.79184351990E+02 0.  0.
          6    2    1    2  501    0  0.24148115370E+03  0.61653221247E+02 -0.40425282097E+03  0.50533860830E+03  0.17272086873E+03 0.  0.
         24    2    5    5    0    0  0.23354553982E+03  0.66984935529E+01 -0.32387415459E+03  0.40753361828E+03  0.81245264681E+02 0.  0.
          5    1    5    5  501    0  0.79356138820E+01  0.54954727695E+02 -0.80378666382E+02  0.97804990021E+02  0.47000000000E+01 0. -1.
        -11    1    6    6    0    0  0.37780132651E+02 -0.17221315707E+02 -0.22118421759E+02  0.47043987064E+02  0.00000000000E+00 0.  1.
         12    1    6    6    0    0  0.19576540717E+03  0.23919809260E+02 -0.30175573283E+03  0.36048963121E+03  0.00000000000E+00 0. -1.
         -5    1    3    3    0  503 -0.17884172899E+03 -0.86474827296E+02 -0.42281951043E+03  0.46718378416E+03  0.47000000000E+01 0.  1.
         13    1    4    4    0    0 -0.65986683059E+02  0.28248748853E+02 -0.20215301884E+03  0.21451824440E+03  0.00000000000E+00 0. -1.
        -14    1    4    4    0    0  0.33472583471E+01 -0.34271428045E+01  0.58846994083E+01  0.75880915500E+01  0.00000000000E+00 0.  1.
</event>
<event>
12    1  0.8526130E-002  0.1879895E+03  0.7818608E-02  0.1160496E+00
         21   -1    0    0  501  502  0.00000000000E+00  0.00000000000E+00  0.32824895500E+03  0.32824895500E+03  0.00000000000E+00 0.  1.
         21   -1    0    0  502  503 -0.00000000000E+00 -0.00000000000E+00 -0.10718727155E+03  0.10718727155E+03  0.00000000000E+00 0. -1.
         -6    2    1    2    0  503  0.69082765286E+02  0.31643409434E+02  0.11534001855E+03  0.22055239136E+03  0.17194854938E+03 0.  0.
        -24    2    3    3    0    0 -0.30312362217E+02  0.25179858733E+02  0.42806718311E+02  0.97246517600E+02  0.77920507339E+02 0.  0.
          6    2    1    2  501    0 -0.69082765286E+02 -0.31643409434E+02  0.10572166489E+03  0.21488383519E+03  0.17095104089E+03 0.  0.
         24    2    5    5    0    0 -0.77125241281E+02  0.79718193119E+00  0.13196328312E+03  0.17213122223E+03  0.79157509016E+02 0.  0.
          5    1    5    5  501    0  0.80424759945E+01 -0.32440591365E+02 -0.26241618225E+02  0.42752612965E+02  0.47000000000E+01 0. -1.
        -13    1    6    6    0    0 -0.36728338009E+01 -0.21549327053E+02  0.30289214798E+01  0.22068927701E+02  0.00000000000E+00 0.  1.
         14    1    6    6    0    0 -0.73452407480E+02  0.22346508984E+02  0.12893436164E+03  0.15006229453E+03  0.00000000000E+00 0. -1.
         -5    1    3    3    0  503  0.99395127503E+02  0.64635507007E+01  0.72533300242E+02  0.12330587376E+03  0.47000000000E+01 0.  1.
         13    1    4    4    0    0 -0.14472867352E+02  0.12687931823E+02 -0.22083024123E+02  0.29293471248E+02  0.00000000000E+00 0. -1.
        -14    1    4    4    0    0 -0.15839494864E+02  0.12491926910E+02  0.64889742434E+02  0.67953046353E+02  0.00000000000E+00 0.  1.
</event>
<event>
12    1  0.8526130E-002  0.4551521E+03  0.7818608E-02  0.1026213E+00
         21   -1    0    0  503  502  0.00000000000E+00  0.00000000000E+00  0.15031571233E+03  0.15031571233E+03  0.00000000000E+00 0.  1.
         21   -1    0    0  501  503 -0.00000000000E+00 -0.00000000000E+00 -0.14544935153E+04  0.14544935153E+04  0.00000000000E+00 0. -1.
          6    2    1    2  501    0 -0.33926808645E+03  0.24970098571E+03 -0.46765038994E+03  0.65257975396E+03  0.17236598074E+03 0.  0.
         24    2    3    3    0    0 -0.32501818764E+03  0.18102516081E+03 -0.42448556804E+03  0.57008902483E+03  0.80041037075E+02 0.  0.
         -6    2    1    2    0  502  0.33926808645E+03 -0.24970098571E+03 -0.83652741307E+03  0.95222947370E+03  0.17178312205E+03 0.  0.
        -24    2    5    5    0    0  0.28237700775E+03 -0.24997432179E+03 -0.63624204149E+03  0.74396764423E+03  0.80374027122E+02 0.  0.
          5    1    3    3  501    0 -0.14249898807E+02  0.68675824903E+02 -0.43164821896E+02  0.82490729124E+02  0.47000000000E+01 0. -1.
        -11    1    4    4    0    0 -0.32230641914E+03  0.17675762924E+03 -0.39269085046E+03  0.53789477721E+03  0.00000000000E+00 0.  1.
         12    1    4    4    0    0 -0.27117685010E+01  0.42675315718E+01 -0.31794717578E+02  0.32194247622E+02  0.00000000000E+00 0. -1.
         -5    1    5    5    0  502  0.56891078696E+02  0.27333607514E+00 -0.20028537158E+03  0.20826182947E+03  0.47000000000E+01 0.  1.
         13    1    6    6    0    0  0.21392826624E+03 -0.16998069379E+03 -0.51799875784E+03  0.58564618370E+03  0.00000000000E+00 0. -1.
        -14    1    6    6    0    0  0.68448741511E+02 -0.79993628003E+02 -0.11824328365E+03  0.15832146053E+03  0.00000000000E+00 0.  1.
</event>
<event>
12    1  0.8526130E-002  0.1784809E+03  0.7818608E-02  0.1169295E+00
         21   -1    0    0  503  502  0.00000000000E+00  0.00000000000E+00  0.16114179461E+03  0.16114179461E+03  0.00000000000E+00 0. -1.
         21   -1    0    0  501  503 -0.00000000000E+00 -0.00000000000E+00 -0.56391040953E+03  0.56391040953E+03  0.00000000000E+00 0. -1.
          6    2    1    2  501    0  0.35457185306E+01 -0.48960109501E+02 -0.49354955858E+03  0.52481086259E+03  0.17153894680E+03 0.  0.
         24    2    3    3    0    0 -0.46019750519E+02 -0.65357933355E+02 -0.42043179475E+03  0.43484463706E+03  0.77055093573E+02 0.  0.
         -6    2    1    2    0  502 -0.35457185306E+01  0.48960109501E+02  0.90780943666E+02  0.20024134155E+03  0.17159764185E+03 0.  0.
        -24    2    5    5    0    0  0.38058751033E+01  0.55544880543E+02 -0.10893806453E+02  0.97980645527E+02  0.79886253129E+02 0.  0.
          5    1    3    3  501    0  0.49565469050E+02  0.16397823853E+02 -0.73117763827E+02  0.89966225531E+02  0.47000000000E+01 0. -1.
        -11    1    4    4    0    0 -0.15501460020E+02 -0.84220482626E+01 -0.12000635752E+02  0.21336387186E+02  0.00000000000E+00 0.  1.
         12    1    4    4    0    0 -0.30518290499E+02 -0.56935885092E+02 -0.40843115900E+03  0.41350824987E+03  0.00000000000E+00 0. -1.
         -5    1    5    5    0  502 -0.73515936339E+01 -0.65847710413E+01  0.10167475012E+03  0.10226069602E+03  0.47000000000E+01 0.  1.
         13    1    6    6    0    0  0.24952342051E+02  0.62650719191E+02  0.90695481148E+01  0.68044020251E+02  0.00000000000E+00 0. -1.
        -14    1    6    6    0    0 -0.21146466948E+02 -0.71058386479E+01 -0.19963354568E+02  0.29936625275E+02  0.00000000000E+00 0.  1.
</event>
<event>
12    1  0.8526130E-002  0.1825630E+03  0.7818608E-02  0.1165569E+00
         21   -1    0    0  503  502  0.00000000000E+00  0.00000000000E+00  0.81255697158E+02  0.81255697158E+02  0.00000000000E+00 0.  1.
         21   -1    0    0  501  503 -0.00000000000E+00 -0.00000000000E+00 -0.47799982918E+03  0.47799982918E+03  0.00000000000E+00 0. -1.
          6    2    1    2  501    0  0.45511102870E+02  0.25790159570E+02 -0.90982437588E+02  0.20313830719E+03  0.17392807445E+03 0.  0.
         24    2    3    3    0    0  0.56236285310E+02  0.73271894415E+02 -0.31130297536E+02  0.12584721229E+03  0.79606124883E+02 0.  0.
         -6    2    1    2    0  502 -0.45511102870E+02 -0.25790159570E+02 -0.30576169443E+03  0.35611721915E+03  0.17490816784E+03 0.  0.
        -24    2    5    5    0    0 -0.26174210152E+02  0.35094713842E+02 -0.26486843941E+03  0.28012227500E+03  0.79977937817E+02 0.  0.
          5    1    3    3  501    0 -0.10725182440E+02 -0.47481734844E+02 -0.59852140052E+02  0.77291094901E+02  0.47000000000E+01 0. -1.
        -13    1    4    4    0    0 -0.16011776036E+02  0.21544078448E+02  0.90511152868E+01  0.28327495052E+02  0.00000000000E+00 0.  1.
         14    1    4    4    0    0  0.72248061346E+02  0.51727815966E+02 -0.40181412823E+02  0.97519717233E+02  0.00000000000E+00 0. -1.
         -5    1    5    5    0  502 -0.19336892718E+02 -0.60884873412E+02 -0.40893255022E+02  0.75994944152E+02  0.47000000000E+01 0.  1.
         11    1    6    6    0    0 -0.24511487979E+02 -0.18145609809E+02 -0.15561862917E+03  0.15857879411E+03  0.00000000000E+00 0. -1.
        -12    1    6    6    0    0 -0.16627221726E+01  0.53240323651E+02 -0.10924981024E+03  0.12154348088E+03  0.00000000000E+00 0.  1.
</event>
<event>
12    1  0.8526130E-002  0.1821658E+03  0.7818608E-02  0.1165764E+00
         21   -1    0    0  503  502  0.00000000000E+00  0.00000000000E+00  0.28441700071E+03  0.28441700071E+03  0.00000000000E+00 0.  1.
         21   -1    0    0  501  503 -0.00000000000E+00 -0.00000000000E+00 -0.72300508865E+03  0.72300508865E+03  0.00000000000E+00 0.  1.
          6    2    1    2  501    0  0.56118264096E+02 -0.22632582047E+02 -0.68063297417E+03  0.70458898730E+03  0.17182229819E+03 0.  0.
         24    2    3    3    0    0  0.35459940142E+02  0.56889443561E+02 -0.30532893938E+03  0.32036805159E+03  0.70114984940E+02 0.  0.
         -6    2    1    2    0  502 -0.56118264096E+02  0.22632582047E+02  0.24204488623E+03  0.30283310207E+03  0.17164110062E+03 0.  0.
        -24    2    5    5    0    0  0.25463108869E+02 -0.48190252065E+00  0.17653076255E+03  0.19557644627E+03  0.80239853344E+02 0.  0.
          5    1    3    3  501    0  0.20658323954E+02 -0.79522025608E+02 -0.37530403479E+03  0.38422093570E+03  0.47000000000E+01 0. -1.
        -13    1    4    4    0    0  0.14700146032E+02  0.11614776098E+02 -0.22548980402E+03  0.22626676520E+03  0.00000000000E+00 0.  1.
         14    1    4    4    0    0  0.20759794110E+02  0.45274667463E+02 -0.79839135367E+02  0.94101286397E+02  0.00000000000E+00 0. -1.
         -5    1    5    5    0  502 -0.81581372965E+02  0.23114484567E+02  0.65514123678E+02  0.10725665580E+03  0.47000000000E+01 0.  1.
         13    1    6    6    0    0  0.35797165125E+02  0.26570098624E+02  0.55802075969E+02  0.71423237495E+02  0.00000000000E+00 0. -1.
        -14    1    6    6    0    0 -0.10334056256E+02 -0.27052001145E+02  0.12072868658E+03  0.12415320877E+03  0.00000000000E+00 0.  1.
</event>
<event>
12    1  0.8526130E-002  0.1987969E+03  0.7818608E-02  0.1151902E+00
         21   -1    0    0  501  502  0.00000000000E+00  0.00000000000E+00  0.22931457139E+03  0.22931457139E+03  0.00000000000E+00 0.  1.
         21   -1    0    0  502  503 -0.00000000000E+00 -0.00000000000E+00 -0.20885794477E+03  0.20885794477E+03  0.00000000000E+00 0. -1.
         -6    2    1    2    0  503 -0.52585118567E+02 -0.68503330539E+02 -0.87044729043E+02  0.21217084041E+03  0.17315247522E+03 0.  0.
        -24    2    3    3    0    0 -0.56688643296E+02 -0.60458999943E+02 -0.12701656940E+03  0.17092295329E+03  0.78819757089E+02 0.  0.
          6    2    1    2  501    0  0.52585118567E+02  0.68503330539E+02  0.10750135566E+03  0.22600167575E+03  0.17905952916E+03 0.  0.
         24    2    5    5    0    0  0.78967369056E+02  0.10470587627E+03  0.74194382616E+02  0.16998300108E+03  0.78678131294E+02 0.  0.
          5    1    5    5  501    0 -0.26382250489E+02 -0.36202545730E+02  0.33306973043E+02  0.56018674667E+02  0.47000000000E+01 0. -1.
        -13    1    6    6    0    0  0.47940086624E+02  0.82811202831E+02  0.11081392713E+02  0.96326239853E+02  0.00000000000E+00 0.  1.
         14    1    6    6    0    0  0.31027282432E+02  0.21894673438E+02  0.63112989903E+02  0.73656761228E+02  0.00000000000E+00 0. -1.
         -5    1    3    3    0  503  0.41035247296E+01 -0.80443305962E+01  0.39971840355E+02  0.41247887114E+02  0.47000000000E+01 0.  1.
         11    1    4    4    0    0  0.84097612114E+01 -0.17258626224E+02 -0.74134373694E+02  0.76579955770E+02  0.00000000000E+00 0. -1.
        -12    1    4    4    0    0 -0.65098404508E+02 -0.43200373719E+02 -0.52882195704E+02  0.94342997522E+02  0.00000000000E+00 0.  1.
</event>
<event>
12    1  0.8526130E-002  0.1926570E+03  0.7818608E-02  0.1156981E+00
         21   -1    0    0  501  502  0.00000000000E+00  0.00000000000E+00  0.54043593278E+03  0.54043593278E+03  0.00000000000E+00 0.  1.
         21   -1    0    0  502  503 -0.00000000000E+00 -0.00000000000E+00 -0.73161814368E+02  0.73161814368E+02  0.00000000000E+00 0.  1.
         -6    2    1    2    0  503 -0.75470672399E+02 -0.36139297058E+02  0.14877800167E+03  0.24341654863E+03  0.17353631084E+03 0.  0.
        -24    2    3    3    0    0 -0.11937013179E+03 -0.36895646240E+02  0.10781511984E+03  0.18318547452E+03  0.79512897918E+02 0.  0.
          6    2    1    2  501    0  0.75470672399E+02  0.36139297058E+02  0.31849611674E+03  0.37018119852E+03  0.16909308731E+03 0.  0.
         24    2    5    5    0    0  0.14311590038E+02 -0.25011740346E+02  0.23719671987E+03  0.25138909162E+03  0.78126709286E+02 0.  0.
          5    1    5    5  501    0  0.61159082361E+02  0.61151037404E+02  0.81299396866E+02  0.11879210690E+03  0.47000000000E+01 0. -1.
        -11    1    6    6    0    0  0.39283042786E+02 -0.38511031925E+01  0.64508570088E+02  0.75626345021E+02  0.00000000000E+00 0.  1.
         12    1    6    6    0    0 -0.24971452748E+02 -0.21160637153E+02  0.17268814978E+03  0.17576274660E+03  0.00000000000E+00 0. -1.
         -5    1    3    3    0  503  0.43899459394E+02  0.75634918188E+00  0.40962881835E+02  0.60231074102E+02  0.47000000000E+01 0.  1.
         11    1    4    4    0    0 -0.82670251339E+01 -0.35605737282E+02  0.20794717227E+02  0.42053923676E+02  0.00000000000E+00 0. -1.
        -12    1    4    4    0    0 -0.11110310666E+03 -0.12899089574E+01  0.87020402609E+02  0.14113155085E+03  0.00000000000E+00 0.  1.
</event>
<event>
12    1  0.8526130E-002  0.1781817E+03  0.7818608E-02  0.1170894E+00
         21   -1    0    0  503  502  0.00000000000E+00  0.00000000000E+00  0.75701177445E+03  0.75701177445E+03  0.00000000000E+00 0.  1.
         21   -1    0    0  501  503 -0.00000000000E+00 -0.00000000000E+00 -0.50822121926E+03  0.50822121926E+03  0.00000000000E+00 0.  1.
          6    2    1    2  501    0 -0.42629634322E+02  0.36861622336E+02 -0.48220425888E+03  0.51407164759E+03  0.16903445405E+03 0.  0.
         24    2    3    3    0    0 -0.66949000978E+02  0.47413259456E+02 -0.47096588238E+03  0.48489700540E+03  0.81154529040E+02 0.  0.
         -6    2    1    2    0  502  0.42629634322E+02 -0.36861622336E+02  0.73099481406E+03  0.75116134612E+03  0.16344382761E+03 0.  0.
        -24    2    5    5    0    0 -0.25490832214E+02 -0.15739376335E+02  0.21466761368E+03  0.22991052828E+03  0.76675655567E+02 0.  0.
          5    1    3    3  501    0  0.24319366656E+02 -0.10551637120E+02 -0.11238376499E+02  0.29174642188E+02  0.47000000000E+01 0. -1.
        -13    1    4    4    0    0 -0.60576729063E+02  0.32823884814E+02 -0.16890243995E+03  0.18241431342E+03  0.00000000000E+00 0.  1.
         14    1    4    4    0    0 -0.63722719148E+01  0.14589374641E+02 -0.30206344242E+03  0.30248269199E+03  0.00000000000E+00 0. -1.
         -5    1    5    5    0  502  0.68120466536E+02 -0.21122246001E+02  0.51632720038E+03  0.52125081783E+03  0.47000000000E+01 0.  1.
         11    1    6    6    0    0 -0.15988675089E+02 -0.45635429252E+02  0.15680403819E+03  0.16409063510E+03  0.00000000000E+00 0. -1.
        -12    1    6    6    0    0 -0.95021571248E+01  0.29896052918E+02  0.57863575493E+02  0.65819893185E+02  0.00000000000E+00 0.  1.
</event>
<event>
12    1  0.8526130E-002  0.1909702E+03  0.7818608E-02  0.1160172E+00
         21   -1    0    0  503  502  0.00000000000E+00  0.00000000000E+00  0.10813044006E+04  0.10813044006E+04  0.00000000000E+00 0. -1.
         21   -1    0    0  501  503 -0.00000000000E+00 -0.00000000000E+00 -0.85775975828E+02  0.85775975828E+02  0.00000000000E+00 0. -1.
          6    2    1    2  501    0 -0.21909575464E+02 -0.49709402723E+02  0.29321334580E+02  0.18218152642E+03  0.17140394888E+03 0.  0.
         24    2    3    3    0    0 -0.61126073955E+02 -0.80871676983E+02  0.20478925406E+02  0.13110022563E+03  0.80568341914E+02 0.  0.
         -6    2    1    2    0  502  0.21909575464E+02  0.49709402723E+02  0.96620709021E+03  0.98489885002E+03  0.18308071823E+03 0.  0.
        -24    2    5    5    0    0  0.28659933419E+02 -0.37341770096E+02  0.65564461704E+03  0.66226188103E+03  0.80654421008E+02 0.  0.
          5    1    3    3  501    0  0.39216498491E+02  0.31162274260E+02  0.88424091738E+01  0.51081300795E+02  0.47000000000E+01 0. -1.
        -11    1    4    4    0    0 -0.48687117631E+01 -0.16440485136E+02  0.39864716901E+02  0.43395732040E+02  0.00000000000E+00 0.  1.
         12    1    4    4    0    0 -0.56257362192E+02 -0.64431191847E+02 -0.19385791495E+02  0.87704493588E+02  0.00000000000E+00 0. -1.
         -5    1    5    5    0  502 -0.67503579546E+01  0.87051172819E+02  0.31056247317E+03  0.32263696899E+03  0.47000000000E+01 0.  1.
         13    1    6    6    0    0  0.26164503574E+02  0.12467785050E+02  0.93008240539E+02  0.97419503794E+02  0.00000000000E+00 0. -1.
        -14    1    6    6    0    0  0.24954298443E+01 -0.49809555146E+02  0.56263637650E+03  0.56484237723E+03  0.00000000000E+00 0.  1.
</event>
<event>
12    1  0.8526130E-002  0.1712628E+03  0.7818608E-02  0.1176663E+00
         21   -1    0    0  501  502  0.00000000000E+00  0.00000000000E+00  0.90420582936E+03  0.90420582936E+03  0.00000000000E+00 0. -1.
         21   -1    0    0  502  503 -0.00000000000E+00 -0.00000000000E+00 -0.72115645522E+02  0.72115645522E+02  0.00000000000E+00 0. -1.
         -6    2    1    2    0  503  0.31458031167E+01 -0.26894383123E+01  0.53266352174E+02  0.17888964630E+03  0.17072513618E+03 0.  0.
        -24    2    3    3    0    0 -0.25509646787E+01 -0.22770180950E+02  0.98390469511E+02  0.12895002922E+03  0.80140108467E+02 0.  0.
          6    2    1    2  501    0 -0.31458031167E+01  0.26894383123E+01  0.77882383166E+03  0.79743182858E+03  0.17121282461E+03 0.  0.
         24    2    5    5    0    0 -0.47592555757E+02 -0.45932442492E+02  0.54370554442E+03  0.55321409763E+03  0.77815667766E+02 0.  0.
          5    1    5    5  501    0  0.44446752640E+02  0.48621880804E+02  0.23511828724E+03  0.24421773095E+03  0.47000000000E+01 0. -1.
        -11    1    6    6    0    0 -0.27820286512E+02 -0.25321129282E+02  0.77631653700E+02  0.86265877297E+02  0.00000000000E+00 0.  1.
         12    1    6    6    0    0 -0.19772269245E+02 -0.20611313210E+02  0.46607389072E+03  0.46694822034E+03  0.00000000000E+00 0. -1.
         -5    1    3    3    0  503  0.56967677954E+01  0.20080742637E+02 -0.45124117337E+02  0.49939617076E+02  0.47000000000E+01 0.  1.
         13    1    4    4    0    0 -0.26735365576E+02 -0.41461770995E+02  0.41924193771E+02  0.64741765884E+02  0.00000000000E+00 0. -1.
        -14    1    4    4    0    0  0.24184400898E+02  0.18691590045E+02  0.56466275741E+02  0.64208263340E+02  0.00000000000E+00 0.  1.
</event>
<event>
12    1  0.8526130E-002  0.2204338E+03  0.7818608E-02  0.1133680E+00
         21   -1    0    0  501  502  0.00000000000E+00  0.00000000000E+00  0.23036911545E+03  0.23036911545E+03  0.00000000000E+00 0. -1.
         21   -1    0    0  502  503 -0.00000000000E+00 -0.00000000000E+00 -0.23473886501E+03  0.23473886501E+03  0.00000000000E+00 0.  1.
         -6    2    1    2    0  503 -0.12945760728E+03 -0.46163142135E+02 -0.77198108290E+02  0.23295497061E+03  0.17151723714E+03 0.  0.
        -24    2    3    3    0    0 -0.14035668948E+03 -0.82600224759E+02 -0.65567146225E+02  0.19290724581E+03  0.79945965573E+02 0.  0.
          6    2    1    2  501    0  0.12945760728E+03  0.46163142135E+02  0.72828358736E+02  0.23215300985E+03  0.17233903323E+03 0.  0.
         24    2    5    5    0    0  0.10468637724E+03 -0.20295253671E+02  0.87477363688E+02  0.15957880261E+03  0.80261885004E+02 0.  0.
          5    1    5    5  501    0  0.24771230038E+02  0.66458395806E+02 -0.14649004952E+02  0.72574207242E+02  0.47000000000E+01 0. -1.
        -13    1    6    6    0    0  0.22536949150E+02  0.29034822500E+02  0.16270231203E+02  0.40195216357E+02  0.00000000000E+00 0.  1.
         14    1    6    6    0    0  0.82149428087E+02 -0.49330076171E+02  0.71207132486E+02  0.11938358625E+03  0.00000000000E+00 0. -1.
         -5    1    3    3    0  503  0.10899082202E+02  0.36437082624E+02 -0.11630962065E+02  0.40047724799E+02  0.47000000000E+01 0.  1.
         13    1    4    4    0    0 -0.64944611615E+02 -0.41865341753E+02  0.10912455556E+02  0.78035832181E+02  0.00000000000E+00 0. -1.
        -14    1    4    4    0    0 -0.75412077863E+02 -0.40734883006E+02 -0.76479601781E+02  0.11487141363E+03  0.00000000000E+00 0.  1.
</event>
<event>
12    1  0.8526130E-002  0.1764910E+03  0.7818608E-02  0.1172218E+00
         21   -1    0    0  501  502  0.00000000000E+00  0.00000000000E+00  0.12034498039E+04  0.12034498039E+04  0.00000000000E+00 0.  1.
         21   -1    0    0  502  503 -0.00000000000E+00 -0.00000000000E+00 -0.25951741107E+02  0.25951741107E+02  0.00000000000E+00 0. -1.
         -6    2    1    2    0  503  0.23399287968E+02  0.28864463224E+02  0.49900347489E+03  0.52929531302E+03  0.17253514574E+03 0.  0.
        -24    2    3    3    0    0  0.64528595406E+02  0.64588612055E+02  0.32197579415E+03  0.34401518865E+03  0.79639246392E+02 0.  0.
          6    2    1    2  501    0 -0.23399287968E+02 -0.28864463224E+02  0.67849458793E+03  0.70010623202E+03  0.16856199556E+03 0.  0.
         24    2    5    5    0    0  0.10176497996E+02  0.44314942931E+02  0.34862495910E+03  0.36052027690E+03  0.79800580642E+02 0.  0.
          5    1    5    5  501    0 -0.33575785964E+02 -0.73179406155E+02  0.32986962883E+03  0.33958595512E+03  0.47000000000E+01 0. -1.
        -11    1    6    6    0    0  0.22174270803E+02  0.23331718914E+02  0.32543770055E+03  0.32702563253E+03  0.00000000000E+00 0.  1.
         12    1    6    6    0    0 -0.11997772807E+02  0.20983224017E+02  0.23187258555E+02  0.33494644375E+02  0.00000000000E+00 0. -1.
         -5    1    3    3    0  503 -0.41129307438E+02 -0.35724148831E+02  0.17702768074E+03  0.18528012437E+03  0.47000000000E+01 0.  1.
         13    1    4    4    0    0  0.35066090587E+02  0.12885319283E+02  0.35887224848E+02  0.51803041121E+02  0.00000000000E+00 0. -1.
        -14    1    4    4    0    0  0.29462504819E+02  0.51703292772E+02  0.28608856931E+03  0.29221214753E+03  0.00000000000E+00 0.  1.
</event>
<event>
12    1  0.8526130E-002  0.2011959E+03  0.7818608E-02  0.1149083E+00
         21   -1    0    0  501  502  0.00000000000E+00  0.00000000000E+00  0.39008439624E+03  0.39008439624E+03  0.00000000000E+00 0. -1.
         21   -1    0    0  502  503 -0.00000000000E+00 -0.00000000000E+00 -0.10330700719E+03  0.10330700719E+03  0.00000000000E+00 0.  1.
         -6    2    1    2    0  503  0.69957018208E+02 -0.75864527486E+02  0.12765272863E+03  0.23687544829E+03  0.17077865191E+03 0.  0.
        -24    2    3    3    0    0  0.11036499950E+03 -0.37130979555E+02  0.10841055971E+03  0.17750000090E+03  0.78703609231E+02 0.  0.
          6    2    1    2  501    0 -0.69957018208E+02  0.75864527486E+02  0.15912466042E+03  0.25651595514E+03  0.17271469758E+03 0.  0.
         24    2    5    5    0    0 -0.38204066658E+01  0.82027216913E+02  0.40850013348E+02  0.12078455764E+03  0.78594694175E+02 0.  0.
          5    1    5    5  501    0 -0.66136611542E+02 -0.61626894271E+01  0.11827464707E+03  0.13573139750E+03  0.47000000000E+01 0. -1.
        -13    1    6    6    0    0  0.16334036670E+02  0.84782929400E+02  0.48524213702E+02  0.99043148107E+02  0.00000000000E+00 0.  1.
         14    1    6    6    0    0 -0.20154443335E+02 -0.27557124865E+01 -0.76742003545E+01  0.21741409534E+02  0.00000000000E+00 0. -1.
         -5    1    3    3    0  503 -0.40407981293E+02 -0.38733547931E+02  0.19242168916E+02  0.59375447384E+02  0.47000000000E+01 0.  1.
         11    1    4    4    0    0  0.26577702376E+02 -0.41328207467E+02  0.69265939552E+02  0.84924468665E+02  0.00000000000E+00 0. -1.
        -12    1    4    4    0    0  0.83787297125E+02  0.41972279123E+01  0.39144620161E+02  0.92575532238E+02  0.00000000000E+00 0.  1.
</event>
<event>
12    1  0.8526130E-002  0.1992519E+03  0.7818608E-02  0.1150381E+00
         21   -1    0    0  503  502  0.00000000000E+00  0.00000000000E+00  0.51271043539E+03  0.51271043539E+03  0.00000000000E+00 0. -1.
         21   -1    0    0  501  503 -0.00000000000E+00 -0.00000000000E+00 -0.15558375101E+03  0.15558375101E+03  0.00000000000E+00 0.  1.
          6    2    1    2  501    0  0.25625353140E+02 -0.98688753895E+02 -0.58291320580E+02  0.20756279044E+03  0.17113826297E+03 0.  0.
         24    2    3    3    0    0  0.77560339896E+02 -0.45692633564E+02 -0.14867606106E+02  0.12146087061E+03  0.80176519582E+02 0.  0.
         -6    2    1    2    0  502 -0.25625353140E+02  0.98688753895E+02  0.41541800496E+03  0.46073139595E+03  0.17118753316E+03 0.  0.
        -24    2    5    5    0    0 -0.11650419884E+02  0.52588549071E+01  0.30219824301E+03  0.31320089308E+03  0.81287351460E+02 0.  0.
          5    1    3    3  501    0 -0.51934986757E+02 -0.52996120331E+02 -0.43423714473E+02  0.86101919829E+02  0.47000000000E+01 0. -1.
        -11    1    4    4    0    0  0.29957119271E+02  0.14256792250E+02 -0.28462177720E+02  0.43712477404E+02  0.00000000000E+00 0.  1.
         12    1    4    4    0    0  0.47603220626E+02 -0.59949425814E+02  0.13594571614E+02  0.77748393210E+02  0.00000000000E+00 0. -1.
         -5    1    5    5    0  502 -0.13974933256E+02  0.93429898988E+02  0.11321976194E+03  0.14753050288E+03  0.47000000000E+01 0.  1.
         11    1    6    6    0    0  0.32002597875E+02 -0.45195658834E+01  0.18406841025E+03  0.18688438243E+03  0.00000000000E+00 0. -1.
        -12    1    6    6    0    0 -0.43653017759E+02  0.97784207906E+01  0.11812983276E+03  0.12631651065E+03  0.00000000000E+00 0.  1.
</event>
<event>
12    1  0.8526130E-002  0.1796136E+03  0.7818608E-02  0.1168262E+00
         21   -1    0    0  503  502  0.00000000000E+00  0.00000000000E+00  0.18576003931E+03  0.18576003931E+03  0.00000000000E+00 0. -1.
         21   -1    0    0  501  503 -0.00000000000E+00 -0.00000000000E+00 -0.41405321199E+03  0.41405321199E+03  0.00000000000E+00 0. -1.
          6    2    1    2  501    0  0.26044616148E+02 -0.36009897675E+02 -0.34277194664E+03  0.38681923214E+03  0.17367059680E+03 0.  0.
         24    2    3    3    0    0  0.17011797574E+02 -0.70637024449E+02 -0.12495081409E+03  0.16602800608E+03  0.81692119462E+02 0.  0.
         -6    2    1    2    0  502 -0.26044616148E+02  0.36009897675E+02  0.11447877396E+03  0.21299401916E+03  0.17402881299E+03 0.  0.
        -24    2    5    5    0    0 -0.59810711610E+02  0.47560723435E+02  0.13414619959E+03  0.17197611564E+03  0.75770956501E+02 0.  0.
          5    1    3    3  501    0  0.90328185734E+01  0.34627126774E+02 -0.21782113255E+03  0.22079122606E+03  0.47000000000E+01 0. -1.
        -13    1    4    4    0    0  0.26597219828E+01 -0.56445804464E+01  0.12131286266E+02  0.13641976247E+02  0.00000000000E+00 0.  1.
         14    1    4    4    0    0  0.14352075592E+02 -0.64992444003E+02 -0.13708210035E+03  0.15238602983E+03  0.00000000000E+00 0. -1.
         -5    1    5    5    0  502  0.33766095462E+02 -0.11550825760E+02 -0.19667425631E+02  0.41017903523E+02  0.47000000000E+01 0.  1.
         13    1    6    6    0    0  0.13417151007E+02  0.14494704768E+02  0.58030220454E+02  0.61299452635E+02  0.00000000000E+00 0. -1.
        -14    1    6    6    0    0 -0.73227862617E+02  0.33066018667E+02  0.76115979136E+02  0.11067666300E+03  0.00000000000E+00 0.  1.
</event>
<event>
12    1  0.8526130E-002  0.2103790E+03  0.7818608E-02  0.1141331E+00
         21   -1    0    0  503  502  0.00000000000E+00  0.00000000000E+00  0.22853828891E+03  0.22853828891E+03  0.00000000000E+00 0. -1.
         21   -1    0    0  501  503 -0.00000000000E+00 -0.00000000000E+00 -0.24151149020E+03  0.24151149020E+03  0.00000000000E+00 0.  1.
          6    2    1    2  501    0 -0.11359860002E+03  0.38202455756E+02 -0.11142111302E+03  0.23777559685E+03  0.17250652299E+03 0.  0.
         24    2    3    3    0    0 -0.95936683705E+02 -0.37167309721E+02 -0.88962372601E+02  0.15703508745E+03  0.78488589997E+02 0.  0.
         -6    2    1    2    0  502  0.11359860002E+03 -0.38202455756E+02  0.98447911728E+02  0.23227418226E+03  0.17290238537E+03 0.  0.
        -24    2    5    5    0    0  0.40846183104E+02 -0.44514979816E+02  0.11960424397E+03  0.15610041695E+03  0.80076031959E+02 0.  0.
          5    1    3    3  501    0 -0.17661916318E+02  0.75369765477E+02 -0.22458740420E+02  0.80740509395E+02  0.47000000000E+01 0. -1.
        -11    1    4    4    0    0 -0.69069563011E+02  0.15032339584E+02 -0.47595896459E+02  0.85217047166E+02  0.00000000000E+00 0.  1.
         12    1    4    4    0    0 -0.26867120694E+02 -0.52199649306E+02 -0.41366476142E+02  0.71818040285E+02  0.00000000000E+00 0. -1.
         -5    1    5    5    0  502  0.72752416919E+02  0.63125240605E+01 -0.21156332241E+02  0.76173765309E+02  0.47000000000E+01 0.  1.
         13    1    6    6    0    0  0.42143530887E+02 -0.40206484287E+02  0.13126177952E+03  0.14360464246E+03  0.00000000000E+00 0. -1.
        -14    1    6    6    0    0 -0.12973477832E+01 -0.43084955290E+01 -0.11657535548E+02  0.12495774488E+02  0.00000000000E+00 0.  1.
</event>
<event>
12    1  0.8526130E-002  0.1850795E+03  0.7818608E-02  0.1163612E+00
         21   -1    0    0  503  502  0.00000000000E+00  0.00000000000E+00  0.55020400245E+03  0.55020400245E+03  0.00000000000E+00 0.  1.
         21   -1    0    0  501  503 -0.00000000000E+00 -0.00000000000E+00 -0.10784151808E+03  0.10784151808E+03  0.00000000000E+00 0.  1.
          6    2    1    2  501    0 -0.25985805849E+02 -0.56465903079E+02  0.42289304141E+01  0.18242441106E+03  0.17145588815E+03 0.  0.
         24    2    3    3    0    0 -0.62925975094E+02 -0.37888185970E+02  0.51206032299E+02  0.11966577995E+03  0.79389219483E+02 0.  0.
         -6    2    1    2    0  502  0.25985805849E+02  0.56465903079E+02  0.43813355395E+03  0.47562110948E+03  0.17432948221E+03 0.  0.
        -24    2    5    5    0    0  0.56323934466E+02  0.65275313300E+02  0.42502706889E+03  0.44109752758E+03  0.80534262465E+02 0.  0.
          5    1    3    3  501    0  0.36940169245E+02 -0.18577717109E+02 -0.46977101885E+02  0.62758631106E+02  0.47000000000E+01 0. -1.
        -11    1    4    4    0    0 -0.33246179220E+02  0.17144185006E+02 -0.21512927503E+01  0.37468114080E+02  0.00000000000E+00 0.  1.
         12    1    4    4    0    0 -0.29679795874E+02 -0.55032370976E+02  0.53357325050E+02  0.82197665872E+02  0.00000000000E+00 0. -1.
         -5    1    5    5    0  502 -0.30338128616E+02 -0.88094102207E+01  0.13106485068E+02  0.34523581900E+02  0.47000000000E+01 0.  1.
         11    1    6    6    0    0  0.41576014268E+02  0.21804378739E+01  0.26819681143E+03  0.27140900672E+03  0.00000000000E+00 0. -1.
        -12    1    6    6    0    0  0.14747920197E+02  0.63094875426E+02  0.15683025746E+03  0.16968852086E+03  0.00000000000E+00 0.  1.
</event>
<event>
12    1  0.8526130E-002  0.2034684E+03  0.7818608E-02  0.1146904E+00
         21   -1    0    0  501  502  0.00000000000E+00  0.00000000000E+00  0.25279920825E+02  0.25279920825E+02  0.00000000000E+00 0.  1.
         21   -1    0    0  502  503 -0.00000000000E+00 -0.00000000000E+00 -0.17748683749E+04  0.17748683749E+04  0.00000000000E+00 0. -1.
         -6    2    1    2    0  503  0.74356385176E+02 -0.81249903228E+02 -0.62300542401E+03  0.65538931075E+03  0.17108176847E+03 0.  0.
        -24    2    3    3    0    0 -0.66475801330E+01  0.13654012053E+01 -0.19737667314E+03  0.21428971372E+03  0.83165351362E+02 0.  0.
          6    2    1    2  501    0 -0.74356385176E+02  0.81249903228E+02 -0.11265830301E+04  0.11447589850E+04  0.17074364197E+03 0.  0.
         24    2    5    5    0    0  0.96813607082E+01  0.61051953003E+02 -0.37512539061E+03  0.38833253527E+03  0.79132986540E+02 0.  0.
          5    1    5    5  501    0 -0.84037745884E+02  0.20197950224E+02 -0.75145763946E+03  0.75642644972E+03  0.47000000000E+01 0. -1.
        -13    1    6    6    0    0 -0.58789139233E+01  0.63189420716E+02 -0.15282437090E+03  0.16547734848E+03  0.00000000000E+00 0.  1.
         14    1    6    6    0    0  0.15560274631E+02 -0.21374677128E+01 -0.22230101972E+03  0.22285518679E+03  0.00000000000E+00 0. -1.
         -5    1    3    3    0  503  0.81003965309E+02 -0.82615304433E+02 -0.42562875088E+03  0.44109959703E+03  0.47000000000E+01 0.  1.
         13    1    4    4    0    0 -0.17877415928E+02  0.31992717894E+02 -0.16230922974E+03  0.16639537872E+03  0.00000000000E+00 0. -1.
        -14    1    4    4    0    0  0.11229835795E+02 -0.30627316689E+02 -0.35067443392E+02  0.47894335005E+02  0.00000000000E+00 0.  1.
</event>
<event>
12    1  0.8526130E-002  0.1735038E+03  0.7818608E-02  0.1174803E+00
         21   -1    0    0  503  502  0.00000000000E+00  0.00000000000E+00  0.35617216491E+03  0.35617216491E+03  0.00000000000E+00 0.  1.
         21   -1    0    0  501  503 -0.00000000000E+00 -0.00000000000E+00 -0.12714025206E+03  0.12714025206E+03  0.00000000000E+00 0.  1.
          6    2    1    2  501    0  0.20185501350E+02  0.10876923920E+02 -0.27612020114E+02  0.17352270749E+03  0.16977026954E+03 0.  0.
         24    2    3    3    0    0  0.59340123888E+02 -0.77253971530E+01 -0.62669523535E+02  0.11757407603E+03  0.79468623437E+02 0.  0.
         -6    2    1    2    0  502 -0.20185501350E+02 -0.10876923920E+02  0.25664393297E+03  0.30978970949E+03  0.17198195788E+03 0.  0.
        -24    2    5    5    0    0 -0.63875181713E+02  0.34900427839E+02  0.18368529441E+03  0.21309737761E+03  0.79825599017E+02 0.  0.
          5    1    3    3  501    0 -0.39154622538E+02  0.18602321073E+02  0.35057503422E+02  0.55948631454E+02  0.47000000000E+01 0. -1.
        -13    1    4    4    0    0  0.53776988265E+01  0.31842505721E+02 -0.16389548300E+02  0.36214390907E+02  0.00000000000E+00 0.  1.
         14    1    4    4    0    0  0.53962425061E+02 -0.39567902874E+02 -0.46279975235E+02  0.81359685128E+02  0.00000000000E+00 0. -1.
         -5    1    5    5    0  502  0.43689680363E+02 -0.45777351760E+02  0.72958638556E+02  0.96692331880E+02  0.47000000000E+01 0.  1.
         11    1    6    6    0    0 -0.21030816666E+02  0.13379470541E+02  0.17911139267E+01  0.24990269520E+02  0.00000000000E+00 0. -1.
        -12    1    6    6    0    0 -0.42844365047E+02  0.21520957298E+02  0.18189418048E+03  0.18810710809E+03  0.00000000000E+00 0.  1.
</event>
<event>
12    1  0.8526130E-002  0.1812812E+03  0.7818608E-02  0.1167958E+00
         21   -1    0    0  501  502  0.00000000000E+00  0.00000000000E+00  0.14071686495E+03  0.14071686495E+03  0.00000000000E+00 0.  1.
         21   -1    0    0  502  503 -0.00000000000E+00 -0.00000000000E+00 -0.22804186704E+03  0.22804186704E+03  0.00000000000E+00 0.  1.
         -6    2    1    2    0  503 -0.10441036008E+02 -0.32448581946E+02 -0.26663111876E+02  0.17759715787E+03  0.17224373209E+03 0.  0.
        -24    2    3    3    0    0 -0.38405663381E+01  0.37346701267E+02  0.25248840455E+02  0.90236477044E+02  0.78074271048E+02 0.  0.
          6    2    1    2  501    0  0.10441036008E+02  0.32448581946E+02 -0.60661890209E+02  0.19116157413E+03  0.17804762508E+03 0.  0.
         24    2    5    5    0    0 -0.65344137244E+01 -0.53187731547E+02 -0.35256928845E+02  0.10011627692E+03  0.76867317649E+02 0.  0.
          5    1    5    5  501    0  0.16975449732E+02  0.85636313493E+02 -0.25404961364E+02  0.91045297211E+02  0.47000000000E+01 0. -1.
        -11    1    6    6    0    0  0.33505683518E+02 -0.37911606872E+02 -0.15424944119E+02  0.52894703560E+02  0.00000000000E+00 0.  1.
         12    1    6    6    0    0 -0.40040097242E+02 -0.15276124675E+02 -0.19831984726E+02  0.47221573358E+02  0.00000000000E+00 0. -1.
         -5    1    3    3    0  503 -0.66004696695E+01 -0.69795283213E+02 -0.51911952332E+02  0.87360680821E+02  0.47000000000E+01 0.  1.
         11    1    4    4    0    0  0.29940240950E+02  0.73082378132E+01 -0.10548497375E+02  0.32574517110E+02  0.00000000000E+00 0. -1.
        -12    1    4    4    0    0 -0.33780807288E+02  0.30038463454E+02  0.35797337830E+02  0.57661959934E+02  0.00000000000E+00 0.  1.
</event>
<event>
12    1  0.8526130E-002  0.1894896E+03  0.7818608E-02  0.1159649E+00
         21   -1    0    0  503  502  0.00000000000E+00  0.00000000000E+00  0.49386344284E+03  0.49386344284E+03  0.00000000000E+00 0. -1.
         21   -1    0    0  501  503 -0.00000000000E+00 -0.00000000000E+00 -0.72573994704E+02  0.72573994704E+02  0.00000000000E+00 0. -1.
          6    2    1    2  501    0 -0.62690081039E+02 -0.48120034636E+02  0.17427660843E+03  0.25511501668E+03  0.16871796436E+03 0.  0.
         24    2    3    3    0    0 -0.14792024875E+02 -0.56955554856E+02  0.39424341979E+02  0.11165939996E+03  0.86318037691E+02 0.  0.
         -6    2    1    2    0  502  0.62690081039E+02  0.48120034636E+02  0.24701283971E+03  0.31132242086E+03  0.17222288685E+03 0.  0.
        -24    2    5    5    0    0  0.85483532645E+02  0.83383330927E+02  0.21322444828E+03  0.25722263438E+03  0.80240912668E+02 0.  0.
          5    1    3    3  501    0 -0.47898056165E+02  0.88355202203E+01  0.13485226645E+03  0.14345561672E+03  0.47000000000E+01 0. -1.
        -13    1    4    4    0    0  0.18626211369E+02 -0.13473325809E+02 -0.20233995068E+02  0.30624839832E+02  0.00000000000E+00 0.  1.
         14    1    4    4    0    0 -0.33418236244E+02 -0.43482229047E+02  0.59658337047E+02  0.81034560131E+02  0.00000000000E+00 0. -1.
         -5    1    5    5    0  502 -0.22793451605E+02 -0.35263296291E+02  0.33788391429E+02  0.54099786476E+02  0.47000000000E+01 0.  1.
         11    1    6    6    0    0  0.25856292240E+02  0.28986580241E+02  0.12381186257E+02  0.40768412474E+02  0.00000000000E+00 0. -1.
        -12    1    6    6    0    0  0.59627240405E+02  0.54396750685E+02  0.20084326202E+03  0.21645422191E+03  0.00000000000E+00 0.  1.
</event>
<event>
12    1  0.8526130E-002  0.1741647E+03  0.7818608E-02  0.1173647E+00
         21   -1    0    0  503  502  0.00000000000E+00  0.00000000000E+00  0.47253221833E+03  0.47253221833E+03  0.00000000000E+00 0.  1.
         21   -1    0    0  501  503 -0.00000000000E+00 -0.00000000000E+00 -0.13080743104E+03  0.13080743104E+03  0.00000000000E+00 0.  1.
          6    2    1    2  501    0 -0.22816642339E+02 -0.51213417065E+01 -0.44660876538E+02  0.17951513945E+03  0.17229121884E+03 0.  0.
         24    2    3    3    0    0 -0.73666122483E+02 -0.14980823855E+01 -0.62622354698E+02  0.12526108581E+03  0.79623102536E+02 0.  0.
         -6    2    1    2    0  502  0.22816642339E+02  0.51213417065E+01  0.38638566382E+03  0.42382450992E+03  0.17258767827E+03 0.  0.
        -24    2    5    5    0    0  0.13473225043E+02 -0.48737448952E+02  0.12219689304E+03  0.15399888959E+03  0.78909508951E+02 0.  0.
          5    1    3    3  501    0  0.50849480144E+02 -0.36232593210E+01  0.17961478160E+02  0.54254053643E+02  0.47000000000E+01 0. -1.
        -13    1    4    4    0    0 -0.34242598759E+02 -0.40225612785E+02 -0.25278637348E+02  0.58563341775E+02  0.00000000000E+00 0.  1.
         14    1    4    4    0    0 -0.39423523724E+02  0.38727530399E+02 -0.37343717349E+02  0.66697744033E+02  0.00000000000E+00 0. -1.
         -5    1    5    5    0  502  0.93434172958E+01  0.53858790659E+02  0.26418877079E+03  0.26982562034E+03  0.47000000000E+01 0.  1.
         11    1    6    6    0    0  0.29881180941E+02 -0.31177214893E+02  0.17527707645E+02  0.46606053665E+02  0.00000000000E+00 0. -1.
        -12    1    6    6    0    0 -0.16407955898E+02 -0.17560234059E+02  0.10466918539E+03  0.10739283592E+03  0.00000000000E+00 0.  1.
</event>
<event>
12    1  0.8526130E-002  0.2202719E+03  0.7818608E-02  0.1133768E+00
         21   -1    0    0  501  502  0.00000000000E+00  0.00000000000E+00  0.14323013581E+03  0.14323013581E+03  0.00000000000E+00 0. -1.
         21   -1    0    0  502  503 -0.00000000000E+00 -0.00000000000E+00 -0.35744874179E+03  0.35744874179E+03  0.00000000000E+00 0.  1.
         -6    2    1    2    0  503  0.12848143063E+03 -0.47698107082E+02 -0.48874132413E+02  0.22562889391E+03  0.17244456939E+03 0.  0.
        -24    2    3    3    0    0  0.10283001139E+03 -0.84221076392E+02 -0.76624464950E+02  0.17286438356E+03  0.79646629080E+02 0.  0.
          6    2    1    2  501    0 -0.12848143063E+03  0.47698107082E+02 -0.16534447357E+03  0.27504998370E+03  0.17184618458E+03 0.  0.
         24    2    5    5    0    0 -0.44015783147E+02  0.71837782730E+02 -0.14339096808E+03  0.18437906251E+03  0.79602844000E+02 0.  0.
          5    1    5    5  501    0 -0.84465647480E+02 -0.24139675648E+02 -0.21953505490E+02  0.90670921181E+02  0.47000000000E+01 0. -1.
        -11    1    6    6    0    0 -0.59496673886E+02  0.27482448321E+02 -0.10469075905E+03  0.12351232408E+03  0.00000000000E+00 0.  1.
         12    1    6    6    0    0  0.15480890738E+02  0.44355334408E+02 -0.38700209029E+02  0.60866738433E+02  0.00000000000E+00 0. -1.
         -5    1    3    3    0  503  0.25651419241E+02  0.36522969310E+02  0.27750332537E+02  0.52764510347E+02  0.47000000000E+01 0.  1.
         11    1    4    4    0    0  0.74182803878E+02 -0.71708555477E+02 -0.15666588448E+02  0.10435826423E+03  0.00000000000E+00 0. -1.
        -12    1    4    4    0    0  0.28647207509E+02 -0.12512520915E+02 -0.60957876501E+02  0.68506119327E+02  0.00000000000E+00 0.  1.
</event>
<event>
12    1  0.8526130E-002  0.1803832E+03  0.7818608E-02  0.1168570E+00
         21   -1    0    0  501  502  0.00000000000E+00  0.00000000000E+00  0.32599076843E+03  0.32599076843E+03  0.00000000000E+00 0. -1.
         21   -1    0    0  502  503 -0.00000000000E+00 -0.00000000000E+00 -0.27345160982E+03  0.27345160982E+03  0.00000000000E+00 0. -1.
         -6    2    1    2    0  503 -0.49529199781E+02 -0.93691846027E+01 -0.21443243435E+03  0.27724380622E+03  0.16835063390E+03 0.  0.
        -24    2    3    3    0    0  0.27295030235E+02  0.21270590713E+02 -0.74357927931E+02  0.11450562540E+03  0.79906070465E+02 0.  0.
          6    2    1    2  501    0  0.49529199781E+02  0.93691846027E+01  0.26697159296E+03  0.32219857203E+03  0.17319689697E+03 0.  0.
         24    2    5    5    0    0 -0.43271677507E+01  0.37081937577E+02  0.24044946530E+03  0.25591118064E+03  0.79251451333E+02 0.  0.
          5    1    5    5  501    0  0.53856367532E+02 -0.27712752974E+02  0.26522127655E+02  0.66287391384E+02  0.47000000000E+01 0. -1.
        -11    1    6    6    0    0 -0.27582513526E+02 -0.14373720143E+02  0.81973006690E+02  0.87675382571E+02  0.00000000000E+00 0.  1.
         12    1    6    6    0    0  0.23255345775E+02  0.51455657719E+02  0.15847645861E+03  0.16823579807E+03  0.00000000000E+00 0. -1.
         -5    1    3    3    0  503 -0.76824230015E+02 -0.30639775316E+02 -0.14007450642E+03  0.16273818082E+03  0.47000000000E+01 0.  1.
         13    1    4    4    0    0 -0.86333146194E+01 -0.22378594915E+02 -0.44544814208E+02  0.50592253404E+02  0.00000000000E+00 0. -1.
        -14    1    4    4    0    0  0.35928344854E+02  0.43649185628E+02 -0.29813113723E+02  0.63913371995E+02  0.00000000000E+00 0.  1.
</event>
<event>
12    1  0.8526130E-002  0.1831964E+03  0.7818608E-02  0.1166520E+00
         21   -1    0    0  501  502  0.00000000000E+00  0.00000000000E+00  0.31156814423E+03  0.31156814423E+03  0.00000000000E+00 0.  1.
         21   -1    0    0  502  503 -0.00000000000E+00 -0.00000000000E+00 -0.15834715949E+03  0.15834715949E+03  0.00000000000E+00 0.  1.
         -6    2    1    2    0  503 -0.14880199520E+02 -0.14642604909E+02 -0.60702706572E+02  0.19299153077E+03  0.18200298390E+03 0.  0.
        -24    2    3    3    0    0  0.28554456092E+02 -0.46965916057E+02  0.15370252230E+02  0.99500617776E+02  0.81504441906E+02 0.  0.
          6    2    1    2  501    0  0.14880199520E+02  0.14642604909E+02  0.21392369132E+03  0.27692377295E+03  0.17460699900E+03 0.  0.
         24    2    5    5    0    0 -0.13190820025E+02  0.38742524305E+02  0.22023430311E+03  0.23909915036E+03  0.83607861558E+02 0.  0.
          5    1    5    5  501    0  0.28071019545E+02 -0.24099919396E+02 -0.63106117849E+01  0.37824622593E+02  0.47000000000E+01 0. -1.
        -11    1    6    6    0    0 -0.41979316931E+02  0.45738663709E+02  0.12873471846E+03  0.14292276286E+03  0.00000000000E+00 0.  1.
         12    1    6    6    0    0  0.28788496906E+02 -0.69961394038E+01  0.91499584649E+02  0.96176387495E+02  0.00000000000E+00 0. -1.
         -5    1    3    3    0  503 -0.43434655613E+02  0.32323311148E+02 -0.76072958802E+02  0.93490912995E+02  0.47000000000E+01 0.  1.
         13    1    4    4    0    0 -0.25258898523E+02 -0.19105267826E+01 -0.61952227540E+01  0.26077631260E+02  0.00000000000E+00 0. -1.
        -14    1    4    4    0    0  0.53813354615E+02 -0.45055389275E+02  0.21565474984E+02  0.73422986516E+02  0.00000000000E+00 0.  1.
</event>
<event>
12    1  0.8526130E-002  0.2175517E+03  0.7818608E-02  0.1135771E+00
         21   -1    0    0  503  502  0.00000000000E+00  0.00000000000E+00  0.87938519313E+03  0.87938519313E+03  0.00000000000E+00 0. -1.
         21   -1    0    0  501  503 -0.00000000000E+00 -0.00000000000E+00 -0.61514733273E+02  0.61514733273E+02  0.00000000000E+00 0. -1.
          6    2    1    2  501    0  0.80221809267E+02 -0.10429927819E+03  0.57579935381E+03  0.61543536151E+03  0.17292168816E+03 0.  0.
         24    2    3    3    0    0 -0.24391496762E+02 -0.57455316575E+02  0.21863670189E+03  0.24030131818E+03  0.77760257132E+02 0.  0.
         -6    2    1    2    0  502 -0.80221809267E+02  0.10429927819E+03  0.24207110605E+03  0.32546456489E+03  0.17324804330E+03 0.  0.
        -24    2    5    5    0    0 -0.66596629496E+02  0.32697253672E+01  0.71212193776E+02  0.12644829930E+03  0.80449945247E+02 0.  0.
          5    1    3    3  501    0  0.10461330603E+03 -0.46843961612E+02  0.35716265192E+03  0.37513404333E+03  0.47000000000E+01 0. -1.
        -13    1    4    4    0    0  0.15166421138E+02 -0.17639841253E+02  0.11996251643E+02  0.26174307690E+02  0.00000000000E+00 0.  1.
         14    1    4    4    0    0 -0.39557917900E+02 -0.39815475322E+02  0.20664045025E+03  0.21412701049E+03  0.00000000000E+00 0. -1.
         -5    1    5    5    0  502 -0.13625179772E+02  0.10102955282E+03  0.17085891227E+03  0.19901626559E+03  0.47000000000E+01 0.  1.
         11    1    6    6    0    0 -0.80862510010E+02  0.13233953906E+01  0.36227662435E+02  0.88616817964E+02  0.00000000000E+00 0. -1.
        -12    1    6    6    0    0  0.14265880515E+02  0.19463299766E+01  0.34984531341E+02  0.37831481340E+02  0.00000000000E+00 0.  1.
</event>
<event>
12    1  0.8526130E-002  0.1933346E+03  0.7818608E-02  0.1157050E+00
         21   -1    0    0  503  502  0.00000000000E+00  0.00000000000E+00  0.79636383613E+02  0.79636383613E+02  0.00000000000E+00 0. -1.
         21   -1    0    0  501  503 -0.00000000000E+00 -0.00000000000E+00 -0.58467084641E+03  0.58467084641E+03  0.00000000000E+00 0. -1.
          6    2    1    2  501    0  0.66139466828E+02 -0.39539981238E+01 -0.41391419332E+03  0.45684048454E+03  0.18162655562E+03 0.  0.
         24    2    3    3    0    0  0.48889565770E+02 -0.62055459922E+02 -0.16020208888E+03  0.19594728629E+03  0.80557805188E+02 0.  0.
         -6    2    1    2    0  502 -0.66139466828E+02  0.39539981238E+01 -0.91120269474E+02  0.20746674549E+03  0.17421103237E+03 0.  0.
        -24    2    5    5    0    0 -0.56236594644E+02 -0.42501253108E+02 -0.11344763084E+03  0.15477179022E+03  0.78198663759E+02 0.  0.
          5    1    3    3  501    0  0.17249901058E+02  0.58101461799E+02 -0.25371210444E+03  0.26089319825E+03  0.47000000000E+01 0. -1.
        -13    1    4    4    0    0  0.29594726481E+02  0.40198011987E-01 -0.83365735120E+01  0.30746510522E+02  0.00000000000E+00 0.  1.
         14    1    4    4    0    0  0.19294839290E+02 -0.62095657934E+02 -0.15186551537E+03  0.16520077577E+03  0.00000000000E+00 0. -1.
         -5    1    5    5    0  502 -0.99028721839E+01  0.46455251232E+02  0.22327361363E+02  0.52694955261E+02  0.47000000000E+01 0.  1.
         13    1    6    6    0    0 -0.48826365290E+02 -0.34818238092E+02 -0.23845810014E+02  0.64536395208E+02  0.00000000000E+00 0. -1.
        -14    1    6    6    0    0 -0.74102293541E+01 -0.76830150164E+01 -0.89601820824E+02  0.90235395016E+02  0.00000000000E+00 0.  1.
</event>
<event>
12    1  0.8526130E-002  0.2536286E+03  0.7818608E-02  0.1111339E+00
         21   -1    0    0  503  502  0.00000000000E+00  0.00000000000E+00  0.26700011091E+03  0.26700011091E+03  0.00000000000E+00 0. -1.
         21   -1    0    0  501  503 -0.00000000000E+00 -0.00000000000E+00 -0.24096850325E+03  0.24096850325E+03  0.00000000000E+00 0. -1.
          6    2    1    2  501    0  0.11118414248E+03  0.14733108104E+03 -0.95163484637E+01  0.25380704859E+03  0.17395141865E+03 0.  0.
         24    2    3    3    0    0 -0.20770747864E+01  0.76636200462E+02 -0.33380157815E+02  0.11809617625E+03  0.83396945075E+02 0.  0.
         -6    2    1    2    0  502 -0.11118414248E+03 -0.14733108104E+03  0.35547956115E+02  0.25416156557E+03  0.17107332711E+03 0.  0.
        -24    2    5    5    0    0 -0.76995700470E+02 -0.15373565748E+03  0.72864935329E+02  0.20293154406E+03  0.79428725923E+02 0.  0.
          5    1    3    3  501    0  0.11326121726E+03  0.70694880578E+02  0.23863809351E+02  0.13571087235E+03  0.47000000000E+01 0. -1.
        -13    1    4    4    0    0  0.95799339345E+01 -0.15507480813E+02 -0.14562989859E+02  0.23331047319E+02  0.00000000000E+00 0.  1.
         14    1    4    4    0    0 -0.11657008721E+02  0.92143681275E+02 -0.18817167956E+02  0.94765128930E+02  0.00000000000E+00 0. -1.
         -5    1    5    5    0  502 -0.34188442009E+02  0.64045764367E+01 -0.37316979214E+02  0.51230021511E+02  0.47000000000E+01 0.  1.
         13    1    6    6    0    0 -0.78124212841E+02 -0.70653126191E+02  0.30480233042E+02  0.10965537597E+03  0.00000000000E+00 0. -1.
        -14    1    6    6    0    0  0.11285123715E+01 -0.83082531286E+02  0.42384702287E+02  0.93276168087E+02  0.00000000000E+00 0.  1.
</event>
<event>
12    1  0.8526130E-002  0.2194919E+03  0.7818608E-02  0.1134689E+00
         21   -1    0    0  503  502  0.00000000000E+00  0.00000000000E+00  0.78576500570E+03  0.78576500570E+03  0.00000000000E+00 0. -1.
         21   -1    0    0  501  503 -0.00000000000E+00 -0.00000000000E+00 -0.60740033987E+02  0.60740033987E+02  0.00000000000E+00 0.  1.
          6    2    1    2  501    0 -0.95303248999E+02  0.93181797362E+02  0.37403744069E+03  0.43253771063E+03  0.17152057441E+03 0.  0.
         24    2    3    3    0    0 -0.11864803965E+02  0.10529899871E+03  0.20542409305E+03  0.24396053363E+03  0.78032245033E+02 0.  0.
         -6    2    1    2    0  502  0.95303248999E+02 -0.93181797362E+02  0.35098753103E+03  0.41396732906E+03  0.17438791807E+03 0.  0.
        -24    2    5    5    0    0  0.40310860740E+02 -0.97887885458E+02  0.32106953931E+03  0.35101110412E+03  0.94425327772E+02 0.  0.
          5    1    3    3  501    0 -0.83438445033E+02 -0.12117201351E+02  0.16861334764E+03  0.18857717699E+03  0.47000000000E+01 0. -1.
        -13    1    4    4    0    0  0.18625950119E+02  0.20723932955E+02  0.11374312942E+02  0.30096219195E+02  0.00000000000E+00 0.  1.
         14    1    4    4    0    0 -0.30490754084E+02  0.84575065758E+02  0.19404978010E+03  0.21386431444E+03  0.00000000000E+00 0. -1.
         -5    1    5    5    0  502  0.54992388259E+02  0.47060880964E+01  0.29917991712E+02  0.62956224948E+02  0.47000000000E+01 0.  1.
         11    1    6    6    0    0  0.37759609526E+02 -0.10962481724E+03  0.21506569845E+03  0.24432896536E+03  0.00000000000E+00 0. -1.
        -12    1    6    6    0    0  0.25512512134E+01  0.11736931784E+02  0.10600384087E+03  0.10668213875E+03  0.00000000000E+00 0.  1.
</event>
<event>
12    1  0.8526130E-002  0.1763388E+03  0.7818608E-02  0.1171406E+00
         21   -1    0    0  503  502  0.00000000000E+00  0.00000000000E+00  0.10200662007E+03  0.10200662007E+03  0.00000000000E+00 0.  1.
         21   -1    0    0  501  503 -0.00000000000E+00 -0.00000000000E+00 -0.30506212458E+03  0.30506212458E+03  0.00000000000E+00 0. -1.
          6    2    1    2  501    0 -0.47781873645E+01 -0.40751043336E+02 -0.10795117291E+03  0.20671857779E+03  0.17145155603E+03 0.  0.
         24    2    3    3    0    0  0.18770874327E+02 -0.76841873095E+02 -0.28648218403E+02  0.11634073265E+03  0.80358113909E+02 0.  0.
         -6    2    1    2    0  502  0.47781873645E+01  0.40751043336E+02 -0.95104331600E+02  0.20035016685E+03  0.17149891213E+03 0.  0.
        -24    2    5    5    0    0  0.45014180963E+02 -0.26656618768E+02 -0.66089329767E+02  0.11652482210E+03  0.80457335555E+02 0.  0.
          5    1    3    3  501    0 -0.23549061692E+02  0.36090829759E+02 -0.79302954510E+02  0.90377845146E+02  0.47000000000E+01 0. -1.
        -13    1    4    4    0    0 -0.25998742858E+02 -0.95918769797E+01 -0.21805900524E+02  0.35262388346E+02  0.00000000000E+00 0.  1.
         14    1    4    4    0    0  0.44769617185E+02 -0.67249996115E+02 -0.68423178783E+01  0.81078344299E+02  0.00000000000E+00 0. -1.
         -5    1    5    5    0  502 -0.40235993599E+02  0.67407662104E+02 -0.29015001832E+02  0.83825344751E+02  0.47000000000E+01 0.  1.
         11    1    6    6    0    0  0.12338051605E+02 -0.52304886518E+02 -0.44131181062E+02  0.69538405309E+02  0.00000000000E+00 0. -1.
        -12    1    6    6    0    0  0.32676129358E+02  0.25648267749E+02 -0.21958148705E+02  0.46986416791E+02  0.00000000000E+00 0.  1.
</event>
<event>
12    1  0.8526130E-002  0.1999279E+03  0.7818608E-02  0.1149807E+00
         21   -1    0    0  501  502  0.00000000000E+00  0.00000000000E+00  0.50730522756E+03  0.50730522756E+03  0.00000000000E+00 0. -1.
         21   -1    0    0  502  503 -0.00000000000E+00 -0.00000000000E+00 -0.14884286047E+03  0.14884286047E+03  0.00000000000E+00 0. -1.
         -6    2    1    2    0  503  0.82380977962E+02  0.59278968760E+02 -0.45868046241E+02  0.20508906879E+03  0.17221215638E+03 0.  0.
        -24    2    3    3    0    0  0.58813268518E+02  0.74734625468E+01 -0.91508517353E+02  0.13198373379E+03  0.74370989239E+02 0.  0.
          6    2    1    2  501    0 -0.82380977962E+02 -0.59278968760E+02  0.40433041333E+03  0.45105901924E+03  0.17225136872E+03 0.  0.
         24    2    5    5    0    0 -0.74848057170E+02 -0.51445407077E+02  0.13252715558E+03  0.17899797736E+03  0.78917471839E+02 0.  0.
          5    1    5    5  501    0 -0.75329207921E+01 -0.78335616835E+01  0.27180325775E+03  0.27206104188E+03  0.47000000000E+01 0. -1.
        -11    1    6    6    0    0 -0.76913193088E+02 -0.22184846616E+02  0.12546526683E+03  0.14882654290E+03  0.00000000000E+00 0.  1.
         12    1    6    6    0    0  0.20651359180E+01 -0.29260560460E+02  0.70618887523E+01  0.30171434463E+02  0.00000000000E+00 0. -1.
         -5    1    3    3    0  503  0.23567709444E+02  0.51805506213E+02  0.45640471112E+02  0.73105335002E+02  0.47000000000E+01 0.  1.
         13    1    4    4    0    0  0.57854533995E+02 -0.24130975025E+02 -0.52471747483E+02  0.81747999017E+02  0.00000000000E+00 0. -1.
        -14    1    4    4    0    0  0.95873452283E+00  0.31604437571E+02 -0.39036769870E+02  0.50235734771E+02  0.00000000000E+00 0.  1.
</event>
<event>
12    1  0.8526130E-002  0.2095571E+03  0.7818608E-02  0.1142206E+00
         21   -1    0    0  501  502  0.00000000000E+00  0.00000000000E+00  0.14110584644E+03  0.14110584644E+03  0.00000000000E+00 0. -1.
         21   -1    0    0  502  503 -0.00000000000E+00 -0.00000000000E+00 -0.71060700993E+03  0.71060700993E+03  0.00000000000E+00 0. -1.
         -6    2    1    2    0  503  0.11908556127E+03 -0.17871988816E+01 -0.60530011399E+03  0.64054851115E+03  0.17242274257E+03 0.  0.
        -24    2    3    3    0    0  0.35432748058E+02  0.19898022999E+02 -0.48086631043E+03  0.48897706439E+03  0.78833685903E+02 0.  0.
          6    2    1    2  501    0 -0.11908556127E+03  0.17871988816E+01  0.35798950499E+02  0.21116434521E+03  0.17065828679E+03 0.  0.
         24    2    5    5    0    0 -0.15151688293E+03  0.97349357025E+01  0.40589171345E+02  0.17710566994E+03  0.81650491171E+02 0.  0.
          5    1    5    5  501    0  0.32431321664E+02 -0.79477368208E+01 -0.47902208461E+01  0.34058675271E+02  0.47000000000E+01 0. -1.
        -13    1    6    6    0    0 -0.45597580361E+02 -0.22590136710E+02  0.42571329328E+02  0.66345849095E+02  0.00000000000E+00 0.  1.
         14    1    6    6    0    0 -0.10591930257E+03  0.32325072413E+02 -0.19821579833E+01  0.11075982085E+03  0.00000000000E+00 0. -1.
         -5    1    3    3    0  503  0.83652813212E+02 -0.21685221880E+02 -0.12443380356E+03  0.15157144677E+03  0.47000000000E+01 0.  1.
         11    1    4    4    0    0 -0.16317159460E+02 -0.18102907983E+02 -0.12141408191E+03  0.12383595704E+03  0.00000000000E+00 0. -1.
        -12    1    4    4    0    0  0.51749907518E+02  0.38000930982E+02 -0.35945222852E+03  0.36514110735E+03  0.00000000000E+00 0.  1.
</event>
<event>
12    1  0.8526130E-002  0.2164217E+03  0.7818608E-02  0.1136948E+00
         21   -1    0    0  501  502  0.00000000000E+00  0.00000000000E+00  0.93084685563E+02  0.93084685563E+02  0.00000000000E+00 0. -1.
         21   -1    0    0  502  503 -0.00000000000E+00 -0.00000000000E+00 -0.69578009974E+03  0.69578009974E+03  0.00000000000E+00 0.  1.
         -6    2    1    2    0  503  0.78614298864E+02 -0.10150093466E+03 -0.51223236427E+03  0.55607583410E+03  0.17422884534E+03 0.  0.
        -24    2    3    3    0    0  0.18303888059E+02 -0.98475969162E+02 -0.20124533998E+03  0.23924541362E+03  0.81890977855E+02 0.  0.
          6    2    1    2  501    0 -0.78614298864E+02  0.10150093466E+03 -0.90463049905E+02  0.23278895120E+03  0.17182690324E+03 0.  0.
         24    2    5    5    0    0  0.16573128096E+01  0.15061544418E+02 -0.80069180759E+02  0.11427556654E+03  0.80113885155E+02 0.  0.
          5    1    5    5  501    0 -0.80271611674E+02  0.86439390246E+02 -0.10393869147E+02  0.11851338466E+03  0.47000000000E+01 0. -1.
        -11    1    6    6    0    0 -0.20576187105E+02 -0.26208279295E+02 -0.43644481242E+02  0.54909872721E+02  0.00000000000E+00 0.  1.
         12    1    6    6    0    0  0.22233499915E+02  0.41269823712E+02 -0.36424699517E+02  0.59365693819E+02  0.00000000000E+00 0. -1.
         -5    1    3    3    0  503  0.60310410806E+02 -0.30249655019E+01 -0.31098702429E+03  0.31683042049E+03  0.47000000000E+01 0.  1.
         11    1    4    4    0    0  0.44050948459E+02 -0.42907297998E+02 -0.62976598193E+02  0.88020305621E+02  0.00000000000E+00 0. -1.
        -12    1    4    4    0    0 -0.25747060400E+02 -0.55568671164E+02 -0.13826874178E+03  0.15122510800E+03  0.00000000000E+00 0.  1.
</event>
<event>
12    1  0.8526130E-002  0.1917793E+03  0.7818608E-02  0.1156965E+00
         21   -1    0    0  501  502  0.00000000000E+00  0.00000000000E+00  0.77738509700E+02  0.77738509700E+02  0.00000000000E+00 0.  1.
         21   -1    0    0  502  503 -0.00000000000E+00 -0.00000000000E+00 -0.57722715075E+03  0.57722715075E+03  0.00000000000E+00 0.  1.
         -6    2    1    2    0  503 -0.81682064790E+02 -0.18753777206E+02 -0.10970222274E+03  0.22055483805E+03  0.17200638083E+03 0.  0.
        -24    2    3    3    0    0 -0.82048730414E+02  0.47890709335E+02 -0.77280212608E+02  0.14629247362E+03  0.80023386414E+02 0.  0.
          6    2    1    2  501    0  0.81682064790E+02  0.18753777206E+02 -0.38978641832E+03  0.43441082241E+03  0.17249825174E+03 0.  0.
         24    2    5    5    0    0  0.28134852728E+02 -0.52572858173E+02 -0.24317344005E+03  0.26273598957E+03  0.79632926064E+02 0.  0.
          5    1    5    5  501    0  0.53547212062E+02  0.71326635380E+02 -0.14661297826E+03  0.17167483284E+03  0.47000000000E+01 0. -1.
        -11    1    6    6    0    0  0.41073757693E+02 -0.46776229159E+02 -0.93098734367E+02  0.11199305124E+03  0.00000000000E+00 0.  1.
         12    1    6    6    0    0 -0.12938904965E+02 -0.57966290149E+01 -0.15007470569E+03  0.15074293833E+03  0.00000000000E+00 0. -1.
         -5    1    3    3    0  503  0.36666562329E+00 -0.66644486541E+02 -0.32422010130E+02  0.74262364431E+02  0.47000000000E+01 0.  1.
         13    1    4    4    0    0  0.11711837878E+02  0.24815659266E+02 -0.13596310251E+02  0.30624234582E+02  0.00000000000E+00 0. -1.
        -14    1    4    4    0    0 -0.93760568292E+02  0.23075050068E+02 -0.63683902357E+02  0.11566823904E+03  0.00000000000E+00 0.  1.
</event>
<event>
12    1  0.8526130E-002  0.1797687E+03  0.7818608E-02  0.1168486E+00
         21   -1    0    0  501  502  0.00000000000E+00  0.00000000000E+00  0.15850866928E+03  0.15850866928E+03  0.00000000000E+00 0.  1.
         21   -1    0    0  502  503 -0.00000000000E+00 -0.00000000000E+00 -0.41134321250E+03  0.41134321250E+03  0.00000000000E+00 0.  1.
         -6    2    1    2    0  503  0.26680397921E+02  0.45244995027E+02 -0.32947469745E+03  0.37442797100E+03  0.16995227566E+03 0.  0.
        -24    2    3    3    0    0 -0.27116053092E+02  0.52594149207E+02 -0.29298444049E+03  0.30884064706E+03  0.77725401529E+02 0.  0.
          6    2    1    2  501    0 -0.26680397921E+02 -0.45244995027E+02  0.76640154226E+02  0.19542391078E+03  0.17192393218E+03 0.  0.
         24    2    5    5    0    0 -0.80357093808E+02 -0.17385144019E+02  0.30814759530E+02  0.11940144188E+03  0.80917545437E+02 0.  0.
          5    1    5    5  501    0  0.53676695887E+02 -0.27859851008E+02  0.45825394696E+02  0.76022468906E+02  0.47000000000E+01 0. -1.
        -13    1    6    6    0    0 -0.67069813285E+02  0.21216976330E+02  0.34613131952E+02  0.78400183943E+02  0.00000000000E+00 0.  1.
         14    1    6    6    0    0 -0.13287280523E+02 -0.38602120349E+02 -0.37983724221E+01  0.41001257934E+02  0.00000000000E+00 0. -1.
         -5    1    3    3    0  503  0.53796451013E+02 -0.73491541799E+01 -0.36490256958E+02  0.65587323940E+02  0.47000000000E+01 0.  1.
         13    1    4    4    0    0  0.72001410405E+01  0.29214338660E+02 -0.29615625452E+02  0.42218537223E+02  0.00000000000E+00 0. -1.
        -14    1    4    4    0    0 -0.34316194132E+02  0.23379810547E+02 -0.26336881504E+03  0.26662210984E+03  0.00000000000E+00 0.  1.
</event>
<event>
12    1  0.8526130E-002  0.1731113E+03  0.7818608E-02  0.1174885E+00
         21   -1    0    0  501  502  0.00000000000E+00  0.00000000000E+00  0.30689017406E+02  0.30689017406E+02  0.00000000000E+00 0.  1.
         21   -1    0    0  502  503 -0.00000000000E+00 -0.00000000000E+00 -0.97174233532E+03  0.97174233532E+03  0.00000000000E+00 0.  1.
         -6    2    1    2    0  503 -0.28577156847E+00 -0.14339529033E+02 -0.48194320195E+03  0.51176892310E+03  0.17155896067E+03 0.  0.
        -24    2    3    3    0    0 -0.22127492330E+02  0.35817915251E+02 -0.15887607588E+03  0.18406892625E+03  0.82868650023E+02 0.  0.
          6    2    1    2  501    0  0.28577156847E+00  0.14339529033E+02 -0.45911011596E+03  0.49066242962E+03  0.17251613695E+03 0.  0.
         24    2    5    5    0    0  0.34576991253E+02 -0.79691677195E+01 -0.42994168485E+03  0.44020003697E+03  0.87562230577E+02 0.  0.
          5    1    5    5  501    0 -0.34291219685E+02  0.22308696752E+02 -0.29168431112E+02  0.50462392649E+02  0.47000000000E+01 0. -1.
        -13    1    6    6    0    0  0.13271340508E+02 -0.36278025004E+01 -0.49033386505E+01  0.14605894693E+02  0.00000000000E+00 0.  1.
         14    1    6    6    0    0  0.21305650746E+02 -0.43413652191E+01 -0.42503834620E+03  0.42559414228E+03  0.00000000000E+00 0. -1.
         -5    1    3    3    0  503  0.21841720762E+02 -0.50157444283E+02 -0.32306712607E+03  0.32769999685E+03  0.47000000000E+01 0.  1.
         11    1    4    4    0    0  0.24926109660E+02  0.33391244827E+02 -0.10218695750E+03  0.11035606216E+03  0.00000000000E+00 0. -1.
        -12    1    4    4    0    0 -0.47053601991E+02  0.24266704231E+01 -0.56689118380E+02  0.73712864090E+02  0.00000000000E+00 0.  1.
</event>
<event>
12    1  0.8526130E-002  0.1931197E+03  0.7818608E-02  0.1155736E+00
         21   -1    0    0  501  502  0.00000000000E+00  0.00000000000E+00  0.36420583738E+04  0.36420583738E+04  0.00000000000E+00 0.  1.
         21   -1    0    0  502  503 -0.00000000000E+00 -0.00000000000E+00 -0.15414338224E+02  0.15414338224E+02  0.00000000000E+00 0.  1.
         -6    2    1    2    0  503  0.44469971078E+02  0.71517831125E+02  0.75152493024E+03  0.77587504689E+03  0.17349348439E+03 0.  0.
        -24    2    3    3    0    0  0.69585983477E+02 -0.89200006090E+01  0.56006069020E+03  0.56663426677E+03  0.49846163987E+02 0.  0.
          6    2    1    2  501    0 -0.44469971078E+02 -0.71517831125E+02  0.28751191053E+04  0.28815976651E+04  0.17378968700E+03 0.  0.
         24    2    5    5    0    0 -0.51090308865E+02  0.33268535897E+01  0.83760631287E+03  0.84269452247E+03  0.76996332492E+02 0.  0.
          5    1    5    5  501    0  0.66203377873E+01 -0.74844684715E+02  0.20375127924E+04  0.20389031426E+04  0.47000000000E+01 0. -1.
        -13    1    6    6    0    0 -0.12242366165E+02 -0.19368289895E+02  0.62307562178E+03  0.62349678157E+03  0.00000000000E+00 0.  1.
         14    1    6    6    0    0 -0.38847942700E+02  0.22695143485E+02  0.21453069110E+03  0.21919774089E+03  0.00000000000E+00 0. -1.
         -5    1    3    3    0  503 -0.25116012400E+02  0.80437831734E+02  0.19146424004E+03  0.20924078012E+03  0.47000000000E+01 0.  1.
         11    1    4    4    0    0  0.63377419452E+02  0.34855704028E+01  0.32355829127E+03  0.32972536200E+03  0.00000000000E+00 0. -1.
        -12    1    4    4    0    0  0.62085640256E+01 -0.12405571012E+02  0.23650239893E+03  0.23690890477E+03  0.00000000000E+00 0.  1.
</event>
<event>
12    1  0.8526130E-002  0.2257519E+03  0.7818608E-02  0.1129698E+00
         21   -1    0    0  501  502  0.00000000000E+00  0.00000000000E+00  0.92133799134E+02  0.92133799134E+02  0.00000000000E+00 0. -1.
         21   -1    0    0  502  503 -0.00000000000E+00 -0.00000000000E+00 -0.64225130647E+03  0.64225130647E+03  0.00000000000E+00 0.  1.
         -6    2    1    2    0  503 -0.13492625839E+03  0.52281824730E+02 -0.41225619917E+03  0.47002029340E+03  0.17327844082E+03 0.  0.
        -24    2    3    3    0    0 -0.85548059405E+02  0.97969766095E+02 -0.23117360582E+03  0.27678833400E+03  0.79082237389E+02 0.  0.
          6    2    1    2  501    0  0.13492625839E+03 -0.52281824730E+02 -0.13786130817E+03  0.26436481221E+03  0.17304487639E+03 0.  0.
         24    2    5    5    0    0  0.15897416241E+03 -0.11918444388E+02 -0.10382763909E+03  0.20615927303E+03  0.79414316002E+02 0.  0.
          5    1    5    5  501    0 -0.24047904022E+02 -0.40363380342E+02 -0.34033669075E+02  0.58205539179E+02  0.47000000000E+01 0. -1.
        -13    1    6    6    0    0 -0.25305287099E+01 -0.13893867659E+02 -0.19142242941E+02  0.23787992746E+02  0.00000000000E+00 0.  1.
         14    1    6    6    0    0  0.16150469112E+03  0.19754232712E+01 -0.84685396150E+02  0.18237128028E+03  0.00000000000E+00 0. -1.
         -5    1    3    3    0  503 -0.49378198983E+02 -0.45687941364E+02 -0.18108259335E+03  0.19323195940E+03  0.47000000000E+01 0.  1.
         11    1    4    4    0    0 -0.59694665559E+01  0.65290735293E+02 -0.87662116618E+02  0.10946762689E+03  0.00000000000E+00 0. -1.
        -12    1    4    4    0    0 -0.79578592849E+02  0.32679030801E+02 -0.14351148921E+03  0.16732070711E+03  0.00000000000E+00 0.  1.
</event>
<event>
12    1  0.8526130E-002  0.2018676E+03  0.7818608E-02  0.1149603E+00
         21   -1    0    0  501  502  0.00000000000E+00  0.00000000000E+00  0.45170890980E+03  0.45170890980E+03  0.00000000000E+00 0. -1.
         21   -1    0    0  502  503 -0.00000000000E+00 -0.00000000000E+00 -0.87235915481E+02  0.87235915481E+02  0.00000000000E+00 0. -1.
         -6    2    1    2    0  503  0.93046196787E+02  0.36000649212E+02  0.18262080204E+03  0.27221478363E+03  0.17549042597E+03 0.  0.
        -24    2    3    3    0    0  0.23162461972E+02 -0.29709837991E+02  0.14419423257E+03  0.16877254969E+03  0.79202416034E+02 0.  0.
          6    2    1    2  501    0 -0.93046196787E+02 -0.36000649212E+02  0.18185219228E+03  0.26673004165E+03  0.16769333261E+03 0.  0.
         24    2    5    5    0    0 -0.58642948304E+02 -0.70925298046E+02  0.61077774480E+02  0.13630050283E+03  0.79862001278E+02 0.  0.
          5    1    5    5  501    0 -0.34403248483E+02  0.34924648834E+02  0.12077441780E+03  0.13042953882E+03  0.47000000000E+01 0. -1.
        -13    1    6    6    0    0 -0.14179933514E+02  0.54899393343E+01  0.43605979751E+02  0.46181072080E+02  0.00000000000E+00 0.  1.
         14    1    6    6    0    0 -0.44463014790E+02 -0.76415237380E+02  0.17471794729E+02  0.90119430752E+02  0.00000000000E+00 0. -1.
         -5    1    3    3    0  503  0.69883734815E+02  0.65710487203E+02  0.38426569470E+02  0.10344223393E+03  0.47000000000E+01 0.  1.
         11    1    4    4    0    0 -0.39038270710E+01  0.15720279164E+02  0.11179094046E+01  0.16236279260E+02  0.00000000000E+00 0. -1.
        -12    1    4    4    0    0  0.27066289043E+02 -0.45430117155E+02  0.14307632317E+03  0.15253627043E+03  0.00000000000E+00 0.  1.
</event>
<event>
12    1  0.8526130E-002  0.1743379E+03  0.7818608E-02  0.1173538E+00
         21   -1    0    0  503  502  0.00000000000E+00  0.00000000000E+00  0.30200305641E+03  0.30200305641E+03  0.00000000000E+00 0. -1.
         21   -1    0    0  501  503 -0.00000000000E+00 -0.00000000000E+00 -0.13695452974E+03  0.13695452974E+03  0.00000000000E+00 0. -1.
          6    2    1    2  501    0 -0.14735766816E+02 -0.24394647769E+02 -0.30890773586E+02  0.17705351249E+03  0.17199262986E+03 0.  0.
         24    2    3    3    0    0 -0.71449753241E+02 -0.41076358399E+02 -0.20940437168E+02  0.11692153330E+03  0.80248417951E+02 0.  0.
         -6    2    1    2    0  502  0.14735766816E+02  0.24394647769E+02  0.19593930025E+03  0.26190407366E+03  0.17143305619E+03 0.  0.
        -24    2    5    5    0    0  0.23098475501E+02  0.14562323689E+02  0.21625788072E+03  0.23737767553E+03  0.93995154257E+02 0.  0.
          5    1    3    3  501    0  0.56713986425E+02  0.16681710630E+02 -0.99503364180E+01  0.60131979184E+02  0.47000000000E+01 0. -1.
        -11    1    4    4    0    0 -0.52761549061E+02 -0.28212253007E+01  0.21279780107E+02  0.56961121942E+02  0.00000000000E+00 0.  1.
         12    1    4    4    0    0 -0.18688204180E+02 -0.38255133098E+02 -0.42220217275E+02  0.59960411361E+02  0.00000000000E+00 0. -1.
         -5    1    5    5    0  502 -0.83627086851E+01  0.98323240799E+01 -0.20318580466E+02  0.24526398136E+02  0.47000000000E+01 0.  1.
         13    1    6    6    0    0 -0.28060924220E+02  0.33158571049E+02  0.94469591166E+02  0.10397793014E+03  0.00000000000E+00 0. -1.
        -14    1    6    6    0    0  0.51159399722E+02 -0.18596247360E+02  0.12178828955E+03  0.13339974538E+03  0.00000000000E+00 0.  1.
</event>
<event>
12    1  0.8526130E-002  0.2109439E+03  0.7818608E-02  0.1141200E+00
         21   -1    0    0  501  502  0.00000000000E+00  0.00000000000E+00  0.26253902826E+03  0.26253902826E+03  0.00000000000E+00 0.  1.
         21   -1    0    0  502  503 -0.00000000000E+00 -0.00000000000E+00 -0.17418802042E+03  0.17418802042E+03  0.00000000000E+00 0.  1.
         -6    2    1    2    0  503  0.33940768230E+02 -0.11663657716E+03  0.30521591807E+01  0.21096593835E+03  0.17245650057E+03 0.  0.
        -24    2    3    3    0    0 -0.18120381285E+02 -0.91643384243E+02 -0.50381714851E+02  0.13214784477E+03  0.78726600291E+02 0.  0.
          6    2    1    2  501    0 -0.33940768230E+02  0.11663657716E+03  0.85298848662E+02  0.22576111033E+03  0.17010619764E+03 0.  0.
         24    2    5    5    0    0 -0.76308391984E+02  0.98592728068E+02  0.25307726741E+02  0.14998762722E+03  0.79450050801E+02 0.  0.
          5    1    5    5  501    0  0.42367623754E+02  0.18043849090E+02  0.59991121921E+02  0.75773483105E+02  0.47000000000E+01 0. -1.
        -11    1    6    6    0    0 -0.57520751278E+02  0.11120802508E+03  0.21816421295E+02  0.12708980253E+03  0.00000000000E+00 0.  1.
         12    1    6    6    0    0 -0.18787640706E+02 -0.12615297009E+02  0.34913054460E+01  0.22897824693E+02  0.00000000000E+00 0. -1.
         -5    1    3    3    0  503  0.52061149516E+02 -0.24993192915E+02  0.53433874032E+02  0.78818093576E+02  0.47000000000E+01 0.  1.
         13    1    4    4    0    0 -0.96978160418E+01  0.25197395049E+01  0.14399896790E+02  0.17542911694E+02  0.00000000000E+00 0. -1.
        -14    1    4    4    0    0 -0.84225652436E+01 -0.94163123748E+02 -0.64781611641E+02  0.11460493308E+03  0.00000000000E+00 0.  1.
</event>
<event>
12    1  0.8526130E-002  0.1959403E+03  0.7818608E-02  0.1153695E+00
         21   -1    0    0  501  502  0.00000000000E+00  0.00000000000E+00  0.63648654426E+03  0.63648654426E+03  0.00000000000E+00 0. -1.
         21   -1    0    0  502  503 -0.00000000000E+00 -0.00000000000E+00 -0.16448665094E+03  0.16448665094E+03  0.00000000000E+00 0. -1.
         -6    2    1    2    0  503 -0.88263793294E+02  0.35439757875E+02 -0.83257414314E+02  0.21289523901E+03  0.17130706964E+03 0.  0.
        -24    2    3    3    0    0 -0.12585476660E+03  0.44202241992E+02 -0.54520412482E+02  0.16454477183E+03  0.79430762847E+02 0.  0.
          6    2    1    2  501    0  0.88263793294E+02 -0.35439757875E+02  0.55525730763E+03  0.58807795620E+03  0.16875583320E+03 0.  0.
         24    2    5    5    0    0 -0.18326284722E+02 -0.48875694277E+01  0.26611086174E+03  0.27836415585E+03  0.79447287435E+02 0.  0.
          5    1    5    5  501    0  0.10659007802E+03 -0.30552188448E+02  0.28914644589E+03  0.30971380034E+03  0.47000000000E+01 0. -1.
        -13    1    6    6    0    0 -0.94078275701E+01 -0.34608865836E+02  0.21922806915E+03  0.22214235777E+03  0.00000000000E+00 0.  1.
         14    1    6    6    0    0 -0.89184571524E+01  0.29721296408E+02  0.46882792589E+02  0.56221798078E+02  0.00000000000E+00 0. -1.
         -5    1    3    3    0  503  0.37590973307E+02 -0.87624841163E+01 -0.28737001832E+02  0.48350467178E+02  0.47000000000E+01 0.  1.
         11    1    4    4    0    0 -0.53564972079E+02 -0.21338646593E+02 -0.21287593814E+02  0.61463043552E+02  0.00000000000E+00 0. -1.
        -12    1    4    4    0    0 -0.72289794521E+02  0.65540888584E+02 -0.33232818668E+02  0.10308172828E+03  0.00000000000E+00 0.  1.
</event>
<event>
12    1  0.8526130E-002  0.1739979E+03  0.7818608E-02  0.1173816E+00
         21   -1    0    0  503  502  0.00000000000E+00  0.00000000000E+00  0.15686203292E+04  0.15686203292E+04  0.00000000000E+00 0.  1.
         21   -1    0    0  501  503 -0.00000000000E+00 -0.00000000000E+00 -0.29839625525E+02  0.29839625525E+02  0.00000000000E+00 0.  1.
          6    2    1    2  501    0 -0.79869769345E+01 -0.28725488541E+02  0.29324884577E+03  0.34083326410E+03  0.17112417387E+03 0.  0.
         24    2    3    3    0    0  0.15880732969E+02 -0.21266190134E+02  0.47013161440E+02  0.93286478736E+02  0.76076811473E+02 0.  0.
         -6    2    1    2    0  502  0.79869769345E+01  0.28725488541E+02  0.12455318579E+04  0.12576266906E+04  0.17142443937E+03 0.  0.
        -24    2    5    5    0    0  0.16575306063E+02  0.47044063267E+02  0.12241634630E+04  0.12278268940E+04  0.80590401674E+02 0.  0.
          5    1    3    3  501    0 -0.23867709903E+02 -0.74592984071E+01  0.24623568433E+03  0.24754678537E+03  0.47000000000E+01 0.  1.
        -13    1    4    4    0    0 -0.26087752836E+02  0.68289464937E+01  0.46443788829E+01  0.27363764606E+02  0.00000000000E+00 0.  1.
         14    1    4    4    0    0  0.41968485804E+02 -0.28095136628E+02  0.42368782557E+02  0.65922714129E+02  0.00000000000E+00 0. -1.
         -5    1    5    5    0  502 -0.85883291286E+01 -0.18318574726E+02  0.21368394894E+02  0.29799796603E+02  0.47000000000E+01 0.  1.
         11    1    6    6    0    0 -0.89620594157E+01 -0.18597001662E+02  0.15855945821E+03  0.15989768219E+03  0.00000000000E+00 0. -1.
        -12    1    6    6    0    0  0.25537365479E+02  0.65641064930E+02  0.10656040048E+04  0.10679292118E+04  0.00000000000E+00 0.  1.
</event>
<event>
12    1  0.8526130E-002  0.1899706E+03  0.7818608E-02  0.1159912E+00
         21   -1    0    0  501  502  0.00000000000E+00  0.00000000000E+00  0.47285715368E+03  0.47285715368E+03  0.00000000000E+00 0.  1.
         21   -1    0    0  502  503 -0.00000000000E+00 -0.00000000000E+00 -0.82841693296E+02  0.82841693296E+02  0.00000000000E+00 0.  1.
         -6    2    1    2    0  503  0.64360581865E+02  0.39654666593E+02  0.10636173075E+03  0.21771917836E+03  0.17428151301E+03 0.  0.
        -24    2    3    3    0    0 -0.89505380132E+01 -0.32816735952E+01  0.10417783244E+03  0.13260214706E+03  0.81482679876E+02 0.  0.
          6    2    1    2  501    0 -0.64360581865E+02 -0.39654666593E+02  0.28365372963E+03  0.33797966861E+03  0.16749937606E+03 0.  0.
         24    2    5    5    0    0  0.24290596926E+02 -0.33690659694E+02  0.10105036248E+03  0.13485241644E+03  0.79050014631E+02 0.  0.
          5    1    5    5  501    0 -0.88651178791E+02 -0.59640068993E+01  0.18260336715E+03  0.20312725217E+03  0.47000000000E+01 0. -1.
        -11    1    6    6    0    0 -0.15742424314E+02  0.99382360550E+01  0.59948416381E+02  0.62772645999E+02  0.00000000000E+00 0.  1.
         12    1    6    6    0    0  0.40033021240E+02 -0.43628895749E+02  0.41101946098E+02  0.72079770442E+02  0.00000000000E+00 0. -1.
         -5    1    3    3    0  503  0.73311119878E+02  0.42936340188E+02  0.21838983119E+01  0.85117031306E+02  0.47000000000E+01 0.  1.
         13    1    4    4    0    0 -0.26070950378E+02 -0.31596975904E+02  0.28201502937E+02  0.49733169090E+02  0.00000000000E+00 0. -1.
        -14    1    4    4    0    0  0.17120412365E+02  0.28315302308E+02  0.75976329503E+02  0.82868977966E+02  0.00000000000E+00 0.  1.
</event>
<event>
12    1  0.8526130E-002  0.2125189E+03  0.7818608E-02  0.1139664E+00
         21   -1    0    0  501  502  0.00000000000E+00  0.00000000000E+00  0.47332632051E+03  0.47332632051E+03  0.00000000000E+00 0.  1.
         21   -1    0    0  502  503 -0.00000000000E+00 -0.00000000000E+00 -0.20789630687E+03  0.20789630687E+03  0.00000000000E+00 0.  1.
         -6    2    1    2    0  503 -0.52317842705E+02 -0.11312992002E+03 -0.11807386702E+03  0.24277135637E+03  0.17164194688E+03 0.  0.
        -24    2    3    3    0    0  0.18197029033E+02 -0.40477226650E+02 -0.12308824445E+02  0.96282123927E+02  0.84552956694E+02 0.  0.
          6    2    1    2  501    0  0.52317842705E+02  0.11312992002E+03  0.38350388065E+03  0.43845127102E+03  0.17213005290E+03 0.  0.
         24    2    5    5    0    0  0.86617587896E+02  0.73539868454E+02  0.17838208855E+03  0.22669460808E+03  0.81606109033E+02 0.  0.
          5    1    5    5  501    0 -0.34299745190E+02  0.39590051565E+02  0.20512179211E+03  0.21175666294E+03  0.47000000000E+01 0. -1.
        -11    1    6    6    0    0  0.82741477361E+02  0.84030951027E+02  0.12380189962E+03  0.17098030049E+03  0.00000000000E+00 0.  1.
         12    1    6    6    0    0  0.38761105345E+01 -0.10491082573E+02  0.54580188929E+02  0.55714307588E+02  0.00000000000E+00 0. -1.
         -5    1    3    3    0  503 -0.70514871739E+02 -0.72652693369E+02 -0.10576504257E+03  0.14648923244E+03  0.47000000000E+01 0.  1.
         11    1    4    4    0    0 -0.27350826556E+02 -0.13822358011E+02 -0.27700871701E+02  0.41309364402E+02  0.00000000000E+00 0. -1.
        -12    1    4    4    0    0  0.45547855590E+02 -0.26654868639E+02  0.15392047256E+02  0.54972759524E+02  0.00000000000E+00 0.  1.
</event>
<event>
12    1  0.8526130E-002  0.1840225E+03  0.7818608E-02  0.1164418E+00
         21   -1    0    0  501  502  0.00000000000E+00  0.00000000000E+00  0.71333280581E+02  0.71333280581E+02  0.00000000000E+00 0.  1.
         21   -1    0    0  502  503 -0.00000000000E+00 -0.00000000000E+00 -0.47863999948E+03  0.47863999948E+03  0.00000000000E+00 0.  1.
         -6    2    1    2    0  503 -0.19377219184E+02 -0.60949918215E+02 -0.23996364856E+03  0.30124055027E+03  0.17050790991E+03 0.  0.
        -24    2    3    3    0    0  0.17825347662E+02 -0.26724807114E+02 -0.23200642429E+03  0.24985186836E+03  0.86988601995E+02 0.  0.
          6    2    1    2  501    0  0.19377219184E+02  0.60949918215E+02 -0.16734307034E+03  0.24873272980E+03  0.17255114757E+03 0.  0.
         24    2    5    5    0    0 -0.17075170824E+02  0.86146084086E+01 -0.13566405529E+02  0.82188099050E+02  0.78772224355E+02 0.  0.
          5    1    5    5  501    0  0.36452390008E+02  0.52335309806E+02 -0.15377666481E+03  0.16654463075E+03  0.47000000000E+01 0. -1.
        -13    1    6    6    0    0 -0.47512372527E+01  0.24202254095E+02  0.27272734951E+02  0.36771258211E+02  0.00000000000E+00 0.  1.
         14    1    6    6    0    0 -0.12323933571E+02 -0.15587645687E+02 -0.40839140479E+02  0.45416840839E+02  0.00000000000E+00 0. -1.
         -5    1    3    3    0  503 -0.37202566846E+02 -0.34225111101E+02 -0.79572242682E+01  0.51388681904E+02  0.47000000000E+01 0.  1.
         11    1    4    4    0    0  0.39797731836E+02  0.14450503815E+02 -0.75813810998E+02  0.86835536838E+02  0.00000000000E+00 0. -1.
        -12    1    4    4    0    0 -0.21972384174E+02 -0.41175310929E+02 -0.15619261330E+03  0.16301633153E+03  0.00000000000E+00 0.  1.
</event>
<event>
12    1  0.8526130E-002  0.2062173E+03  0.7818608E-02  0.1144880E+00
         21   -1    0    0  503  502  0.00000000000E+00  0.00000000000E+00  0.35758497298E+03  0.35758497298E+03  0.00000000000E+00 0.  1.
         21   -1    0    0  501  503 -0.00000000000E+00 -0.00000000000E+00 -0.12238365505E+03  0.12238365505E+03  0.00000000000E+00 0.  1.
          6    2    1    2  501    0 -0.10857153437E+03 -0.24007918056E+02  0.73212273876E+02  0.21882779482E+03  0.17367040201E+03 0.  0.
         24    2    3    3    0    0 -0.59500865321E+02 -0.70937812115E+02  0.59365692171E+01  0.12312797269E+03  0.80948926145E+02 0.  0.
         -6    2    1    2    0  502  0.10857153437E+03  0.24007918056E+02  0.16198904405E+03  0.26114083321E+03  0.17201722639E+03 0.  0.
        -24    2    5    5    0    0  0.10749113114E+02 -0.29442776070E+02  0.32978905476E+02  0.90577329914E+02  0.78321286969E+02 0.  0.
          5    1    3    3  501    0 -0.49070669047E+02  0.46929894059E+02  0.67275704658E+02  0.95699822123E+02  0.47000000000E+01 0. -1.
        -13    1    4    4    0    0 -0.61336304625E+02 -0.25112417154E+02 -0.21509069883E+02  0.69680814057E+02  0.00000000000E+00 0.  1.
         14    1    4    4    0    0  0.18354393044E+01 -0.45825394961E+02  0.27445639100E+02  0.53447158637E+02  0.00000000000E+00 0. -1.
         -5    1    5    5    0  502  0.97822421253E+02  0.53450694126E+02  0.12901013858E+03  0.17056350330E+03  0.47000000000E+01 0.  1.
         11    1    6    6    0    0 -0.28140178992E+02  0.62523618766E+00 -0.48336862233E+01  0.28559151186E+02  0.00000000000E+00 0. -1.
        -12    1    6    6    0    0  0.38889292106E+02 -0.30068012258E+02  0.37812591699E+02  0.62018178727E+02  0.00000000000E+00 0.  1.
</event>
<event>
12    1  0.8526130E-002  0.2168985E+03  0.7818608E-02  0.1136347E+00
         21   -1    0    0  503  502  0.00000000000E+00  0.00000000000E+00  0.47795681505E+03  0.47795681505E+03  0.00000000000E+00 0. -1.
         21   -1    0    0  501  503 -0.00000000000E+00 -0.00000000000E+00 -0.13345075595E+03  0.13345075595E+03  0.00000000000E+00 0.  1.
          6    2    1    2  501    0  0.12985738469E+03  0.21667872674E+02  0.14756990208E+02  0.21671859646E+03  0.17151310220E+03 0.  0.
         24    2    3    3    0    0  0.75093899461E+01  0.40749279004E+02  0.22840754274E+02  0.92539012279E+02  0.79529076828E+02 0.  0.
         -6    2    1    2    0  502 -0.12985738469E+03 -0.21667872674E+02  0.32974906890E+03  0.39468897454E+03  0.17237314501E+03 0.  0.
        -24    2    5    5    0    0 -0.12797240689E+03  0.38927787293E+02  0.24366674950E+03  0.28929617184E+03  0.80165333413E+02 0.  0.
          5    1    3    3  501    0  0.12234799475E+03 -0.19081406330E+02 -0.80837640658E+01  0.12417958418E+03  0.47000000000E+01 0. -1.
        -13    1    4    4    0    0  0.39950908685E+02  0.38966996872E+02  0.65426947026E+01  0.56189935077E+02  0.00000000000E+00 0.  1.
         14    1    4    4    0    0 -0.32441518738E+02  0.17822821313E+01  0.16298059571E+02  0.36349077202E+02  0.00000000000E+00 0. -1.
         -5    1    5    5    0  502 -0.18849778035E+01 -0.60595659967E+02  0.86082319395E+02  0.10539280270E+03  0.47000000000E+01 0.  1.
         11    1    6    6    0    0 -0.54869978962E+02 -0.64134388343E+01  0.16011258666E+03  0.16937498988E+03  0.00000000000E+00 0. -1.
        -12    1    6    6    0    0 -0.73102427928E+02  0.45341226127E+02  0.83554162842E+02  0.11992118196E+03  0.00000000000E+00 0.  1.
</event>
<event>
12    1  0.8526130E-002  0.2108571E+03  0.7818608E-02  0.1142066E+00
         21   -1    0    0  503  502  0.00000000000E+00  0.00000000000E+00  0.85978663029E+03  0.85978663029E+03  0.00000000000E+00 0. -1.
         21   -1    0    0  501  503 -0.00000000000E+00 -0.00000000000E+00 -0.84337611898E+02  0.84337611898E+02  0.00000000000E+00 0. -1.
          6    2    1    2  501    0  0.10313562883E+03 -0.38098466507E+02  0.91021420420E+02  0.22966411124E+03  0.17992291108E+03 0.  0.
         24    2    3    3    0    0  0.28675804205E+02  0.28446888024E+02 -0.65467819774E+01  0.89970898043E+02  0.80127242279E+02 0.  0.
         -6    2    1    2    0  502 -0.10313562883E+03  0.38098466507E+02  0.68442759797E+03  0.71446013095E+03  0.17298465472E+03 0.  0.
        -24    2    5    5    0    0 -0.54294407267E+02 -0.41604301858E+02  0.44808275981E+03  0.46025751741E+03  0.79875040491E+02 0.  0.
          5    1    3    3  501    0  0.74459824629E+02 -0.66545354531E+02  0.97568202397E+02  0.13969321319E+03  0.47000000000E+01 0. -1.
        -11    1    4    4    0    0 -0.89532480215E+00 -0.26261139485E+02  0.49225875802E+01  0.26733516829E+02  0.00000000000E+00 0.  1.
         12    1    4    4    0    0  0.29571129007E+02  0.54708027509E+02 -0.11469369558E+02  0.63237381214E+02  0.00000000000E+00 0. -1.
         -5    1    5    5    0  502 -0.48841221567E+02  0.79702768364E+02  0.23634483816E+03  0.25420261354E+03  0.47000000000E+01 0.  1.
         11    1    6    6    0    0 -0.29982147609E+02  0.17695686405E+02  0.90283271293E+02  0.96763296595E+02  0.00000000000E+00 0. -1.
        -12    1    6    6    0    0 -0.24312259658E+02 -0.59299988263E+02  0.35779948852E+03  0.36349422081E+03  0.00000000000E+00 0.  1.
</event>
<event>
12    1  0.8526130E-002  0.2154905E+03  0.7818608E-02  0.1137407E+00
         21   -1    0    0  503  502  0.00000000000E+00  0.00000000000E+00  0.82103939823E+02  0.82103939823E+02  0.00000000000E+00 0.  1.
         21   -1    0    0  501  503 -0.00000000000E+00 -0.00000000000E+00 -0.59622083932E+03  0.59622083932E+03  0.00000000000E+00 0.  1.
          6    2    1    2  501    0  0.12244991461E+03 -0.43092671171E+02 -0.33557503643E+03  0.39847952616E+03  0.17124359200E+03 0.  0.
         24    2    3    3    0    0  0.15660473257E+03 -0.35158751244E+02 -0.28573146126E+03  0.33735693900E+03  0.80037842829E+02 0.  0.
         -6    2    1    2    0  502 -0.12244991461E+03  0.43092671171E+02 -0.17854186307E+03  0.27984525298E+03  0.17200351407E+03 0.  0.
        -24    2    5    5    0    0 -0.19498704336E+02  0.14769732450E+02 -0.14203345923E+03  0.16690237315E+03  0.84169793595E+02 0.  0.
          5    1    3    3  501    0 -0.34154817966E+02 -0.79339199265E+01 -0.49843575164E+02  0.61122587158E+02  0.47000000000E+01 0. -1.
        -13    1    4    4    0    0  0.13651177210E+03 -0.56735221631E+02 -0.25511388199E+03  0.29485155939E+03  0.00000000000E+00 0.  1.
         14    1    4    4    0    0  0.20092960473E+02  0.21576470387E+02 -0.30617579279E+02  0.42505379610E+02  0.00000000000E+00 0. -1.
         -5    1    5    5    0  502 -0.10295121027E+03  0.28322938721E+02 -0.36508403836E+02  0.11294287983E+03  0.47000000000E+01 0.  1.
         11    1    6    6    0    0 -0.23610013765E+02 -0.38106546585E+01 -0.32078906507E+00  0.23917707761E+02  0.00000000000E+00 0. -1.
        -12    1    6    6    0    0  0.41113094290E+01  0.18580387108E+02 -0.14171267017E+03  0.14298466539E+03  0.00000000000E+00 0.  1.
</event>
<event>
12    1  0.8526130E-002  0.1756245E+03  0.7818608E-02  0.1172281E+00
         21   -1    0    0  501  502  0.00000000000E+00  0.00000000000E+00  0.27582497947E+03  0.27582497947E+03  0.00000000000E+00 0.  1.
         21   -1    0    0  502  503 -0.00000000000E+00 -0.00000000000E+00 -0.15600144479E+03  0.15600144479E+03  0.00000000000E+00 0.  1.
         -6    2    1    2    0  503  0.28210435194E+02 -0.45615936162E+01 -0.55647270637E+02  0.18356453425E+03  0.17257659956E+03 0.  0.
        -24    2    3    3    0    0 -0.31740682307E+02  0.33308552363E+02 -0.63651337671E+02  0.11204922445E+03  0.79916239525E+02 0.  0.
          6    2    1    2  501    0 -0.28210435194E+02  0.45615936162E+01  0.17547080532E+03  0.24826189001E+03  0.17328394536E+03 0.  0.
         24    2    5    5    0    0  0.35656808005E+02 -0.13895188647E+01  0.38736078213E+02  0.97156244546E+02  0.81642595372E+02 0.  0.
          5    1    5    5  501    0 -0.63867243200E+02  0.59511124809E+01  0.13673472710E+03  0.15110564546E+03  0.47000000000E+01 0. -1.
        -11    1    6    6    0    0 -0.61019564240E+01  0.24465354380E+02  0.40839492314E+02  0.47996370379E+02  0.00000000000E+00 0.  1.
         12    1    6    6    0    0  0.41758764429E+02 -0.25854873245E+02 -0.21034141013E+01  0.49159874166E+02  0.00000000000E+00 0. -1.
         -5    1    3    3    0  503  0.59951117501E+02 -0.37870145979E+02  0.80040670333E+01  0.71515309796E+02  0.47000000000E+01 0.  1.
         11    1    4    4    0    0 -0.37872458194E+02  0.48270389254E+02 -0.18489132097E+02  0.64079650233E+02  0.00000000000E+00 0. -1.
        -12    1    4    4    0    0  0.61317758874E+01 -0.14961836891E+02 -0.45162205574E+02  0.47969574221E+02  0.00000000000E+00 0.  1.
</event>
<event>
12    1  0.8526130E-002  0.2037554E+03  0.7818608E-02  0.1147050E+00
         21   -1    0    0  503  502  0.00000000000E+00  0.00000000000E+00  0.15098756213E+03  0.15098756213E+03  0.00000000000E+00 0. -1.
         21   -1    0    0  501  503 -0.00000000000E+00 -0.00000000000E+00 -0.65902793773E+03  0.65902793773E+03  0.00000000000E+00 0. -1.
          6    2    1    2  501    0 -0.73456464269E+02  0.75037306059E+02 -0.56380094381E+03  0.59876802340E+03  0.17211970300E+03 0.  0.
         24    2    3    3    0    0 -0.73722844286E+02  0.55128242964E+02 -0.19615890981E+03  0.23055721840E+03  0.78766313344E+02 0.  0.
         -6    2    1    2    0  502  0.73456464269E+02 -0.75037306059E+02  0.55760568206E+02  0.21124747646E+03  0.17461330391E+03 0.  0.
        -24    2    5    5    0    0 -0.26720895803E+02 -0.57025196583E+02  0.17074408593E+02  0.10225826368E+03  0.78735873292E+02 0.  0.
          5    1    3    3  501    0  0.26638001742E+00  0.19909063095E+02 -0.36764203400E+03  0.36821080500E+03  0.47000000000E+01 0. -1.
        -13    1    4    4    0    0 -0.29307437989E+02  0.25365964901E+02 -0.14813445086E+02  0.41494532799E+02  0.00000000000E+00 0.  1.
         14    1    4    4    0    0 -0.44415406297E+02  0.29762278063E+02 -0.18134546472E+03  0.18906268560E+03  0.00000000000E+00 0. -1.
         -5    1    5    5    0  502  0.10017736007E+03 -0.18012109475E+02  0.38686159613E+02  0.10898921279E+03  0.47000000000E+01 0.  1.
         13    1    6    6    0    0 -0.21755685230E+02  0.19857006481E+01  0.34227095242E+02  0.40604764444E+02  0.00000000000E+00 0. -1.
        -14    1    6    6    0    0 -0.49652105733E+01 -0.59010897232E+02 -0.17152686649E+02  0.61653499231E+02  0.00000000000E+00 0.  1.
</event>
<event>
12    1  0.8526130E-002  0.1975358E+03  0.7818608E-02  0.1152209E+00
         21   -1    0    0  503  502  0.00000000000E+00  0.00000000000E+00  0.93559852432E+03  0.93559852432E+03  0.00000000000E+00 0.  1.
         21   -1    0    0  501  503 -0.00000000000E+00 -0.00000000000E+00 -0.10332322740E+03  0.10332322740E+03  0.00000000000E+00 0.  1.
          6    2    1    2  501    0  0.56574242918E+02 -0.79981733258E+02  0.13066322427E+02  0.19623335128E+03  0.16952603563E+03 0.  0.
         24    2    3    3    0    0  0.30412517836E+02 -0.88207807792E+02  0.64040313110E+02  0.13815976101E+03  0.79255405256E+02 0.  0.
         -6    2    1    2    0  502 -0.56574242918E+02  0.79981733258E+02  0.81920897450E+03  0.84268840044E+03  0.17153038717E+03 0.  0.
        -24    2    5    5    0    0 -0.65848723584E+02 -0.65478435890E+01  0.34760793034E+03  0.36310210111E+03  0.81442826192E+02 0.  0.
          5    1    3    3  501    0  0.26161725082E+02  0.82260745332E+01 -0.50973990682E+02  0.58073590276E+02  0.47000000000E+01 0. -1.
        -11    1    4    4    0    0  0.33552643753E+02 -0.81068549584E+00  0.87151623147E+01  0.34675512512E+02  0.00000000000E+00 0.  1.
         12    1    4    4    0    0 -0.31401259174E+01 -0.87397122296E+02  0.55325150795E+02  0.10348424850E+03  0.00000000000E+00 0. -1.
         -5    1    5    5    0  502  0.92744806664E+01  0.86529576847E+02  0.47160104415E+03  0.47958629933E+03  0.47000000000E+01 0.  1.
         13    1    6    6    0    0 -0.49081551098E+02 -0.33338039284E+02  0.12622530134E+03  0.13947490892E+03  0.00000000000E+00 0. -1.
        -14    1    6    6    0    0 -0.16767172486E+02  0.26790195695E+02  0.22138262901E+03  0.22362719219E+03  0.00000000000E+00 0.  1.
</event>
<event>
12    1  0.8526130E-002  0.3907643E+03  0.7818608E-02  0.1047069E+00
         21   -1    0    0  503  502  0.00000000000E+00  0.00000000000E+00  0.87984065871E+03  0.87984065871E+03  0.00000000000E+00 0. -1.
         21   -1    0    0  501  503 -0.00000000000E+00 -0.00000000000E+00 -0.18053264907E+03  0.18053264907E+03  0.00000000000E+00 0. -1.
          6    2    1    2  501    0 -0.11940836809E+02  0.35085868678E+03  0.24397875302E+03  0.46067595472E+03  0.17161672897E+03 0.  0.
         24    2    3    3    0    0  0.14986874132E+02  0.33542655743E+03  0.18049700586E+03  0.38985735226E+03  0.81694578507E+02 0.  0.
         -6    2    1    2    0  502  0.11940836809E+02 -0.35085868678E+03  0.45532925663E+03  0.59969735306E+03  0.17049276128E+03 0.  0.
        -24    2    5    5    0    0 -0.14091879550E+01 -0.10103029377E+03  0.91652542835E+02  0.15825053715E+03  0.80211830992E+02 0.  0.
          5    1    3    3  501    0 -0.26927710940E+02  0.15432129345E+02  0.63481747161E+02  0.70818602465E+02  0.47000000000E+01 0. -1.
        -11    1    4    4    0    0  0.12357517688E+01  0.11159337934E+01 -0.63937433245E+01  0.66069920815E+01  0.00000000000E+00 0.  1.
         12    1    4    4    0    0  0.13751122363E+02  0.33431062364E+03  0.18689074918E+03  0.38325036018E+03  0.00000000000E+00 0. -1.
         -5    1    5    5    0  502  0.13350024764E+02 -0.24982839301E+03  0.36367671380E+03  0.44144681591E+03  0.47000000000E+01 0.  1.
         13    1    6    6    0    0 -0.26932664467E+02 -0.75437198584E+02  0.27635039363E+02  0.84733905528E+02  0.00000000000E+00 0. -1.
        -14    1    6    6    0    0  0.25523476512E+02 -0.25593095183E+02  0.64017503473E+02  0.73516631623E+02  0.00000000000E+00 0.  1.
</event>
<event>
12    1  0.8526130E-002  0.2124275E+03  0.7818608E-02  0.1139717E+00
         21   -1    0    0  501  502  0.00000000000E+00  0.00000000000E+00  0.28111826488E+03  0.28111826488E+03  0.00000000000E+00 0. -1.
         21   -1    0    0  502  503 -0.00000000000E+00 -0.00000000000E+00 -0.21346282291E+03  0.21346282291E+03  0.00000000000E+00 0. -1.
         -6    2    1    2    0  503  0.12075982482E+03 -0.29678713277E+02 -0.89572692946E+02  0.23054008260E+03  0.17222572703E+03 0.  0.
        -24    2    3    3    0    0  0.12789678725E+03 -0.66305967189E+02 -0.41772371139E+02  0.16971695602E+03  0.79403052188E+02 0.  0.
          6    2    1    2  501    0 -0.12075982482E+03  0.29678713277E+02  0.15722813491E+03  0.26404100519E+03  0.17185227581E+03 0.  0.
         24    2    5    5    0    0 -0.22854588655E+02 -0.10031128143E+02  0.12600076188E+02  0.84871610078E+02  0.80134090891E+02 0.  0.
          5    1    5    5  501    0 -0.97905236168E+02  0.39709841420E+02  0.14462805873E+03  0.17916939511E+03  0.47000000000E+01 0. -1.
        -11    1    6    6    0    0  0.24023220719E+02 -0.16912010577E+02  0.21828985375E+02  0.36601036024E+02  0.00000000000E+00 0.  1.
         12    1    6    6    0    0 -0.46877809374E+02  0.68808824343E+01 -0.92289091870E+01  0.48270574054E+02  0.00000000000E+00 0. -1.
         -5    1    3    3    0  503 -0.71369624268E+01  0.36627253912E+02 -0.47800321807E+02  0.60823126578E+02  0.47000000000E+01 0.  1.
         13    1    4    4    0    0  0.51539204818E+02  0.19731273551E+01 -0.43192886395E+02  0.67274128013E+02  0.00000000000E+00 0. -1.
        -14    1    4    4    0    0  0.76357582432E+02 -0.68279094544E+02  0.14205152564E+01  0.10244282801E+03  0.00000000000E+00 0.  1.
</event>
<event>
12    1  0.8526130E-002  0.2002895E+03  0.7818608E-02  0.1149535E+00
         21   -1    0    0  501  502  0.00000000000E+00  0.00000000000E+00  0.11514090468E+04  0.11514090468E+04  0.00000000000E+00 0. -1.
         21   -1    0    0  502  503 -0.00000000000E+00 -0.00000000000E+00 -0.17297566310E+03  0.17297566310E+03  0.00000000000E+00 0. -1.
         -6    2    1    2    0  503 -0.99459729205E+02 -0.97771818946E+01 -0.10256433025E+03  0.22502291899E+03  0.17357431035E+03 0.  0.
        -24    2    3    3    0    0 -0.13180640105E+03  0.21374571794E+02 -0.84650339990E+02  0.17644576403E+03  0.78343014401E+02 0.  0.
          6    2    1    2  501    0  0.99459729205E+02  0.97771818946E+01  0.10809977140E+04  0.10993617909E+04  0.17335644988E+03 0.  0.
         24    2    5    5    0    0  0.38975245014E+02  0.70606557647E+02  0.59147104770E+03  0.60235370973E+03  0.80545860547E+02 0.  0.
          5    1    5    5  501    0  0.60484484191E+02 -0.60829375753E+02  0.48952666629E+03  0.49700808122E+03  0.47000000000E+01 0. -1.
        -11    1    6    6    0    0  0.50938277194E+02  0.65081191214E+02  0.31795436763E+03  0.32851978544E+03  0.00000000000E+00 0.  1.
         12    1    6    6    0    0 -0.11963032179E+02  0.55253664329E+01  0.27351668007E+03  0.27383392429E+03  0.00000000000E+00 0. -1.
         -5    1    3    3    0  503  0.32346671846E+02 -0.31151753689E+02 -0.17913990263E+02  0.48577154965E+02  0.47000000000E+01 0.  1.
         13    1    4    4    0    0 -0.82490505541E+02 -0.24988012537E+02 -0.37742191739E+02  0.94093343613E+02  0.00000000000E+00 0. -1.
        -14    1    4    4    0    0 -0.49315895510E+02  0.46362584331E+02 -0.46908148251E+02  0.82352420415E+02  0.00000000000E+00 0.  1.
</event>
<event>
12    1  0.8526130E-002  0.2287499E+03  0.7818608E-02  0.1128339E+00
         21   -1    0    0  503  502  0.00000000000E+00  0.00000000000E+00  0.17738508443E+03  0.17738508443E+03  0.00000000000E+00 0.  1.
         21   -1    0    0  501  503 -0.00000000000E+00 -0.00000000000E+00 -0.30164421600E+03  0.30164421600E+03  0.00000000000E+00 0. -1.
          6    2    1    2  501    0  0.14091271510E+03 -0.39328488519E+02 -0.11149380736E+03  0.25447473580E+03  0.17585050126E+03 0.  0.
         24    2    3    3    0    0  0.11530568547E+03  0.36989237078E+02 -0.50851219905E+02  0.15358009462E+03  0.79607751724E+02 0.  0.
         -6    2    1    2    0  502 -0.14091271510E+03  0.39328488519E+02 -0.12765324214E+02  0.22455456463E+03  0.16987841448E+03 0.  0.
        -24    2    5    5    0    0 -0.69024833076E+02  0.58838510129E+02  0.47986119755E+02  0.12831872686E+03  0.77049530297E+02 0.  0.
          5    1    3    3  501    0  0.25607029631E+02 -0.76317725596E+02 -0.60642587460E+02  0.10089464119E+03  0.47000000000E+01 0. -1.
        -13    1    4    4    0    0 -0.97943057803E+00  0.28114044264E+02 -0.12798812381E+02  0.30905798283E+02  0.00000000000E+00 0.  1.
         14    1    4    4    0    0  0.11628511605E+03  0.88751928134E+01 -0.38052407524E+02  0.12267429633E+03  0.00000000000E+00 0. -1.
         -5    1    5    5    0  502 -0.71887882027E+02 -0.19510021611E+02 -0.60751443970E+02  0.96235837763E+02  0.47000000000E+01 0.  1.
         13    1    6    6    0    0 -0.81060515802E+02  0.32402665646E+02  0.23700017674E+02  0.90456789689E+02  0.00000000000E+00 0. -1.
        -14    1    6    6    0    0  0.12035682726E+02  0.26435844483E+02  0.24286102082E+02  0.37861937173E+02  0.00000000000E+00 0.  1.
</event>
<event>
12    1  0.8526130E-002  0.1796483E+03  0.7818608E-02  0.1168319E+00
         21   -1    0    0  501  502  0.00000000000E+00  0.00000000000E+00  0.12764928363E+03  0.12764928363E+03  0.00000000000E+00 0.  1.
         21   -1    0    0  502  503 -0.00000000000E+00 -0.00000000000E+00 -0.46150074584E+03  0.46150074584E+03  0.00000000000E+00 0.  1.
         -6    2    1    2    0  503 -0.46332748040E+02  0.17341680836E+02 -0.36567054761E+03  0.40741683108E+03  0.17270225078E+03 0.  0.
        -24    2    3    3    0    0 -0.88399938585E+02 -0.22973921541E+02 -0.26766273628E+03  0.29330014783E+03  0.77712843921E+02 0.  0.
          6    2    1    2  501    0  0.46332748040E+02 -0.17341680836E+02  0.31819085396E+02  0.18173319839E+03  0.17195070156E+03 0.  0.
         24    2    5    5    0    0 -0.10788287193E+02 -0.34215286512E+02 -0.33224968510E+02  0.93413607226E+02  0.79593533096E+02 0.  0.
          5    1    5    5  501    0  0.57121035233E+02  0.16873605676E+02  0.65044053906E+02  0.88319591162E+02  0.47000000000E+01 0. -1.
        -13    1    6    6    0    0  0.85103390536E+01 -0.33117734930E+02  0.18014861799E+02  0.38649003652E+02  0.00000000000E+00 0.  1.
         14    1    6    6    0    0 -0.19298626247E+02 -0.10975515821E+01 -0.51239830309E+02  0.54764603574E+02  0.00000000000E+00 0. -1.
         -5    1    3    3    0  503  0.42067190545E+02  0.40315602377E+02 -0.98007811331E+02  0.11411668326E+03  0.47000000000E+01 0.  1.
         13    1    4    4    0    0 -0.51186398016E+02 -0.39009654906E+02 -0.87395276296E+02  0.10853448685E+03  0.00000000000E+00 0. -1.
        -14    1    4    4    0    0 -0.37213540568E+02  0.16035733365E+02 -0.18026745998E+03  0.18476566097E+03  0.00000000000E+00 0.  1.
</event>
<event>
12    1  0.8526130E-002  0.1873826E+03  0.7818608E-02  0.1161439E+00
         21   -1    0    0  503  502  0.00000000000E+00  0.00000000000E+00  0.25288571037E+03  0.25288571037E+03  0.00000000000E+00 0.  1.
         21   -1    0    0  501  503 -0.00000000000E+00 -0.00000000000E+00 -0.26917991752E+03  0.26917991752E+03  0.00000000000E+00 0.  1.
          6    2    1    2  501    0 -0.43036734968E+02 -0.62263873245E+02 -0.19112898663E+03  0.26766125264E+03  0.17141559488E+03 0.  0.
         24    2    3    3    0    0 -0.49852871246E+02 -0.98197701077E+02 -0.97052344710E+02  0.16661569732E+03  0.78825983724E+02 0.  0.
         -6    2    1    2    0  502  0.43036734968E+02  0.62263873245E+02  0.17483477947E+03  0.25440437525E+03  0.16859844473E+03 0.  0.
        -24    2    5    5    0    0 -0.17292976906E+02  0.59554931521E+02  0.16465797180E+03  0.19298231150E+03  0.79272239525E+02 0.  0.
          5    1    3    3  501    0  0.68161362779E+01  0.35933827832E+02 -0.94076641919E+02  0.10104555533E+03  0.47000000000E+01 0. -1.
        -11    1    4    4    0    0  0.60469311091E+00 -0.13253682680E+02 -0.59433108832E+02  0.60895978388E+02  0.00000000000E+00 0.  1.
         12    1    4    4    0    0 -0.50457564357E+02 -0.84944018396E+02 -0.37619235878E+02  0.10571971893E+03  0.00000000000E+00 0. -1.
         -5    1    5    5    0  502  0.60329711875E+02  0.27089417240E+01  0.10176807677E+02  0.61422063744E+02  0.47000000000E+01 0.  1.
         13    1    6    6    0    0 -0.79539044881E+01  0.78920674500E+01  0.12907350386E+03  0.12955893919E+03  0.00000000000E+00 0. -1.
        -14    1    6    6    0    0 -0.93390724180E+01  0.51662864071E+02  0.35584467936E+02  0.63423372316E+02  0.00000000000E+00 0.  1.
</event>
<event>
12    1  0.8526130E-002  0.1783492E+03  0.7818608E-02  0.1169496E+00
         21   -1    0    0  503  502  0.00000000000E+00  0.00000000000E+00  0.64306305451E+02  0.64306305451E+02  0.00000000000E+00 0.  1.
         21   -1    0    0  501  503 -0.00000000000E+00 -0.00000000000E+00 -0.61726141994E+03  0.61726141994E+03  0.00000000000E+00 0.  1.
          6    2    1    2  501    0 -0.15429633374E+02 -0.39644578247E+02 -0.42874711651E+03  0.46422913634E+03  0.17284338269E+03 0.  0.
         24    2    3    3    0    0  0.33808653183E+02  0.32007965750E+02 -0.22417137337E+03  0.24189645632E+03  0.78061232625E+02 0.  0.
         -6    2    1    2    0  502  0.15429633374E+02  0.39644578247E+02 -0.12420799797E+03  0.21733858905E+03  0.17320123948E+03 0.  0.
        -24    2    5    5    0    0  0.51120690565E+02 -0.27947943202E+02 -0.89157853457E+02  0.13311743286E+03  0.79854339674E+02 0.  0.
          5    1    3    3  501    0 -0.49238286557E+02 -0.71652543997E+02 -0.20457574314E+03  0.22233268002E+03  0.47000000000E+01 0. -1.
        -11    1    4    4    0    0  0.25540372264E+02 -0.21062068075E+02 -0.52935130185E+02  0.62434360209E+02  0.00000000000E+00 0.  1.
         12    1    4    4    0    0  0.82682809194E+01  0.53070033825E+02 -0.17123624319E+03  0.17946209611E+03  0.00000000000E+00 0. -1.
         -5    1    5    5    0  502 -0.35691057191E+02  0.67592521449E+02 -0.35050144517E+02  0.84221156190E+02  0.47000000000E+01 0.  1.
         11    1    6    6    0    0  0.51498852023E+02  0.16585416201E+02 -0.44565319257E+02  0.70094760651E+02  0.00000000000E+00 0. -1.
        -12    1    6    6    0    0 -0.37816145773E+00 -0.44533359403E+02 -0.44592534200E+02  0.63022672207E+02  0.00000000000E+00 0.  1.
</event>
<event>
12    1  0.8526130E-002  0.1964139E+03  0.7818608E-02  0.1153243E+00
         21   -1    0    0  501  502  0.00000000000E+00  0.00000000000E+00  0.10333213469E+04  0.10333213469E+04  0.00000000000E+00 0.  1.
         21   -1    0    0  502  503 -0.00000000000E+00 -0.00000000000E+00 -0.38774226353E+02  0.38774226353E+02  0.00000000000E+00 0.  1.
         -6    2    1    2    0  503 -0.39241046370E+01  0.94379138792E+02  0.37847834946E+03  0.42547422795E+03  0.16988124441E+03 0.  0.
        -24    2    3    3    0    0  0.38784044099E+02  0.83774839117E+02  0.35486483743E+03  0.37531323623E+03  0.80053399046E+02 0.  0.
          6    2    1    2  501    0  0.39241046370E+01 -0.94379138792E+02  0.61606877109E+03  0.64662134531E+03  0.17220805167E+03 0.  0.
         24    2    5    5    0    0 -0.43095484243E+02 -0.12641010731E+02  0.40774295904E+03  0.41789946772E+03  0.79803687670E+02 0.  0.
          5    1    5    5  501    0  0.47019588880E+02 -0.81738128062E+02  0.20832581205E+03  0.22872187758E+03  0.47000000000E+01 0. -1.
        -11    1    6    6    0    0 -0.12688277584E+02 -0.39536737578E+02  0.11325945950E+03  0.12063105393E+03  0.00000000000E+00 0.  1.
         12    1    6    6    0    0 -0.30407206660E+02  0.26895726847E+02  0.29448349954E+03  0.29726841380E+03  0.00000000000E+00 0. -1.
         -5    1    3    3    0  503 -0.42708148736E+02  0.10604299675E+02  0.23613512031E+02  0.50160991721E+02  0.47000000000E+01 0.  1.
         11    1    4    4    0    0  0.93353639251E+01 -0.50111926896E+01  0.14687091720E+03  0.14725259723E+03  0.00000000000E+00 0. -1.
        -12    1    4    4    0    0  0.29448680174E+02  0.88786031807E+02  0.20799392023E+03  0.22806063900E+03  0.00000000000E+00 0.  1.
</event>
<event>
12    1  0.8526130E-002  0.1762690E+03  0.7818608E-02  0.1172576E+00
         21   -1    0    0  503  502  0.00000000000E+00  0.00000000000E+00  0.38228797961E+03  0.38228797961E+03  0.00000000000E+00 0. -1.
         21   -1    0    0  501  503 -0.00000000000E+00 -0.00000000000E+00 -0.29519509175E+03  0.29519509175E+03  0.00000000000E+00 0. -1.
          6    2    1    2  501    0  0.18746404954E+01  0.12174198861E+00 -0.24602178047E+03  0.30265077327E+03  0.17625902813E+03 0.  0.
         24    2    3    3    0    0 -0.23218392117E+02 -0.57058549017E+02 -0.92445846759E+02  0.13679872058E+03  0.79830342738E+02 0.  0.
         -6    2    1    2    0  502 -0.18746404954E+01 -0.12174198861E+00  0.33311466833E+03  0.37483229809E+03  0.17184394181E+03 0.  0.
        -24    2    5    5    0    0  0.62531789405E+02 -0.19262780135E+02  0.17427808203E+03  0.20230485476E+03  0.79203061804E+02 0.  0.
          5    1    3    3  501    0  0.25093032613E+02  0.57180291005E+02 -0.15357593371E+03  0.16585205269E+03  0.47000000000E+01 0. -1.
        -13    1    4    4    0    0  0.18158060292E+02 -0.47483804195E+02 -0.23929873842E+02  0.56187771592E+02  0.00000000000E+00 0.  1.
         14    1    4    4    0    0 -0.41376452410E+02 -0.95747448220E+01 -0.68515972916E+02  0.80610948990E+02  0.00000000000E+00 0. -1.
         -5    1    5    5    0  502 -0.64406429900E+02  0.19141038146E+02  0.15883658631E+03  0.17252744333E+03  0.47000000000E+01 0.  1.
         13    1    6    6    0    0 -0.80634343426E+01  0.40413655884E+01  0.87809846158E+02  0.88271856735E+02  0.00000000000E+00 0. -1.
        -14    1    6    6    0    0  0.70595223747E+02 -0.23304145723E+02  0.86468235869E+02  0.11403299802E+03  0.00000000000E+00 0.  1.
</event>
<event>
12    1  0.8526130E-002  0.2053439E+03  0.7818608E-02  0.1146268E+00
         21   -1    0    0  503  502  0.00000000000E+00  0.00000000000E+00  0.12630710983E+03  0.12630710983E+03  0.00000000000E+00 0.  1.
         21   -1    0    0  501  503 -0.00000000000E+00 -0.00000000000E+00 -0.33587532016E+03  0.33587532016E+03  0.00000000000E+00 0. -1.
          6    2    1    2  501    0  0.10488540656E+01 -0.11189066543E+03 -0.14261166354E+03  0.24619791674E+03  0.16659743853E+03 0.  0.
         24    2    3    3    0    0  0.55624723848E+01 -0.46339506673E+02 -0.15359526373E+03  0.17941426127E+03  0.80122912623E+02 0.  0.
         -6    2    1    2    0  502 -0.10488540656E+01  0.11189066543E+03 -0.66956546789E+02  0.21598451324E+03  0.17217871442E+03 0.  0.
        -24    2    5    5    0    0  0.16997554121E+02  0.28755918460E+02  0.25274782129E+02  0.90422707602E+02  0.80135084363E+02 0.  0.
          5    1    3    3  501    0 -0.45136183192E+01 -0.65551158757E+02  0.10983600196E+02  0.66783655471E+02  0.47000000000E+01 0. -1.
        -13    1    4    4    0    0 -0.31912387820E+02 -0.29886149783E+02 -0.11550938174E+03  0.12350708367E+03  0.00000000000E+00 0.  1.
         14    1    4    4    0    0  0.37474860205E+02 -0.16453356890E+02 -0.38085881992E+02  0.55907177602E+02  0.00000000000E+00 0. -1.
         -5    1    5    5    0  502 -0.18046408187E+02  0.83134746971E+02 -0.92231328918E+02  0.12556180564E+03  0.47000000000E+01 0.  1.
         11    1    6    6    0    0 -0.30691936455E+02  0.18763247835E+02  0.20649820822E+02  0.41478543039E+02  0.00000000000E+00 0. -1.
        -12    1    6    6    0    0  0.47689490576E+02  0.99926706248E+01  0.46249613070E+01  0.48944164563E+02  0.00000000000E+00 0.  1.
</event>
<event>
12    1  0.8526130E-002  0.2534643E+03  0.7818608E-02  0.1111523E+00
         21   -1    0    0  503  502  0.00000000000E+00  0.00000000000E+00  0.15337264698E+03  0.15337264698E+03  0.00000000000E+00 0.  1.
         21   -1    0    0  501  503 -0.00000000000E+00 -0.00000000000E+00 -0.91789967599E+03  0.91789967599E+03  0.00000000000E+00 0. -1.
          6    2    1    2  501    0  0.46372022037E+02  0.17901172275E+03 -0.77967341217E+03  0.81983827130E+03  0.17334532049E+03 0.  0.
         24    2    3    3    0    0 -0.42221518188E+02  0.10130847560E+03 -0.40888781913E+03  0.43074874948E+03  0.79430300998E+02 0.  0.
         -6    2    1    2    0  502 -0.46372022037E+02 -0.17901172275E+03  0.15146383170E+02  0.25143405167E+03  0.16968826744E+03 0.  0.
        -24    2    5    5    0    0 -0.31601617654E+02 -0.12691773040E+03 -0.54540722473E+02  0.16305797133E+03  0.80662501049E+02 0.  0.
          5    1    3    3  501    0  0.88593540225E+02  0.77703247148E+02 -0.37078559304E+03  0.38908952182E+03  0.47000000000E+01 0. -1.
        -11    1    4    4    0    0 -0.49937733781E+02  0.66434109343E+02 -0.17024984241E+03  0.18945257185E+03  0.00000000000E+00 0.  1.
         12    1    4    4    0    0  0.77162155938E+01  0.34874366254E+02 -0.23863797672E+03  0.24129617763E+03  0.00000000000E+00 0. -1.
         -5    1    5    5    0  502 -0.14770404383E+02 -0.52093992340E+02  0.69687105643E+02  0.88376080341E+02  0.47000000000E+01 0.  1.
         13    1    6    6    0    0 -0.13468129056E+02  0.57748201229E+01 -0.19920328162E+02  0.24729709294E+02  0.00000000000E+00 0. -1.
        -14    1    6    6    0    0 -0.18133488598E+02 -0.13269255053E+03 -0.34620394312E+02  0.13832826203E+03  0.00000000000E+00 0.  1.
</event>
<event>
12    1  0.8526130E-002  0.2641947E+03  0.7818608E-02  0.1104799E+00
         21   -1    0    0  503  502  0.00000000000E+00  0.00000000000E+00  0.46381996775E+03  0.46381996775E+03  0.00000000000E+00 0. -1.
         21   -1    0    0  501  503 -0.00000000000E+00 -0.00000000000E+00 -0.26580892908E+03  0.26580892908E+03  0.00000000000E+00 0.  1.
          6    2    1    2  501    0 -0.11872385585E+03 -0.16166921822E+03  0.34000884393E+03  0.43058660994E+03  0.17194919203E+03 0.  0.
         24    2    3    3    0    0 -0.18719599413E+02 -0.11243335534E+03  0.13664017049E+03  0.19862555968E+03  0.88260376013E+02 0.  0.
         -6    2    1    2    0  502  0.11872385585E+03  0.16166921822E+03 -0.14199780526E+03  0.29904228690E+03  0.17038375094E+03 0.  0.
        -24    2    5    5    0    0  0.14312930506E+03  0.15322817712E+03 -0.92248440417E+02  0.24279314087E+03  0.80460314855E+02 0.  0.
          5    1    3    3  501    0 -0.10000425643E+03 -0.49235862890E+02  0.20336867345E+03  0.23196105026E+03  0.47000000000E+01 0. -1.
        -11    1    4    4    0    0  0.32029784474E+02 -0.53831517228E+02  0.84560407729E+02  0.10523403392E+03  0.00000000000E+00 0.  1.
         12    1    4    4    0    0 -0.50749383887E+02 -0.58601838107E+02  0.52079762757E+02  0.93391525757E+02  0.00000000000E+00 0. -1.
         -5    1    5    5    0  502 -0.24405449211E+02  0.84410411082E+01 -0.49749364845E+02  0.56249146026E+02  0.47000000000E+01 0.  1.
         13    1    6    6    0    0  0.22297758983E+02  0.58988151112E+02  0.16359553437E+01  0.63083027647E+02  0.00000000000E+00 0. -1.
        -14    1    6    6    0    0  0.12083154607E+03  0.94240026005E+02 -0.93884395760E+02  0.17971011322E+03  0.00000000000E+00 0.  1.
</event>
<event>
12    1  0.8526130E-002  0.2316498E+03  0.7818608E-02  0.1125502E+00
         21   -1    0    0  501  502  0.00000000000E+00  0.00000000000E+00  0.36068960390E+03  0.36068960390E+03  0.00000000000E+00 0. -1.
         21   -1    0    0  502  503 -0.00000000000E+00 -0.00000000000E+00 -0.93559673449E+03  0.93559673449E+03  0.00000000000E+00 0. -1.
         -6    2    1    2    0  503 -0.88107699595E+02  0.12700271422E+03 -0.88186982149E+03  0.91178727213E+03  0.17253692769E+03 0.  0.
        -24    2    3    3    0    0 -0.12629079064E+03  0.10840514725E+03 -0.62375826337E+03  0.65016257075E+03  0.77045165485E+02 0.  0.
          6    2    1    2  501    0  0.88107699595E+02 -0.12700271422E+03  0.30696269089E+03  0.38449906626E+03  0.17239716416E+03 0.  0.
         24    2    5    5    0    0  0.21413218952E+02 -0.13301755960E+03  0.25717942674E+03  0.30092397726E+03  0.79131444070E+02 0.  0.
          5    1    5    5  501    0  0.66694480643E+02  0.60148453822E+01  0.49783264151E+02  0.83575089008E+02  0.47000000000E+01 0. -1.
        -13    1    6    6    0    0  0.10143378402E+02 -0.77339088478E+01 -0.19246191314E+01  0.12899830630E+02  0.00000000000E+00 0.  1.
         14    1    6    6    0    0  0.11269840549E+02 -0.12528365075E+03  0.25910404587E+03  0.28802414663E+03  0.00000000000E+00 0. -1.
         -5    1    3    3    0  503  0.38183091047E+02  0.18597566963E+02 -0.25811155812E+03  0.26162470138E+03  0.47000000000E+01 0.  1.
         13    1    4    4    0    0 -0.10010568253E+03  0.77985817869E+02 -0.32797086816E+03  0.35166436530E+03  0.00000000000E+00 0. -1.
        -14    1    4    4    0    0 -0.26185108115E+02  0.30419329386E+02 -0.29578739521E+03  0.29849820544E+03  0.00000000000E+00 0.  1.
</event>
<event>
12    1  0.8526130E-002  0.1850750E+03  0.7818608E-02  0.1162982E+00
         21   -1    0    0  503  502  0.00000000000E+00  0.00000000000E+00  0.21665457958E+04  0.21665457958E+04  0.00000000000E+00 0. -1.
         21   -1    0    0  501  503 -0.00000000000E+00 -0.00000000000E+00 -0.11425162978E+03  0.11425162978E+03  0.00000000000E+00 0. -1.
          6    2    1    2  501    0  0.56138937811E+02 -0.41593520933E+02 -0.32413039800E+02  0.18789189243E+03  0.17138015279E+03 0.  0.
         24    2    3    3    0    0  0.15084881978E+02 -0.52671556623E+02  0.38659924601E+02  0.10493639446E+03  0.80716854318E+02 0.  0.
         -6    2    1    2    0  502 -0.56138937811E+02  0.41593520933E+02  0.20847072059E+04  0.20929055332E+04  0.17137046241E+03 0.  0.
        -24    2    5    5    0    0  0.22427624203E+02  0.55562881677E+02  0.14253171250E+04  0.14286877854E+04  0.77650816318E+02 0.  0.
          5    1    3    3  501    0  0.41054055833E+02  0.11078035690E+02 -0.71072964401E+02  0.82955497972E+02  0.47000000000E+01 0. -1.
        -13    1    4    4    0    0 -0.28169413165E+02 -0.12077174971E+02  0.33480790358E+02  0.45390938703E+02  0.00000000000E+00 0.  1.
         14    1    4    4    0    0  0.43254295143E+02 -0.40594381651E+02  0.51791342425E+01  0.59545455758E+02  0.00000000000E+00 0. -1.
         -5    1    5    5    0  502 -0.78566562014E+02 -0.13969360745E+02  0.65939008089E+03  0.66421774779E+03  0.47000000000E+01 0.  1.
         11    1    6    6    0    0  0.34278254296E+00  0.36107544734E+02  0.12752808563E+04  0.12757919637E+04  0.00000000000E+00 0. -1.
        -12    1    6    6    0    0  0.22084841660E+02  0.19455336943E+02  0.15003626871E+03  0.15289582170E+03  0.00000000000E+00 0.  1.
</event>
<event>
12    1  0.8526130E-002  0.2508964E+03  0.7818608E-02  0.1113455E+00
         21   -1    0    0  503  502  0.00000000000E+00  0.00000000000E+00  0.76168956279E+02  0.76168956279E+02  0.00000000000E+00 0. -1.
         21   -1    0    0  501  503 -0.00000000000E+00 -0.00000000000E+00 -0.91552245509E+03  0.91552245509E+03  0.00000000000E+00 0.  1.
          6    2    1    2  501    0 -0.13809040785E+03  0.11897524019E+03 -0.25604954775E+03  0.35848343033E+03  0.17240919464E+03 0.  0.
         24    2    3    3    0    0 -0.36243096589E+02  0.40586499123E+02 -0.18916451294E+03  0.21352354822E+03  0.82754255046E+02 0.  0.
         -6    2    1    2    0  502  0.13809040785E+03 -0.11897524019E+03 -0.58330395106E+03  0.63320798104E+03  0.16578534137E+03 0.  0.
        -24    2    5    5    0    0  0.29922484927E+02 -0.28583097778E+01 -0.15533532936E+03  0.17674037843E+03  0.78769104219E+02 0.  0.
          5    1    3    3  501    0 -0.10184731127E+03  0.78388741068E+02 -0.66885034815E+02  0.14495988211E+03  0.47000000000E+01 0. -1.
        -13    1    4    4    0    0 -0.16127401751E+02  0.56866541962E+02 -0.17345587703E+03  0.18325075159E+03  0.00000000000E+00 0.  1.
         14    1    4    4    0    0 -0.20115694838E+02 -0.16280042838E+02 -0.15708635901E+02  0.30272796625E+02  0.00000000000E+00 0. -1.
         -5    1    5    5    0  502  0.10816792293E+03 -0.11611693041E+03 -0.42796862170E+03  0.45646760261E+03  0.47000000000E+01 0.  1.
         13    1    6    6    0    0 -0.79604232390E+00 -0.36695829939E+02 -0.88133731998E+02  0.95471316814E+02  0.00000000000E+00 0. -1.
        -14    1    6    6    0    0  0.30718527251E+02  0.33837520161E+02 -0.67201597365E+02  0.81269061614E+02  0.00000000000E+00 0.  1.
</event>
<event>
12    1  0.8526130E-002  0.1905927E+03  0.7818608E-02  0.1158060E+00
         21   -1    0    0  501  502  0.00000000000E+00  0.00000000000E+00  0.27133050101E+03  0.27133050101E+03  0.00000000000E+00 0.  1.
         21   -1    0    0  502  503 -0.00000000000E+00 -0.00000000000E+00 -0.16174234726E+03  0.16174234726E+03  0.00000000000E+00 0.  1.
         -6    2    1    2    0  503 -0.72470015866E+02  0.37622223523E+02 -0.35672178459E+02  0.19390223436E+03  0.17221567080E+03 0.  0.
        -24    2    3    3    0    0 -0.11024776859E+03  0.54379680956E+02 -0.82254646385E+01  0.14406868060E+03  0.74675339174E+02 0.  0.
          6    2    1    2  501    0  0.72470015866E+02 -0.37622223523E+02  0.14526033221E+03  0.23917061391E+03  0.17156539145E+03 0.  0.
         24    2    5    5    0    0 -0.15058903062E+02 -0.61123474798E+02  0.76816047806E+02  0.12550298207E+03  0.76729678583E+02 0.  0.
          5    1    5    5  501    0  0.87528918928E+02  0.23501251275E+02  0.68444284403E+02  0.11366763184E+03  0.47000000000E+01 0. -1.
        -11    1    6    6    0    0  0.21918294237E+02 -0.30209444499E+02  0.66433522641E+02  0.76199967780E+02  0.00000000000E+00 0.  1.
         12    1    6    6    0    0 -0.36977197299E+02 -0.30914030299E+02  0.10382525166E+02  0.49303014292E+02  0.00000000000E+00 0. -1.
         -5    1    3    3    0  503  0.37777752725E+02 -0.16757457433E+02 -0.27446713821E+02  0.49833553758E+02  0.47000000000E+01 0.  1.
         11    1    4    4    0    0 -0.73084709700E+01  0.22638216539E+02  0.21772166107E+02  0.32247942771E+02  0.00000000000E+00 0. -1.
        -12    1    4    4    0    0 -0.10293929762E+03  0.31741464417E+02 -0.29997630745E+02  0.11182073783E+03  0.00000000000E+00 0.  1.
</event>
<event>
12    1  0.8526130E-002  0.1975556E+03  0.7818608E-02  0.1152445E+00
         21   -1    0    0  503  502  0.00000000000E+00  0.00000000000E+00  0.98848992295E+03  0.98848992295E+03  0.00000000000E+00 0.  1.
         21   -1    0    0  501  503 -0.00000000000E+00 -0.00000000000E+00 -0.39111419814E+02  0.39111419814E+02  0.00000000000E+00 0. -1.
          6    2    1    2  501    0 -0.25225626841E+02 -0.87121788141E+02  0.50856580679E+03  0.54454435643E+03  0.17222902795E+03 0.  0.
         24    2    3    3    0    0  0.46378559397E+02 -0.77979084713E+02  0.35053880590E+03  0.37074743033E+03  0.79652333489E+02 0.  0.
         -6    2    1    2    0  502  0.25225626841E+02  0.87121788141E+02  0.44081269635E+03  0.48305698633E+03  0.17550407563E+03 0.  0.
        -24    2    5    5    0    0 -0.15083463007E+02 -0.14494566407E+02  0.14540934316E+03  0.16803962600E+03  0.81583304152E+02 0.  0.
          5    1    3    3  501    0 -0.71604186238E+02 -0.91427034279E+01  0.15802700089E+03  0.17379692611E+03  0.47000000000E+01 0. -1.
        -11    1    4    4    0    0  0.57139736947E+02 -0.33432824323E+02  0.27082761512E+03  0.27880154302E+03  0.00000000000E+00 0.  1.
         12    1    4    4    0    0 -0.10761177551E+02 -0.44546260391E+02  0.79711190777E+02  0.91945887304E+02  0.00000000000E+00 0. -1.
         -5    1    5    5    0  502  0.40309089848E+02  0.10161635455E+03  0.29540335319E+03  0.31501736033E+03  0.47000000000E+01 0.  1.
         11    1    6    6    0    0 -0.41820496147E+02  0.12329885076E+02  0.56246510177E+02  0.71166353504E+02  0.00000000000E+00 0. -1.
        -12    1    6    6    0    0  0.26737033140E+02 -0.26824451483E+02  0.89162832983E+02  0.96873272496E+02  0.00000000000E+00 0.  1.
</event>
<event>
12    1  0.8526130E-002  0.1771527E+03  0.7818608E-02  0.1170702E+00
         21   -1    0    0  503  502  0.00000000000E+00  0.00000000000E+00  0.27411634337E+03  0.27411634337E+03  0.00000000000E+00 0. -1.
         21   -1    0    0  501  503 -0.00000000000E+00 -0.00000000000E+00 -0.23801016672E+03  0.23801016672E+03  0.00000000000E+00 0. -1.
          6    2    1    2  501    0  0.38993380722E+02  0.10185292749E+02 -0.16662704335E+03  0.24320288267E+03  0.17250752631E+03 0.  0.
         24    2    3    3    0    0 -0.22965619626E+02 -0.38327017761E+02 -0.12482720099E+03  0.15397464265E+03  0.78294191983E+02 0.  0.
         -6    2    1    2    0  502 -0.38993380722E+02 -0.10185292749E+02  0.20273322001E+03  0.26892362742E+03  0.17203178473E+03 0.  0.
        -24    2    5    5    0    0  0.43130321706E+02 -0.95659499597E+01  0.12620460961E+03  0.15656970316E+03  0.81453891323E+02 0.  0.
          5    1    3    3  501    0  0.61959000349E+02  0.48512310510E+02 -0.41799842366E+02  0.89228240019E+02  0.47000000000E+01 0. -1.
        -13    1    4    4    0    0 -0.13296028440E+02  0.23458730635E+02 -0.29521083534E+02  0.39982380973E+02  0.00000000000E+00 0.  1.
         14    1    4    4    0    0 -0.96695911858E+01 -0.61785748396E+02 -0.95306117453E+02  0.11399226168E+03  0.00000000000E+00 0. -1.
         -5    1    5    5    0  502 -0.82123702429E+02 -0.61934278891E+00  0.76528610398E+02  0.11235392426E+03  0.47000000000E+01 0.  1.
         11    1    6    6    0    0  0.35150285188E+02  0.24349074589E+02  0.11024504592E+03  0.11824715698E+03  0.00000000000E+00 0. -1.
        -12    1    6    6    0    0  0.79800365185E+01 -0.33915024549E+02  0.15959563686E+02  0.38322546184E+02  0.00000000000E+00 0.  1.
</event>
<event>
12    1  0.8526130E-002  0.2937735E+03  0.7818608E-02  0.1088789E+00
         21   -1    0    0  501  502  0.00000000000E+00  0.00000000000E+00  0.58953884204E+03  0.58953884204E+03  0.00000000000E+00 0.  1.
         21   -1    0    0  502  503 -0.00000000000E+00 -0.00000000000E+00 -0.14588599055E+03  0.14588599055E+03  0.00000000000E+00 0.  1.
         -6    2    1    2    0  503 -0.19681153945E+03  0.13339559146E+03  0.25127403731E+03  0.38426605836E+03  0.16730987985E+03 0.  0.
        -24    2    3    3    0    0 -0.21991477284E+03  0.12696006337E+03  0.23392630904E+03  0.35429592170E+03  0.79515514638E+02 0.  0.
          6    2    1    2  501    0  0.19681153945E+03 -0.13339559146E+03  0.19237881418E+03  0.35115877424E+03  0.17255060330E+03 0.  0.
         24    2    5    5    0    0  0.14030436477E+03 -0.12949546445E+03  0.74359647059E+02  0.22016684476E+03  0.80558626689E+02 0.  0.
          5    1    5    5  501    0  0.56507174680E+02 -0.39001270134E+01  0.11801916712E+03  0.13099192948E+03  0.47000000000E+01 0. -1.
        -13    1    6    6    0    0  0.56506961009E+02 -0.79490335096E+01  0.36562873490E+02  0.67772173450E+02  0.00000000000E+00 0.  1.
         14    1    6    6    0    0  0.83797403756E+02 -0.12154643094E+03  0.37796773568E+02  0.15239467131E+03  0.00000000000E+00 0. -1.
         -5    1    3    3    0  503  0.23103233392E+02  0.64355280912E+01  0.17347728274E+02  0.29970136657E+02  0.47000000000E+01 0.  1.
         13    1    4    4    0    0 -0.12830251848E+03  0.29262094902E+02  0.12744129209E+03  0.18319140094E+03  0.00000000000E+00 0. -1.
        -14    1    4    4    0    0 -0.91612254355E+02  0.97697968468E+02  0.10648501695E+03  0.17110452076E+03  0.00000000000E+00 0.  1.
</event>
<event>
12    1  0.8526130E-002  0.2031246E+03  0.7818608E-02  0.1147161E+00
         21   -1    0    0  503  502  0.00000000000E+00  0.00000000000E+00  0.44443952725E+02  0.44443952725E+02  0.00000000000E+00 0. -1.
         21   -1    0    0  501  503 -0.00000000000E+00 -0.00000000000E+00 -0.16890633782E+04  0.16890633782E+04  0.00000000000E+00 0.  1.
          6    2    1    2  501    0 -0.64819940210E+02 -0.86182276312E+02 -0.14040849556E+04  0.14186797118E+04  0.17195508881E+03 0.  0.
         24    2    3    3    0    0 -0.17118286076E+00  0.15716713661E+02 -0.40150059223E+03  0.40884786353E+03  0.75543401845E+02 0.  0.
         -6    2    1    2    0  502  0.64819940210E+02  0.86182276312E+02 -0.24053446986E+03  0.31482761917E+03  0.17213538045E+03 0.  0.
        -24    2    5    5    0    0 -0.16419342953E+02  0.64224415213E+01 -0.62837538013E+02  0.10373583353E+03  0.80633271032E+02 0.  0.
          5    1    3    3  501    0 -0.64648757349E+02 -0.10189898997E+03 -0.10025843634E+04  0.10098318482E+04  0.47000000000E+01 0. -1.
        -13    1    4    4    0    0  0.14124671806E+02 -0.18188689566E+02 -0.30001476776E+03  0.30089731746E+03  0.00000000000E+00 0.  1.
         14    1    4    4    0    0 -0.14295854667E+02  0.33905403226E+02 -0.10148582447E+03  0.10795054607E+03  0.00000000000E+00 0. -1.
         -5    1    5    5    0  502  0.81239283163E+02  0.79759834790E+02 -0.17769693185E+03  0.21109178564E+03  0.47000000000E+01 0.  1.
         13    1    6    6    0    0  0.20179150918E+02  0.30985689013E+02 -0.19010048740E+02  0.41577554143E+02  0.00000000000E+00 0. -1.
        -14    1    6    6    0    0 -0.36598493871E+02 -0.24563247491E+02 -0.43827489273E+02  0.62158279391E+02  0.00000000000E+00 0.  1.
</event>
<event>
12    1  0.8526130E-002  0.1775348E+03  0.7818608E-02  0.1170615E+00
         21   -1    0    0  503  502  0.00000000000E+00  0.00000000000E+00  0.10226058375E+04  0.10226058375E+04  0.00000000000E+00 0. -1.
         21   -1    0    0  501  503 -0.00000000000E+00 -0.00000000000E+00 -0.30667506850E+02  0.30667506850E+02  0.00000000000E+00 0. -1.
          6    2    1    2  501    0  0.26782247980E+02 -0.38382500892E+02  0.52781068273E+03  0.55634971281E+03  0.16955937296E+03 0.  0.
         24    2    3    3    0    0  0.25207717922E+02  0.37615026514E+02  0.19489486888E+03  0.21483377991E+03  0.78225467780E+02 0.  0.
         -6    2    1    2    0  502 -0.26782247980E+02  0.38382500892E+02  0.46412764792E+03  0.49692363154E+03  0.17125453816E+03 0.  0.
        -24    2    5    5    0    0 -0.53436056536E+02 -0.10713377370E+02  0.15927212483E+03  0.18695619659E+03  0.81331550473E+02 0.  0.
          5    1    3    3  501    0  0.15745300578E+01 -0.75997527406E+02  0.33291581385E+03  0.34151593291E+03  0.47000000000E+01 0. -1.
        -11    1    4    4    0    0 -0.21713507591E+02  0.34886945154E+02  0.67249906098E+02  0.78810692323E+02  0.00000000000E+00 0.  1.
         12    1    4    4    0    0  0.46921225513E+02  0.27280813602E+01  0.12764496278E+03  0.13602308758E+03  0.00000000000E+00 0. -1.
         -5    1    5    5    0  502  0.26653808556E+02  0.49095878262E+02  0.30485552309E+03  0.30996743495E+03  0.47000000000E+01 0.  1.
         11    1    6    6    0    0 -0.57392385132E+02  0.21317460973E+02  0.75639050961E+02  0.97311798070E+02  0.00000000000E+00 0. -1.
        -12    1    6    6    0    0  0.39563285962E+01 -0.32030838343E+02  0.83633073868E+02  0.89644398517E+02  0.00000000000E+00 0.  1.
</event>
<event>
12    1  0.8526130E-002  0.2462125E+03  0.7818608E-02  0.1115846E+00
         21   -1    0    0  501  502  0.00000000000E+00  0.00000000000E+00  0.11329619134E+04  0.11329619134E+04  0.00000000000E+00 0.  1.
         21   -1    0    0  502  503 -0.00000000000E+00 -0.00000000000E+00 -0.53340667175E+02  0.53340667175E+02  0.00000000000E+00 0.  1.
         -6    2    1    2    0  503  0.93090591354E+02  0.14896769974E+03  0.53798784226E+03  0.59165149472E+03  0.17252054665E+03 0.  0.
        -24    2    3    3    0    0  0.24561017938E+02  0.13072137182E+03  0.46290727729E+03  0.48826671754E+03  0.80186778451E+02 0.  0.
          6    2    1    2  501    0 -0.93090591354E+02 -0.14896769974E+03  0.54163340392E+03  0.59465108581E+03  0.17142326521E+03 0.  0.
         24    2    5    5    0    0  0.59397804884E+01 -0.31936201830E+02  0.25619824516E+03  0.27061604773E+03  0.80872136649E+02 0.  0.
          5    1    5    5  501    0 -0.99030371842E+02 -0.11703149791E+03  0.28543515875E+03  0.32403503808E+03  0.47000000000E+01 0. -1.
        -13    1    6    6    0    0  0.33098796096E+01 -0.56895508124E+02  0.12996074864E+03  0.14190789384E+03  0.00000000000E+00 0.  1.
         14    1    6    6    0    0  0.26299008788E+01  0.24959306294E+02  0.12623749653E+03  0.12870815389E+03  0.00000000000E+00 0. -1.
         -5    1    3    3    0  503  0.68529573416E+02  0.18246327920E+02  0.75080564968E+02  0.10338477717E+03  0.47000000000E+01 0.  1.
         11    1    4    4    0    0  0.23475522697E+02  0.89485805694E+02  0.18014823535E+03  0.20251468166E+03  0.00000000000E+00 0. -1.
        -12    1    4    4    0    0  0.10854952406E+01  0.41235566124E+02  0.28275904194E+03  0.28575203589E+03  0.00000000000E+00 0.  1.
</event>
<event>
12    1  0.8526130E-002  0.2075102E+03  0.7818608E-02  0.1144229E+00
         21   -1    0    0  501  502  0.00000000000E+00  0.00000000000E+00  0.39461118711E+03  0.39461118711E+03  0.00000000000E+00 0. -1.
         21   -1    0    0  502  503 -0.00000000000E+00 -0.00000000000E+00 -0.27618578650E+03  0.27618578650E+03  0.00000000000E+00 0. -1.
         -6    2    1    2    0  503  0.10787313456E+03 -0.27298319339E+02 -0.20281484151E+03  0.29016262581E+03  0.17515329879E+03 0.  0.
        -24    2    3    3    0    0  0.14406107453E+03 -0.17404657526E+02 -0.18550752501E+03  0.24858036098E+03  0.79515022067E+02 0.  0.
          6    2    1    2  501    0 -0.10787313456E+03  0.27298319339E+02  0.32124024213E+03  0.38063434780E+03  0.17118820686E+03 0.  0.
         24    2    5    5    0    0 -0.72600777891E+02  0.58266903603E+02  0.11076099423E+03  0.16493363814E+03  0.79178293361E+02 0.  0.
          5    1    5    5  501    0 -0.35272356672E+02 -0.30968584265E+02  0.21047924789E+03  0.21570070967E+03  0.47000000000E+01 0. -1.
        -13    1    6    6    0    0 -0.11257706695E+02  0.36794448682E+02  0.23704500222E+01  0.38551088793E+02  0.00000000000E+00 0.  1.
         14    1    6    6    0    0 -0.61343071197E+02  0.21472454921E+02  0.10839054421E+03  0.12638254934E+03  0.00000000000E+00 0. -1.
         -5    1    3    3    0  503 -0.36187939967E+02 -0.98936618129E+01 -0.17307316508E+02  0.41582264824E+02  0.47000000000E+01 0.  1.
         13    1    4    4    0    0  0.33126430901E+02 -0.40318624907E+02 -0.59654932466E+02  0.79256942321E+02  0.00000000000E+00 0. -1.
        -14    1    4    4    0    0  0.11093464363E+03  0.22913967381E+02 -0.12585259254E+03  0.16932341866E+03  0.00000000000E+00 0.  1.
</event>
<event>
12    1  0.8526130E-002  0.1870123E+03  0.7818608E-02  0.1161262E+00
         21   -1    0    0  503  502  0.00000000000E+00  0.00000000000E+00  0.20137867600E+03  0.20137867600E+03  0.00000000000E+00 0. -1.
         21   -1    0    0  501  503 -0.00000000000E+00 -0.00000000000E+00 -0.27507747693E+03  0.27507747693E+03  0.00000000000E+00 0. -1.
          6    2    1    2  501    0 -0.62660659785E+02 -0.37594676051E+02 -0.18169636912E+03  0.26050000127E+03  0.17177590679E+03 0.  0.
         24    2    3    3    0    0 -0.69857351967E+02  0.29675961875E+02 -0.73157403808E+02  0.13251590813E+03  0.80297869446E+02 0.  0.
         -6    2    1    2    0  502  0.62660659785E+02  0.37594676051E+02  0.10799756819E+03  0.21595615166E+03  0.17214490045E+03 0.  0.
        -24    2    5    5    0    0 -0.22845966797E+02  0.36333675606E+02  0.70740709213E+02  0.12255841693E+03  0.90411522703E+02 0.  0.
          5    1    3    3  501    0  0.71966921813E+01 -0.67270637925E+02 -0.10853896531E+03  0.12798409314E+03  0.47000000000E+01 0. -1.
        -13    1    4    4    0    0 -0.31444961706E+02  0.54016928588E+02 -0.28202466650E+02  0.68571082214E+02  0.00000000000E+00 0.  1.
         14    1    4    4    0    0 -0.38412390261E+02 -0.24340966714E+02 -0.44954937158E+02  0.63944825912E+02  0.00000000000E+00 0. -1.
         -5    1    5    5    0  502  0.85506626583E+02  0.12610004448E+01  0.37256858979E+02  0.93397734730E+02  0.47000000000E+01 0.  1.
         11    1    6    6    0    0  0.23204551204E+02  0.46732303911E+02  0.44315437383E+02  0.68455952378E+02  0.00000000000E+00 0. -1.
        -12    1    6    6    0    0 -0.46050518002E+02 -0.10398628306E+02  0.26425271830E+02  0.54102464548E+02  0.00000000000E+00 0.  1.
</event>
<event>
12    1  0.8526130E-002  0.1969610E+03  0.7818608E-02  0.1152925E+00
         21   -1    0    0  501  502  0.00000000000E+00  0.00000000000E+00  0.37230059938E+02  0.37230059938E+02  0.00000000000E+00 0.  1.
         21   -1    0    0  502  503 -0.00000000000E+00 -0.00000000000E+00 -0.10415362137E+04  0.10415362137E+04  0.00000000000E+00 0.  1.
         -6    2    1    2    0  503 -0.78327319543E+02  0.46282062806E+02 -0.56827904766E+03  0.60144384854E+03  0.17468952061E+03 0.  0.
        -24    2    3    3    0    0 -0.10738508133E+03  0.68716146511E+02 -0.51532960468E+03  0.53684218337E+03  0.79884065346E+02 0.  0.
          6    2    1    2  501    0  0.78327319543E+02 -0.46282062806E+02 -0.43602710612E+03  0.47732242512E+03  0.17158048235E+03 0.  0.
         24    2    5    5    0    0  0.27959670172E+02 -0.73628263899E+02 -0.15772156535E+03  0.19313801520E+03  0.78888125452E+02 0.  0.
          5    1    5    5  501    0  0.50367649371E+02  0.27346201093E+02 -0.27830554077E+03  0.28418440992E+03  0.47000000000E+01 0. -1.
        -11    1    6    6    0    0  0.43191230703E+02 -0.20110172449E+02 -0.37387630070E+02  0.60561838874E+02  0.00000000000E+00 0.  1.
         12    1    6    6    0    0 -0.15231560531E+02 -0.53518091450E+02 -0.12033393528E+03  0.13257617633E+03  0.00000000000E+00 0. -1.
         -5    1    3    3    0  503  0.29057761783E+02 -0.22434083705E+02 -0.52949442973E+02  0.64601665170E+02  0.47000000000E+01 0.  1.
         11    1    4    4    0    0 -0.19033098926E+02  0.57738932077E+02 -0.23346947363E+03  0.24125513103E+03  0.00000000000E+00 0. -1.
        -12    1    4    4    0    0 -0.88351982400E+02  0.10977214434E+02 -0.28186013106E+03  0.29558705234E+03  0.00000000000E+00 0.  1.
</event>
<event>
12    1  0.8526130E-002  0.2025965E+03  0.7818608E-02  0.1147991E+00
         21   -1    0    0  501  502  0.00000000000E+00  0.00000000000E+00  0.15990407442E+03  0.15990407442E+03  0.00000000000E+00 0.  1.
         21   -1    0    0  502  503 -0.00000000000E+00 -0.00000000000E+00 -0.28938625683E+03  0.28938625683E+03  0.00000000000E+00 0. -1.
         -6    2    1    2    0  503 -0.94560611228E+01  0.10762311455E+03  0.13969408120E+02  0.20104908011E+03  0.16897762092E+03 0.  0.
        -24    2    3    3    0    0 -0.39223855435E+02  0.44706988734E+02  0.62767235406E+02  0.11591460758E+03  0.77196144542E+02 0.  0.
          6    2    1    2  501    0  0.94560611228E+01 -0.10762311455E+03 -0.14345159053E+03  0.24824125115E+03  0.17138613733E+03 0.  0.
         24    2    5    5    0    0 -0.46448254117E+02 -0.11342687584E+03 -0.96964728090E+02  0.17515161791E+03  0.79074865094E+02 0.  0.
          5    1    5    5  501    0  0.55904315239E+02  0.58037612899E+01 -0.46486862437E+02  0.73089633237E+02  0.47000000000E+01 0. -1.
        -11    1    6    6    0    0 -0.50256243181E+02 -0.23122436294E+02 -0.32888216115E+02  0.64358152537E+02  0.00000000000E+00 0.  1.
         12    1    6    6    0    0  0.38079890642E+01 -0.90304439544E+02 -0.64076511976E+02  0.11079346537E+03  0.00000000000E+00 0. -1.
         -5    1    3    3    0  503  0.29767794313E+02  0.62916125813E+02 -0.48797827286E+02  0.85134472533E+02  0.47000000000E+01 0.  1.
         13    1    4    4    0    0 -0.15207634264E+02  0.16344091653E+02 -0.16903167993E+02  0.28002117064E+02  0.00000000000E+00 0. -1.
        -14    1    4    4    0    0 -0.24016221172E+02  0.28362897081E+02  0.79670403399E+02  0.87912490511E+02  0.00000000000E+00 0.  1.
</event>
<event>
12    1  0.8526130E-002  0.1965800E+03  0.7818608E-02  0.1152981E+00
         21   -1    0    0  501  502  0.00000000000E+00  0.00000000000E+00  0.84481843647E+03  0.84481843647E+03  0.00000000000E+00 0. -1.
         21   -1    0    0  502  503 -0.00000000000E+00 -0.00000000000E+00 -0.15277855243E+03  0.15277855243E+03  0.00000000000E+00 0. -1.
         -6    2    1    2    0  503 -0.28865130370E+02 -0.88732224375E+02 -0.72552872416E+02  0.20813782799E+03  0.17132084739E+03 0.  0.
        -24    2    3    3    0    0  0.48334133312E+02 -0.40846476750E+02 -0.23226834292E+02  0.10465875196E+03  0.80058387598E+02 0.  0.
          6    2    1    2  501    0  0.28865130370E+02  0.88732224375E+02  0.76459275646E+03  0.78945916091E+03  0.17302335140E+03 0.  0.
         24    2    5    5    0    0  0.11579901136E+02  0.75095586200E+02  0.22565541821E+03  0.25005181798E+03  0.76368204984E+02 0.  0.
          5    1    5    5  501    0  0.17285229234E+02  0.13636638174E+02  0.53893733825E+03  0.53940734293E+03  0.47000000000E+01 0. -1.
        -11    1    6    6    0    0  0.17891404660E+02  0.51757154034E+01  0.61830127068E+01  0.19624475452E+02  0.00000000000E+00 0.  1.
         12    1    6    6    0    0 -0.63115035236E+01  0.69919870797E+02  0.21947240550E+03  0.23042734253E+03  0.00000000000E+00 0. -1.
         -5    1    3    3    0  503 -0.77199263682E+02 -0.47885747624E+02 -0.49326038124E+02  0.10347907603E+03  0.47000000000E+01 0.  1.
         11    1    4    4    0    0  0.40783771410E+02 -0.64097403583E+02 -0.93416697374E+01  0.76544496536E+02  0.00000000000E+00 0. -1.
        -12    1    4    4    0    0  0.75503619024E+01  0.23250926832E+02 -0.13885164555E+02  0.28114255425E+02  0.00000000000E+00 0.  1.
</event>
<event>
12    1  0.8526130E-002  0.1955909E+03  0.7818608E-02  0.1153536E+00
         21   -1    0    0  503  502  0.00000000000E+00  0.00000000000E+00  0.51831158217E+03  0.51831158217E+03  0.00000000000E+00 0.  1.
         21   -1    0    0  501  503 -0.00000000000E+00 -0.00000000000E+00 -0.12394644917E+03  0.12394644917E+03  0.00000000000E+00 0.  1.
          6    2    1    2  501    0  0.47662328049E+02 -0.78233747374E+02 -0.71707615898E+01  0.19561850320E+03  0.17269326052E+03 0.  0.
         24    2    3    3    0    0 -0.51553128628E+01 -0.50387163717E+02 -0.62571863022E+02  0.11403108106E+03  0.80761413352E+02 0.  0.
         -6    2    1    2    0  502 -0.47662328049E+02  0.78233747374E+02  0.40153589459E+03  0.44663952814E+03  0.17281081189E+03 0.  0.
        -24    2    5    5    0    0 -0.64282474076E+02 -0.18616983697E+01  0.15619852037E+03  0.18798140073E+03  0.82482282109E+02 0.  0.
          5    1    3    3  501    0  0.52817640912E+02 -0.27846583657E+02  0.55401101432E+02  0.81587422148E+02  0.47000000000E+01 0. -1.
        -11    1    4    4    0    0  0.91218753191E+01 -0.66298263214E+02 -0.26253571852E+02  0.71888235126E+02  0.00000000000E+00 0.  1.
         12    1    4    4    0    0 -0.14277188182E+02  0.15911099497E+02 -0.36318291170E+02  0.42142845930E+02  0.00000000000E+00 0. -1.
         -5    1    5    5    0  502  0.16620146027E+02  0.80095445744E+02  0.24533737422E+03  0.25865812740E+03  0.47000000000E+01 0.  1.
         11    1    6    6    0    0 -0.16864090240E+02  0.23015900298E+02  0.68787490258E+01  0.29350407056E+02  0.00000000000E+00 0. -1.
        -12    1    6    6    0    0 -0.47418383836E+02 -0.24877598668E+02  0.14931977134E+03  0.15863099368E+03  0.00000000000E+00 0.  1.
</event>
<event>
12    1  0.8526130E-002  0.2864031E+03  0.7818608E-02  0.1092247E+00
         21   -1    0    0  501  502  0.00000000000E+00  0.00000000000E+00  0.33934467935E+03  0.33934467935E+03  0.00000000000E+00 0.  1.
         21   -1    0    0  502  503 -0.00000000000E+00 -0.00000000000E+00 -0.24648686497E+03  0.24648686497E+03  0.00000000000E+00 0.  1.
         -6    2    1    2    0  503  0.11878796927E+03  0.19599560288E+03  0.55701471719E+01  0.28645725921E+03  0.17176110393E+03 0.  0.
        -24    2    3    3    0    0  0.68585929121E+02  0.36386120742E+02  0.35379294387E+02  0.11643929874E+03  0.79236584762E+02 0.  0.
          6    2    1    2  501    0 -0.11878796927E+03 -0.19599560288E+03  0.87287667206E+02  0.29937428511E+03  0.17170022640E+03 0.  0.
         24    2    5    5    0    0 -0.91275837715E+02 -0.19654671649E+03  0.11914114716E+03  0.25701917569E+03  0.70016808071E+02 0.  0.
          5    1    5    5  501    0 -0.27512131557E+02  0.55111360444E+00 -0.31853479953E+02  0.42355109421E+02  0.47000000000E+01 0. -1.
        -13    1    6    6    0    0 -0.74972378361E+02 -0.83716287390E+02  0.45151696909E+02  0.12111131254E+03  0.00000000000E+00 0.  1.
         14    1    6    6    0    0 -0.16303459355E+02 -0.11283042910E+03  0.73989450249E+02  0.13590786315E+03  0.00000000000E+00 0. -1.
         -5    1    3    3    0  503  0.50202040150E+02  0.15960948214E+03 -0.29809147215E+02  0.17001796047E+03  0.47000000000E+01 0.  1.
         11    1    4    4    0    0  0.40698413662E+01 -0.86051912408E+01 -0.18702570892E+02  0.20985687576E+02  0.00000000000E+00 0. -1.
        -12    1    4    4    0    0  0.64516087755E+02  0.44991311983E+02  0.54081865279E+02  0.95453611169E+02  0.00000000000E+00 0.  1.
</event>
<event>
12    1  0.8526130E-002  0.2147159E+03  0.7818608E-02  0.1138034E+00
         21   -1    0    0  501  502  0.00000000000E+00  0.00000000000E+00  0.24367490766E+03  0.24367490766E+03  0.00000000000E+00 0.  1.
         21   -1    0    0  502  503 -0.00000000000E+00 -0.00000000000E+00 -0.31177735789E+03  0.31177735789E+03  0.00000000000E+00 0.  1.
         -6    2    1    2    0  503 -0.54406949377E+01  0.12735850435E+03 -0.20871103776E+03  0.29943815644E+03  0.17278056158E+03 0.  0.
        -24    2    3    3    0    0  0.26073527882E+02  0.12868512934E+03 -0.21743030674E+03  0.26637727585E+03  0.80257232880E+02 0.  0.
          6    2    1    2  501    0  0.54406949377E+01 -0.12735850435E+03  0.14060858753E+03  0.25601410911E+03  0.17182159173E+03 0.  0.
         24    2    5    5    0    0  0.44054103947E+02 -0.15748000131E+02  0.38993829273E+02  0.10014381334E+03  0.79495289464E+02 0.  0.
          5    1    5    5  501    0 -0.38613409010E+02 -0.11161050422E+03  0.10161475826E+03  0.15587029577E+03  0.47000000000E+01 0. -1.
        -11    1    6    6    0    0  0.59499915971E+02 -0.67535664463E+01  0.30008038169E+01  0.59957113705E+02  0.00000000000E+00 0.  1.
         12    1    6    6    0    0 -0.15445812024E+02 -0.89944336844E+01  0.35993025456E+02  0.40186699639E+02  0.00000000000E+00 0. -1.
         -5    1    3    3    0  503 -0.31514222820E+02 -0.13266249917E+01  0.87192689830E+01  0.33060880590E+02  0.47000000000E+01 0.  1.
         13    1    4    4    0    0  0.43868114850E+02  0.31515039935E+02 -0.62202771137E+02  0.82382000338E+02  0.00000000000E+00 0. -1.
        -14    1    4    4    0    0 -0.17794586968E+02  0.97170089403E+02 -0.15522753561E+03  0.18399527551E+03  0.00000000000E+00 0.  1.
</event>
<event>
12    1  0.8526130E-002  0.1974390E+03  0.7818608E-02  0.1152691E+00
         21   -1    0    0  501  502  0.00000000000E+00  0.00000000000E+00  0.59332397768E+02  0.59332397768E+02  0.00000000000E+00 0.  1.
         21   -1    0    0  502  503 -0.00000000000E+00 -0.00000000000E+00 -0.82145077719E+03  0.82145077719E+03  0.00000000000E+00 0. -1.
         -6    2    1    2    0  503 -0.52388439837E+02  0.74099535680E+02 -0.58777592334E+03  0.62005054278E+03  0.17534779646E+03 0.  0.
        -24    2    3    3    0    0 -0.37772421880E+02  0.11909056576E+03 -0.47569408786E+03  0.49830388528E+03  0.80078574829E+02 0.  0.
          6    2    1    2  501    0  0.52388439837E+02 -0.74099535680E+02 -0.17434245608E+03  0.26073263218E+03  0.17132111275E+03 0.  0.
         24    2    5    5    0    0  0.68133528878E+02 -0.82516169558E+02 -0.19283949030E+03  0.23459878765E+03  0.79990162851E+02 0.  0.
          5    1    5    5  501    0 -0.15745089041E+02  0.84166338778E+01  0.18497034221E+02  0.26133844526E+02  0.47000000000E+01 0. -1.
        -11    1    6    6    0    0  0.55549840072E+02 -0.59950765871E+01 -0.86817216598E+02  0.10324221410E+03  0.00000000000E+00 0.  1.
         12    1    6    6    0    0  0.12583688806E+02 -0.76521092971E+02 -0.10602227370E+03  0.13135657355E+03  0.00000000000E+00 0. -1.
         -5    1    3    3    0  503 -0.14616017957E+02 -0.44991030081E+02 -0.11208183548E+03  0.12174665750E+03  0.47000000000E+01 0.  1.
         13    1    4    4    0    0  0.14778089657E+02 -0.33466803230E+01 -0.47105566692E+02  0.49482589023E+02  0.00000000000E+00 0. -1.
        -14    1    4    4    0    0 -0.52550511537E+02  0.12243724608E+03 -0.42858852117E+03  0.44882129626E+03  0.00000000000E+00 0.  1.
</event>
<event>
12    1  0.8526130E-002  0.1935548E+03  0.7818608E-02  0.1155751E+00
         21   -1    0    0  501  502  0.00000000000E+00  0.00000000000E+00  0.13063796312E+03  0.13063796312E+03  0.00000000000E+00 0. -1.
         21   -1    0    0  502  503 -0.00000000000E+00 -0.00000000000E+00 -0.33082314855E+03  0.33082314855E+03  0.00000000000E+00 0. -1.
         -6    2    1    2    0  503  0.75601706792E+02  0.39558649116E+02 -0.18761213464E+03  0.26955846378E+03  0.17373240212E+03 0.  0.
        -24    2    3    3    0    0  0.22208969677E+02  0.87896172013E+02 -0.10332006648E+03  0.15858755205E+03  0.79094880619E+02 0.  0.
          6    2    1    2  501    0 -0.75601706792E+02 -0.39558649116E+02 -0.12573050797E+02  0.19190264789E+03  0.17142940200E+03 0.  0.
         24    2    5    5    0    0 -0.81287287883E+02  0.32424784609E+02 -0.18369157798E+02  0.11931046222E+03  0.78984622611E+02 0.  0.
          5    1    5    5  501    0  0.56855810914E+01 -0.71983433724E+02  0.57961070011E+01  0.72592185664E+02  0.47000000000E+01 0. -1.
        -11    1    6    6    0    0 -0.30746592014E+02  0.54388306625E+02 -0.14027581470E+02  0.64032912318E+02  0.00000000000E+00 0.  1.
         12    1    6    6    0    0 -0.50540695869E+02 -0.21963522017E+02 -0.43415763284E+01  0.55277549904E+02  0.00000000000E+00 0. -1.
         -5    1    3    3    0  503  0.53392737115E+02 -0.48337522897E+02 -0.84292068156E+02  0.11097091173E+03  0.47000000000E+01 0.  1.
         13    1    4    4    0    0 -0.11827989428E+02  0.18327176745E+02  0.77782419762E+01  0.23157888280E+02  0.00000000000E+00 0. -1.
        -14    1    4    4    0    0  0.34036959106E+02  0.69568995267E+02 -0.11109830846E+03  0.13542966377E+03  0.00000000000E+00 0.  1.
</event>
<event>
12    1  0.8526130E-002  0.1751193E+03  0.7818608E-02  0.1174353E+00
         21   -1    0    0  503  502  0.00000000000E+00  0.00000000000E+00  0.13930803976E+03  0.13930803976E+03  0.00000000000E+00 0.  1.
         21   -1    0    0  501  503 -0.00000000000E+00 -0.00000000000E+00 -0.30484410069E+03  0.30484410069E+03  0.00000000000E+00 0.  1.
          6    2    1    2  501    0 -0.23727511526E+02 -0.26378670838E+01 -0.20438512959E+03  0.26477535565E+03  0.16662159109E+03 0.  0.
         24    2    3    3    0    0  0.25088231111E+02  0.29306114792E+02 -0.49294448461E+02  0.99008639813E+02  0.76710497353E+02 0.  0.
         -6    2    1    2    0  502  0.23727511526E+02  0.26378670838E+01  0.38849068657E+02  0.17937678479E+03  0.17348437290E+03 0.  0.
        -24    2    5    5    0    0  0.12927675292E+02 -0.54192487442E+02  0.64094151455E+02  0.11608594925E+03  0.79145036984E+02 0.  0.
          5    1    3    3  501    0 -0.48815742637E+02 -0.31943981875E+02 -0.15509068112E+03  0.16576671584E+03  0.47000000000E+01 0. -1.
        -11    1    4    4    0    0 -0.26034245191E+02 -0.16526916855E+01 -0.15753029535E+02  0.30474107895E+02  0.00000000000E+00 0.  1.
         12    1    4    4    0    0  0.51122476301E+02  0.30958806477E+02 -0.33541418927E+02  0.68534531919E+02  0.00000000000E+00 0. -1.
         -5    1    5    5    0  502  0.10799836234E+02  0.56830354525E+02 -0.25245082798E+02  0.63290835542E+02  0.47000000000E+01 0.  1.
         13    1    6    6    0    0 -0.21037912684E+02  0.10607222529E+02  0.17464576712E+02  0.29327774884E+02  0.00000000000E+00 0. -1.
        -14    1    6    6    0    0  0.33965587976E+02 -0.64799709971E+02  0.46629574743E+02  0.86758174367E+02  0.00000000000E+00 0.  1.
</event>
<event>
12    1  0.8526130E-002  0.2130830E+03  0.7818608E-02  0.1139300E+00
         21   -1    0    0  503  502  0.00000000000E+00  0.00000000000E+00  0.87930269585E+03  0.87930269585E+03  0.00000000000E+00 0.  1.
         21   -1    0    0  501  503 -0.00000000000E+00 -0.00000000000E+00 -0.10602245176E+03  0.10602245176E+03  0.00000000000E+00 0.  1.
          6    2    1    2  501    0 -0.11835429369E+03 -0.38533933575E+02  0.32828324062E+02  0.21482309895E+03  0.17198448218E+03 0.  0.
         24    2    3    3    0    0 -0.92807952621E+02 -0.87098420890E+02 -0.61128766726E+00  0.15039156472E+03  0.80111160749E+02 0.  0.
         -6    2    1    2    0  502  0.11835429369E+03  0.38533933575E+02  0.74045192002E+03  0.77050204866E+03  0.17295016119E+03 0.  0.
        -24    2    5    5    0    0  0.56738198205E+02 -0.21563289267E+02  0.57813286170E+03  0.58671470930E+03  0.79450272167E+02 0.  0.
          5    1    3    3  501    0 -0.25546341070E+02  0.48564487315E+02  0.33439611729E+02  0.64431534227E+02  0.47000000000E+01 0. -1.
        -11    1    4    4    0    0 -0.10233899897E+03 -0.93291874928E+02  0.28517604362E+01  0.13850912308E+03  0.00000000000E+00 0.  1.
         12    1    4    4    0    0  0.95310463474E+01  0.61934540379E+01 -0.34630481034E+01  0.11882441650E+02  0.00000000000E+00 0. -1.
         -5    1    5    5    0  502  0.61616095485E+02  0.60097222842E+02  0.16231905832E+03  0.18378733937E+03  0.47000000000E+01 0.  1.
         13    1    6    6    0    0 -0.47768773367E+01 -0.14748637755E+02  0.34977239469E+03  0.35011579364E+03  0.00000000000E+00 0. -1.
        -14    1    6    6    0    0  0.61515075542E+02 -0.68146515118E+01  0.22836046701E+03  0.23659891565E+03  0.00000000000E+00 0.  1.
</event>
<event>
12    1  0.8526130E-002  0.1719357E+03  0.7818608E-02  0.1175943E+00
         21   -1    0    0  501  502  0.00000000000E+00  0.00000000000E+00  0.49936511846E+03  0.49936511846E+03  0.00000000000E+00 0. -1.
         21   -1    0    0  502  503 -0.00000000000E+00 -0.00000000000E+00 -0.12731132189E+03  0.12731132189E+03  0.00000000000E+00 0. -1.
         -6    2    1    2    0  503  0.21945799184E+02  0.18162922968E+02 -0.43480950707E+02  0.17697540260E+03  0.16916911710E+03 0.  0.
        -24    2    3    3    0    0  0.60982410604E+02 -0.28760570284E+02 -0.51126144723E+01  0.10472659309E+03  0.79971842971E+02 0.  0.
          6    2    1    2  501    0 -0.21945799184E+02 -0.18162922968E+02  0.41553474727E+03  0.44970103775E+03  0.16955939163E+03 0.  0.
         24    2    5    5    0    0  0.48490049590E+02 -0.32913898517E+02  0.27095868520E+03  0.28813641353E+03  0.78545363299E+02 0.  0.
          5    1    5    5  501    0 -0.70435848774E+02  0.14750975549E+02  0.14457606207E+03  0.16156462421E+03  0.47000000000E+01 0. -1.
        -13    1    6    6    0    0 -0.10291020390E+02  0.52553435073E+01  0.41530164532E+01  0.12278895785E+02  0.00000000000E+00 0.  1.
         14    1    6    6    0    0  0.58781069980E+02 -0.38169242024E+02  0.26680566874E+03  0.27585751775E+03  0.00000000000E+00 0. -1.
         -5    1    3    3    0  503 -0.39036611420E+02  0.46923493251E+02 -0.38368336235E+02  0.72248809509E+02  0.47000000000E+01 0.  1.
         11    1    4    4    0    0  0.30688507429E+02 -0.38570974115E+02  0.29700698670E+02  0.57546816018E+02  0.00000000000E+00 0. -1.
        -12    1    4    4    0    0  0.30293903175E+02  0.98104038314E+01 -0.34813313142E+02  0.47179777075E+02  0.00000000000E+00 0.  1.
</event>
<event>
12    1  0.8526130E-002  0.1835721E+03  0.7818608E-02  0.1164782E+00
         21   -1    0    0  501  502  0.00000000000E+00  0.00000000000E+00  0.11543704172E+04  0.11543704172E+04  0.00000000000E+00 0. -1.
         21   -1    0    0  502  503 -0.00000000000E+00 -0.00000000000E+00 -0.37825646662E+02  0.37825646662E+02  0.00000000000E+00 0. -1.
         -6    2    1    2    0  503  0.60057412374E+02  0.13125048447E+01  0.26726036354E+03  0.32329865076E+03  0.17171284232E+03 0.  0.
        -24    2    3    3    0    0  0.57445666968E+02 -0.26794253194E+02  0.67490723648E+02  0.12148980536E+03  0.78656457903E+02 0.  0.
          6    2    1    2  501    0 -0.60057412374E+02 -0.13125048447E+01  0.84928440705E+03  0.86889741315E+03  0.17346496785E+03 0.  0.
         24    2    5    5    0    0 -0.90014834335E+02 -0.35961745198E+02  0.64779313181E+03  0.66221204602E+03  0.97431692777E+02 0.  0.
          5    1    5    5  501    0  0.29957421961E+02  0.34649240354E+02  0.20149127523E+03  0.20668536712E+03  0.47000000000E+01 0. -1.
        -13    1    6    6    0    0 -0.27203912811E+02 -0.55939218124E+02  0.19592858344E+03  0.20556570435E+03  0.00000000000E+00 0.  1.
         14    1    6    6    0    0 -0.62810921524E+02  0.19977472925E+02  0.45186454837E+03  0.45664634167E+03  0.00000000000E+00 0. -1.
         -5    1    3    3    0  503  0.26117454064E+01  0.28106758038E+02  0.19976963989E+03  0.20180884541E+03  0.47000000000E+01 0.  1.
         13    1    4    4    0    0  0.61841545193E+02 -0.94403237947E+01  0.78573007912E+02  0.10043512333E+03  0.00000000000E+00 0. -1.
        -14    1    4    4    0    0 -0.43958782249E+01 -0.17353929399E+02 -0.11082284264E+02  0.21054682032E+02  0.00000000000E+00 0.  1.
</event>
<event>
12    1  0.8526130E-002  0.2446282E+03  0.7818608E-02  0.1117010E+00
         21   -1    0    0  503  502  0.00000000000E+00  0.00000000000E+00  0.18628408521E+03  0.18628408521E+03  0.00000000000E+00 0. -1.
         21   -1    0    0  501  503 -0.00000000000E+00 -0.00000000000E+00 -0.36222148498E+03  0.36222148498E+03  0.00000000000E+00 0.  1.
          6    2    1    2  501    0 -0.27765417618E+02  0.16966191086E+03 -0.18229660231E+03  0.30379475610E+03  0.17176472341E+03 0.  0.
         24    2    3    3    0    0 -0.21093798793E+02  0.14633577621E+03 -0.21209705466E+03  0.26508072743E+03  0.58510885404E+02 0.  0.
         -6    2    1    2    0  502  0.27765417618E+02 -0.16966191086E+03  0.63592025442E+01  0.24471081409E+03  0.17403120600E+03 0.  0.
        -24    2    5    5    0    0 -0.45526071607E+02 -0.56791171773E+02 -0.13408864306E+02  0.10860676344E+03  0.79484407506E+02 0.  0.
          5    1    3    3  501    0 -0.66716188252E+01  0.23326134647E+02  0.29800452353E+02  0.38714028668E+02  0.47000000000E+01 0. -1.
        -13    1    4    4    0    0 -0.31379488409E+01  0.74180441536E+02 -0.15313277193E+03  0.17018293237E+03  0.00000000000E+00 0.  1.
         14    1    4    4    0    0 -0.17955849952E+02  0.72155334679E+02 -0.58964282733E+02  0.94897795065E+02  0.00000000000E+00 0. -1.
         -5    1    5    5    0  502  0.73291489224E+02 -0.11287073909E+03  0.19768066850E+02  0.13610405065E+03  0.47000000000E+01 0.  1.
         11    1    6    6    0    0 -0.37620428651E+02 -0.63721702889E+02  0.17431419084E+02  0.76023722891E+02  0.00000000000E+00 0. -1.
        -12    1    6    6    0    0 -0.79056429560E+01  0.69305311160E+01 -0.30840283390E+02  0.32583040553E+02  0.00000000000E+00 0.  1.
</event>
<event>
12    1  0.8526130E-002  0.1924634E+03  0.7818608E-02  0.1156344E+00
         21   -1    0    0  503  502  0.00000000000E+00  0.00000000000E+00  0.39159228327E+03  0.39159228327E+03  0.00000000000E+00 0.  1.
         21   -1    0    0  501  503 -0.00000000000E+00 -0.00000000000E+00 -0.49429408037E+03  0.49429408037E+03  0.00000000000E+00 0.  1.
          6    2    1    2  501    0 -0.60423805822E+02  0.60694177981E+02 -0.44976709253E+03  0.48921629280E+03  0.17235812734E+03 0.  0.
         24    2    3    3    0    0  0.58928084891E+00  0.88522696181E+02 -0.22967888870E+03  0.25909039108E+03  0.80862994307E+02 0.  0.
         -6    2    1    2    0  502  0.60423805822E+02 -0.60694177981E+02  0.34706529543E+03  0.39667007084E+03  0.17192442018E+03 0.  0.
        -24    2    5    5    0    0  0.87213602286E+02 -0.29698255044E+01  0.16748196013E+03  0.20608660255E+03  0.82501203003E+02 0.  0.
          5    1    3    3  501    0 -0.61013086671E+02 -0.27828518199E+02 -0.22008820384E+03  0.23012590171E+03  0.47000000000E+01 0. -1.
        -11    1    4    4    0    0 -0.16620289805E+02  0.22545337810E+02 -0.11109085783E+02  0.30132010837E+02  0.00000000000E+00 0.  1.
         12    1    4    4    0    0  0.17209570654E+02  0.65977358371E+02 -0.21856980291E+03  0.22895838025E+03  0.00000000000E+00 0. -1.
         -5    1    5    5    0  502 -0.26789796464E+02 -0.57724352477E+02  0.17958333531E+03  0.19058346829E+03  0.47000000000E+01 0.  1.
         11    1    6    6    0    0  0.54119377932E+02  0.64977688064E+01  0.16238521262E+03  0.17128947821E+03  0.00000000000E+00 0. -1.
        -12    1    6    6    0    0  0.33094224354E+02 -0.94675943108E+01  0.50967475077E+01  0.34797124346E+02  0.00000000000E+00 0.  1.
</event>
<event>
12    1  0.8526130E-002  0.2561218E+03  0.7818608E-02  0.1109691E+00
         21   -1    0    0  501  502  0.00000000000E+00  0.00000000000E+00  0.36192752232E+03  0.36192752232E+03  0.00000000000E+00 0.  1.
         21   -1    0    0  502  503 -0.00000000000E+00 -0.00000000000E+00 -0.26097098082E+03  0.26097098082E+03  0.00000000000E+00 0. -1.
         -6    2    1    2    0  503  0.15604957606E+03 -0.10705050341E+03 -0.12271458365E+03  0.28285861685E+03  0.17070104751E+03 0.  0.
        -24    2    3    3    0    0  0.15205935968E+03 -0.62142413209E+02 -0.14453727424E+03  0.23254978843E+03  0.78769613863E+02 0.  0.
          6    2    1    2  501    0 -0.15604957606E+03  0.10705050341E+03  0.22367112515E+03  0.34003988628E+03  0.17258931475E+03 0.  0.
         24    2    5    5    0    0 -0.26647023540E+02  0.88080080483E+02  0.13278539296E+03  0.18070626189E+03  0.80960657492E+02 0.  0.
          5    1    5    5  501    0 -0.12940255253E+03  0.18970422924E+02  0.90885732192E+02  0.15933362439E+03  0.47000000000E+01 0. -1.
        -11    1    6    6    0    0 -0.15078935881E+01  0.42602940838E+02  0.11978103893E+03  0.12714079439E+03  0.00000000000E+00 0.  1.
         12    1    6    6    0    0 -0.25139129951E+02  0.45477139645E+02  0.13004354033E+02  0.53565467503E+02  0.00000000000E+00 0. -1.
         -5    1    3    3    0  503  0.39902163814E+01 -0.44908090198E+02  0.21822690599E+02  0.50308828420E+02  0.47000000000E+01 0.  1.
         13    1    4    4    0    0  0.38073264804E+01 -0.11549504730E+02 -0.45786942327E+02  0.47374369463E+02  0.00000000000E+00 0. -1.
        -14    1    4    4    0    0  0.14825203320E+03 -0.50592908479E+02 -0.98750331918E+02  0.18517541897E+03  0.00000000000E+00 0.  1.
</event>
<event>
12    1  0.8526130E-002  0.1980754E+03  0.7818608E-02  0.1151753E+00
         21   -1    0    0  501  502  0.00000000000E+00  0.00000000000E+00  0.15007280345E+03  0.15007280345E+03  0.00000000000E+00 0. -1.
         21   -1    0    0  502  503 -0.00000000000E+00 -0.00000000000E+00 -0.26595608674E+03  0.26595608674E+03  0.00000000000E+00 0. -1.
         -6    2    1    2    0  503 -0.97190908407E+02  0.19349748416E+01 -0.24293662209E+02  0.19780304341E+03  0.17054631381E+03 0.  0.
        -24    2    3    3    0    0 -0.10377083635E+03  0.53653516444E+02 -0.49171448925E+01  0.14198510346E+03  0.80551256889E+02 0.  0.
          6    2    1    2  501    0  0.97190908407E+02 -0.19349748416E+01 -0.91589621088E+02  0.21822584678E+03  0.17258054556E+03 0.  0.
         24    2    5    5    0    0  0.98143019411E+02  0.49884612719E+02 -0.94906333567E+02  0.16607925771E+03  0.80340406045E+02 0.  0.
          5    1    5    5  501    0 -0.95211100398E+00 -0.51819587560E+02  0.33167124793E+01  0.52146589073E+02  0.47000000000E+01 0. -1.
        -13    1    6    6    0    0  0.11096505379E+01  0.26121781858E+02 -0.50264784525E+02  0.56657985978E+02  0.00000000000E+00 0.  1.
         14    1    6    6    0    0  0.97033368873E+02  0.23762830861E+02 -0.44641549042E+02  0.10942127173E+03  0.00000000000E+00 0. -1.
         -5    1    3    3    0  503  0.65799279446E+01 -0.51718541602E+02 -0.19376517316E+02  0.55817939952E+02  0.47000000000E+01 0.  1.
         11    1    4    4    0    0 -0.87974188560E+02  0.58477060285E+02 -0.31900616813E+02  0.11034796684E+03  0.00000000000E+00 0. -1.
        -12    1    4    4    0    0 -0.15796647792E+02 -0.48235438416E+01  0.26983471920E+02  0.31637136620E+02  0.00000000000E+00 0.  1.
</event>
<event>
12    1  0.8526130E-002  0.2536028E+03  0.7818608E-02  0.1111675E+00
         21   -1    0    0  501  502  0.00000000000E+00  0.00000000000E+00  0.10718550370E+04  0.10718550370E+04  0.00000000000E+00 0.  1.
         21   -1    0    0  502  503 -0.00000000000E+00 -0.00000000000E+00 -0.62414645605E+02  0.62414645605E+02  0.00000000000E+00 0. -1.
         -6    2    1    2    0  503  0.89267428399E+02  0.16385240436E+03  0.63998754536E+03  0.68840281544E+03  0.17175009144E+03 0.  0.
        -24    2    3    3    0    0  0.67634601434E+02  0.17633005733E+03  0.41726115231E+03  0.46423143639E+03  0.75744497347E+02 0.  0.
          6    2    1    2  501    0 -0.89267428399E+02 -0.16385240436E+03  0.36945284605E+03  0.44586686718E+03  0.16578773658E+03 0.  0.
         24    2    5    5    0    0 -0.44990434032E+02 -0.26599496540E+02  0.84993168703E+02  0.12690258865E+03  0.78414003280E+02 0.  0.
          5    1    5    5  501    0 -0.44276994367E+02 -0.13725290782E+03  0.28445967735E+03  0.31896427852E+03  0.47000000000E+01 0. -1.
        -11    1    6    6    0    0 -0.24335521733E+02  0.90887492392E+01  0.81477644512E+02  0.85518591756E+02  0.00000000000E+00 0.  1.
         12    1    6    6    0    0 -0.20654912299E+02 -0.35688245779E+02  0.35155241905E+01  0.41383996898E+02  0.00000000000E+00 0. -1.
         -5    1    3    3    0  503  0.21632826965E+02 -0.12477652965E+02  0.22272639305E+03  0.22417137905E+03  0.47000000000E+01 0.  1.
         11    1    4    4    0    0  0.12465956256E+02  0.89867567489E+02  0.12469975491E+03  0.15421286790E+03  0.00000000000E+00 0. -1.
        -12    1    4    4    0    0  0.55168645178E+02  0.86462489839E+02  0.29256139740E+03  0.31001856849E+03  0.00000000000E+00 0.  1.
</event>
<event>
12    1  0.8526130E-002  0.1831253E+03  0.7818608E-02  0.1164903E+00
         21   -1    0    0  503  502  0.00000000000E+00  0.00000000000E+00  0.56957481694E+02  0.56957481694E+02  0.00000000000E+00 0. -1.
         21   -1    0    0  501  503 -0.00000000000E+00 -0.00000000000E+00 -0.74449439744E+03  0.74449439744E+03  0.00000000000E+00 0. -1.
          6    2    1    2  501    0  0.73498602098E+01  0.63026415310E+02 -0.52748046309E+03  0.55823810862E+03  0.17137035188E+03 0.  0.
         24    2    3    3    0    0  0.60234932204E+02  0.60764394906E+02 -0.25459293871E+03  0.28022437058E+03  0.79922304028E+02 0.  0.
         -6    2    1    2    0  502 -0.73498602098E+01 -0.63026415310E+02 -0.16005645266E+03  0.24321377051E+03  0.17178044318E+03 0.  0.
        -24    2    5    5    0    0 -0.15919707225E+01 -0.10900891232E+03 -0.10538414791E+03  0.17138972003E+03  0.79894556529E+02 0.  0.
          5    1    3    3  501    0 -0.52885071994E+02  0.22620204040E+01 -0.27288752439E+03  0.27801373804E+03  0.47000000000E+01 0. -1.
        -13    1    4    4    0    0  0.35294294482E+01 -0.11039974851E+02 -0.22508589122E+01  0.11806959083E+02  0.00000000000E+00 0.  1.
         14    1    4    4    0    0  0.56705502756E+02  0.71804369758E+02 -0.25234207979E+03  0.26841741150E+03  0.00000000000E+00 0. -1.
         -5    1    5    5    0  502 -0.57578894873E+01  0.45982497009E+02 -0.54672304741E+02  0.71824050486E+02  0.47000000000E+01 0.  1.
         13    1    6    6    0    0  0.32441246838E+01 -0.66997371169E+02 -0.11001226649E+03  0.12884824743E+03  0.00000000000E+00 0. -1.
        -14    1    6    6    0    0 -0.48360954063E+01 -0.42011541151E+02  0.46281185766E+01  0.42541472591E+02  0.00000000000E+00 0.  1.
</event>
<event>
12    1  0.8526130E-002  0.2015646E+03  0.7818608E-02  0.1148615E+00
         21   -1    0    0  501  502  0.00000000000E+00  0.00000000000E+00  0.16690458085E+03  0.16690458085E+03  0.00000000000E+00 0. -1.
         21   -1    0    0  502  503 -0.00000000000E+00 -0.00000000000E+00 -0.24546959847E+03  0.24546959847E+03  0.00000000000E+00 0.  1.
         -6    2    1    2    0  503 -0.88181110468E+02 -0.56703128459E+02 -0.16059224216E+02  0.20220333732E+03  0.17215440140E+03 0.  0.
        -24    2    3    3    0    0 -0.52374900736E+02  0.25580600526E+02  0.27505923009E+02  0.10233988673E+03  0.79494523490E+02 0.  0.
          6    2    1    2  501    0  0.88181110468E+02  0.56703128459E+02 -0.62505793403E+02  0.21017084200E+03  0.17109545755E+03 0.  0.
         24    2    5    5    0    0  0.73574479022E+02 -0.85407227152E+01 -0.86912261571E+02  0.13884146876E+03  0.78975086751E+02 0.  0.
          5    1    5    5  501    0  0.14606631446E+02  0.65243851174E+02  0.24406468168E+02  0.71329373239E+02  0.47000000000E+01 0. -1.
        -13    1    6    6    0    0  0.41223012958E+02  0.34588423561E+02 -0.50390274788E+02  0.73721609009E+02  0.00000000000E+00 0.  1.
         14    1    6    6    0    0  0.32351466064E+02 -0.43129146276E+02 -0.36521986782E+02  0.65119859747E+02  0.00000000000E+00 0. -1.
         -5    1    3    3    0  503 -0.35806209732E+02 -0.82283728985E+02 -0.43565147225E+02  0.99863450591E+02  0.47000000000E+01 0.  1.
         13    1    4    4    0    0  0.60638275724E+01 -0.22140163596E+02  0.89918367660E+01  0.24653802492E+02  0.00000000000E+00 0. -1.
        -14    1    4    4    0    0 -0.58438728308E+02  0.47720764123E+02  0.18514086243E+02  0.77686084237E+02  0.00000000000E+00 0.  1.
</event>
<event>
12    1  0.8526130E-002  0.2088830E+03  0.7818608E-02  0.1142516E+00
         21   -1    0    0  503  502  0.00000000000E+00  0.00000000000E+00  0.10683059765E+03  0.10683059765E+03  0.00000000000E+00 0.  1.
         21   -1    0    0  501  503 -0.00000000000E+00 -0.00000000000E+00 -0.49309323878E+03  0.49309323878E+03  0.00000000000E+00 0. -1.
          6    2    1    2  501    0  0.55844323955E+02  0.10585346487E+03 -0.31799815938E+03  0.38046673207E+03  0.17119743077E+03 0.  0.
         24    2    3    3    0    0  0.52152796388E+02  0.10220373158E+02 -0.81789326887E+02  0.12556279300E+03  0.79070543159E+02 0.  0.
         -6    2    1    2    0  502 -0.55844323955E+02 -0.10585346487E+03 -0.68264481747E+02  0.21945710436E+03  0.17081521197E+03 0.  0.
        -24    2    5    5    0    0 -0.31160753202E+02 -0.14665688553E+02  0.20046347478E+02  0.90053156296E+02  0.80756671246E+02 0.  0.
          5    1    3    3  501    0  0.36915275672E+01  0.95633091715E+02 -0.23620883249E+03  0.25490393907E+03  0.47000000000E+01 0. -1.
        -11    1    4    4    0    0  0.45715169003E+02  0.41479321290E+01 -0.97368117402E+02  0.10764586524E+03  0.00000000000E+00 0.  1.
         12    1    4    4    0    0  0.64376273849E+01  0.60724410289E+01  0.15578790515E+02  0.17916927758E+02  0.00000000000E+00 0. -1.
         -5    1    5    5    0  502 -0.24683570753E+02 -0.91187776319E+02 -0.88310829225E+02  0.12940394806E+03  0.47000000000E+01 0.  1.
         13    1    6    6    0    0  0.19573848256E+02 -0.13812904492E+02 -0.15108559619E+02  0.28323143184E+02  0.00000000000E+00 0. -1.
        -14    1    6    6    0    0 -0.50734601458E+02 -0.85278406103E+00  0.35154907097E+02  0.61730013112E+02  0.00000000000E+00 0.  1.
</event>
<event>
12    1  0.8526130E-002  0.2626270E+03  0.7818608E-02  0.1105666E+00
         21   -1    0    0  503  502  0.00000000000E+00  0.00000000000E+00  0.19809428459E+03  0.19809428459E+03  0.00000000000E+00 0. -1.
         21   -1    0    0  501  503 -0.00000000000E+00 -0.00000000000E+00 -0.34904592201E+03  0.34904592201E+03  0.00000000000E+00 0.  1.
          6    2    1    2  501    0 -0.94684886133E+02  0.17323219356E+03 -0.94322452668E+02  0.27847716976E+03  0.17227358606E+03 0.  0.
         24    2    3    3    0    0 -0.62060087714E+02  0.19528779103E+03 -0.64979581389E+02  0.22914238542E+03  0.79341735475E+02 0.  0.
         -6    2    1    2    0  502  0.94684886133E+02 -0.17323219356E+03 -0.56629184755E+02  0.26866303684E+03  0.17320029517E+03 0.  0.
        -24    2    5    5    0    0  0.12962907015E+03 -0.15822061115E+03 -0.28352352627E+02  0.22103832856E+03  0.78845603395E+02 0.  0.
          5    1    3    3  501    0 -0.32624798419E+02 -0.22055597463E+02 -0.29342871279E+02  0.49334784344E+02  0.47000000000E+01 0. -1.
        -13    1    4    4    0    0 -0.79483975688E+02  0.17548891627E+03 -0.50971286368E+02  0.19927903593E+03  0.00000000000E+00 0.  1.
         14    1    4    4    0    0  0.17423887975E+02  0.19798874753E+02 -0.14008295021E+02  0.29863349495E+02  0.00000000000E+00 0. -1.
         -5    1    5    5    0  502 -0.34944184016E+02 -0.15011582415E+02 -0.28276832127E+02  0.47624708275E+02  0.47000000000E+01 0.  1.
         11    1    6    6    0    0  0.20806472309E+02  0.64884241711E+01 -0.33052848089E+01  0.22043907228E+02  0.00000000000E+00 0. -1.
        -12    1    6    6    0    0  0.10882259784E+03 -0.16470903532E+03 -0.25047067819E+02  0.19899442134E+03  0.00000000000E+00 0.  1.
</event>
<event>
12    1  0.8526130E-002  0.2285240E+03  0.7818608E-02  0.1127736E+00
         21   -1    0    0  501  502  0.00000000000E+00  0.00000000000E+00  0.80868781708E+02  0.80868781708E+02  0.00000000000E+00 0.  1.
         21   -1    0    0  502  503 -0.00000000000E+00 -0.00000000000E+00 -0.15126725928E+04  0.15126725928E+04  0.00000000000E+00 0. -1.
         -6    2    1    2    0  503 -0.11187194801E+03 -0.10013644725E+03 -0.13195735811E+04  0.13392153121E+04  0.17228051312E+03 0.  0.
        -24    2    3    3    0    0 -0.17266571452E+02 -0.10928108347E+01 -0.33282099920E+03  0.34299115699E+03  0.81078897001E+02 0.  0.
          6    2    1    2  501    0  0.11187194801E+03  0.10013644725E+03 -0.11223022998E+03  0.25432606247E+03  0.17188217101E+03 0.  0.
         24    2    5    5    0    0  0.76998319641E+02  0.93290464624E+01 -0.53005472394E+01  0.10969480359E+03  0.77389158148E+02 0.  0.
          5    1    5    5  501    0  0.34873628369E+02  0.90807400790E+02 -0.10692968274E+03  0.14463125888E+03  0.47000000000E+01 0. -1.
        -11    1    6    6    0    0  0.37106415949E+02  0.43054623803E+02  0.24194366240E+01  0.56889721470E+02  0.00000000000E+00 0.  1.
         12    1    6    6    0    0  0.39891903693E+02 -0.33725577341E+02 -0.77199838635E+01  0.52805082123E+02  0.00000000000E+00 0. -1.
         -5    1    3    3    0  503 -0.94605376559E+02 -0.99043636418E+02 -0.98675258194E+03  0.99622415507E+03  0.47000000000E+01 0.  1.
         11    1    4    4    0    0 -0.13437193911E+02 -0.26130413106E+02 -0.30047483400E+03  0.30190806968E+03  0.00000000000E+00 0. -1.
        -12    1    4    4    0    0 -0.38293775407E+01  0.25037602271E+02 -0.32346165200E+02  0.41083087310E+02  0.00000000000E+00 0.  1.
</event>
<event>
12    1  0.8526130E-002  0.2019079E+03  0.7818608E-02  0.1148316E+00
         21   -1    0    0  503  502  0.00000000000E+00  0.00000000000E+00  0.35842512391E+03  0.35842512391E+03  0.00000000000E+00 0. -1.
         21   -1    0    0  501  503 -0.00000000000E+00 -0.00000000000E+00 -0.11799766371E+03  0.11799766371E+03  0.00000000000E+00 0. -1.
          6    2    1    2  501    0  0.92683097631E+02 -0.47412551633E+02  0.72741595612E+02  0.21461163178E+03  0.17299915065E+03 0.  0.
         24    2    3    3    0    0  0.98278808807E+02  0.15956593291E+02  0.73819149061E+02  0.15081342152E+03  0.85919056159E+02 0.  0.
         -6    2    1    2    0  502 -0.92683097631E+02  0.47412551633E+02  0.16768586459E+03  0.26181115584E+03  0.17201286435E+03 0.  0.
        -24    2    5    5    0    0 -0.92292118352E+02 -0.28629920367E+02  0.10498735754E+03  0.16314098204E+03  0.79089362920E+02 0.  0.
          5    1    3    3  501    0 -0.55957111759E+01 -0.63369144924E+02 -0.10775534493E+01  0.63798210268E+02  0.47000000000E+01 0. -1.
        -13    1    4    4    0    0  0.79654991705E+02 -0.25663618071E+02  0.60647342399E+02  0.10335201564E+03  0.00000000000E+00 0.  1.
         14    1    4    4    0    0  0.18623817102E+02  0.41620211362E+02  0.13171806662E+02  0.47461405879E+02  0.00000000000E+00 0. -1.
         -5    1    5    5    0  502 -0.39097927943E+00  0.76042472000E+02  0.62698507045E+02  0.98670173803E+02  0.47000000000E+01 0.  1.
         11    1    6    6    0    0 -0.21336215818E+02 -0.47291650288E+01  0.81935013050E+02  0.84799442632E+02  0.00000000000E+00 0. -1.
        -12    1    6    6    0    0 -0.70955902533E+02 -0.23900755338E+02  0.23052344493E+02  0.78341539407E+02  0.00000000000E+00 0.  1.
</event>
<event>
12    1  0.8526130E-002  0.1941281E+03  0.7818608E-02  0.1154879E+00
         21   -1    0    0  503  502  0.00000000000E+00  0.00000000000E+00  0.40242517453E+03  0.40242517453E+03  0.00000000000E+00 0. -1.
         21   -1    0    0  501  503 -0.00000000000E+00 -0.00000000000E+00 -0.39982883184E+03  0.39982883184E+03  0.00000000000E+00 0. -1.
          6    2    1    2  501    0 -0.50143219722E+02 -0.72315655039E+02 -0.34983654271E+03  0.39989263892E+03  0.17258221114E+03 0.  0.
         24    2    3    3    0    0 -0.42562076999E+02 -0.34344465595E+02 -0.34630716613E+03  0.36072847862E+03  0.84884093084E+02 0.  0.
         -6    2    1    2    0  502  0.50143219722E+02  0.72315655039E+02  0.35243288539E+03  0.40236136745E+03  0.17303709099E+03 0.  0.
        -24    2    5    5    0    0  0.50707780214E+01  0.10918543166E+03  0.26049824437E+03  0.29343490762E+03  0.79357031299E+02 0.  0.
          5    1    3    3  501    0 -0.75811427238E+01 -0.37971189444E+02 -0.35293765740E+01  0.39164160297E+02  0.47000000000E+01 0. -1.
        -13    1    4    4    0    0  0.20320962300E+02  0.11226808207E+02 -0.73079197108E+02  0.76678235382E+02  0.00000000000E+00 0.  1.
         14    1    4    4    0    0 -0.62883039299E+02 -0.45571273802E+02 -0.27322796903E+03  0.28405024324E+03  0.00000000000E+00 0. -1.
         -5    1    5    5    0  502  0.45072441701E+02 -0.36869776622E+02  0.91934641026E+02  0.10892645982E+03  0.47000000000E+01 0.  1.
         11    1    6    6    0    0  0.39559008735E+02  0.60245956108E+02  0.17301312321E+03  0.18742473476E+03  0.00000000000E+00 0. -1.
        -12    1    6    6    0    0 -0.34488230714E+02  0.48939475553E+02  0.87485121160E+02  0.10601017286E+03  0.00000000000E+00 0.  1.
</event>
<event>
12    1  0.8526130E-002  0.1987362E+03  0.7818608E-02  0.1150843E+00
         21   -1    0    0  503  502  0.00000000000E+00  0.00000000000E+00  0.97300261092E+02  0.97300261092E+02  0.00000000000E+00 0.  1.
         21   -1    0    0  501  503 -0.00000000000E+00 -0.00000000000E+00 -0.51010513492E+03  0.51010513492E+03  0.00000000000E+00 0. -1.
          6    2    1    2  501    0  0.84420160444E+02  0.47061853808E+02 -0.34392799572E+03  0.39721849382E+03  0.17365046507E+03 0.  0.
         24    2    3    3    0    0  0.40141654853E+02  0.69516480657E+02 -0.32578753787E+03  0.34415285017E+03  0.76549140529E+02 0.  0.
         -6    2    1    2    0  502 -0.84420160444E+02 -0.47061853808E+02 -0.68876878105E+02  0.21018690219E+03  0.17347313320E+03 0.  0.
        -24    2    5    5    0    0 -0.21625096171E+02  0.83682117202E+01 -0.98984689284E+02  0.12105619729E+03  0.65718813425E+02 0.  0.
          5    1    3    3  501    0  0.44278505591E+02 -0.22454626849E+02 -0.18140457850E+02  0.53065643644E+02  0.47000000000E+01 0. -1.
        -13    1    4    4    0    0  0.37255612587E+02  0.73722468547E+02 -0.17750998038E+03  0.19578757921E+03  0.00000000000E+00 0.  1.
         14    1    4    4    0    0  0.28860422654E+01 -0.42059878901E+01 -0.14827755749E+03  0.14836527096E+03  0.00000000000E+00 0. -1.
         -5    1    5    5    0  502 -0.62795064273E+02 -0.55430065528E+02  0.30107811179E+02  0.89130704897E+02  0.47000000000E+01 0.  1.
         11    1    6    6    0    0  0.12551385029E+02 -0.16707545866E+01 -0.79406961820E+02  0.80410162744E+02  0.00000000000E+00 0. -1.
        -12    1    6    6    0    0 -0.34176481200E+02  0.10038966307E+02 -0.19577727464E+02  0.40646034547E+02  0.00000000000E+00 0.  1.
</event>
<event>
12    1  0.8526130E-002  0.1741660E+03  0.7818608E-02  0.1173928E+00
         21   -1    0    0  501  502  0.00000000000E+00  0.00000000000E+00  0.83894165891E+02  0.83894165891E+02  0.00000000000E+00 0.  1.
         21   -1    0    0  502  503 -0.00000000000E+00 -0.00000000000E+00 -0.84567304080E+03  0.84567304080E+03  0.00000000000E+00 0.  1.
         -6    2    1    2    0  503  0.19607099943E+02 -0.11698628010E+02 -0.73425284393E+03  0.75462641406E+03  0.17266293672E+03 0.  0.
        -24    2    3    3    0    0  0.75701134649E+01  0.53654094085E+02 -0.30811410609E+03  0.32331193341E+03  0.81610265814E+02 0.  0.
          6    2    1    2  501    0 -0.19607099943E+02  0.11698628010E+02 -0.27526030974E+02  0.17494079262E+03  0.17124632048E+03 0.  0.
         24    2    5    5    0    0  0.94616118649E+01  0.70365308033E+02 -0.34596179446E+02  0.10891923288E+03  0.75004699759E+02 0.  0.
          5    1    5    5  501    0 -0.29068711808E+02 -0.58666680023E+02  0.70701484718E+01  0.66021559740E+02  0.47000000000E+01 0. -1.
        -11    1    6    6    0    0  0.15776541220E+01  0.85549045594E+02 -0.33109478537E+02  0.91746202993E+02  0.00000000000E+00 0.  1.
         12    1    6    6    0    0  0.78839577429E+01 -0.15183737561E+02 -0.14867009089E+01  0.17173029890E+02  0.00000000000E+00 0. -1.
         -5    1    3    3    0  503  0.12036986478E+02 -0.65352722095E+02 -0.42613873785E+03  0.43131448065E+03  0.47000000000E+01 0.  1.
         13    1    4    4    0    0 -0.28438518972E+02  0.21671529898E+02 -0.54611474186E+02  0.65274939159E+02  0.00000000000E+00 0. -1.
        -14    1    4    4    0    0  0.36008632436E+02  0.31982564187E+02 -0.25350263190E+03  0.25803699425E+03  0.00000000000E+00 0.  1.
</event>
<event>
12    1  0.8526130E-002  0.2629166E+03  0.7818608E-02  0.1105436E+00
         21   -1    0    0  503  502  0.00000000000E+00  0.00000000000E+00  0.40781467460E+03  0.40781467460E+03  0.00000000000E+00 0.  1.
         21   -1    0    0  501  503 -0.00000000000E+00 -0.00000000000E+00 -0.27917475335E+03  0.27917475335E+03  0.00000000000E+00 0. -1.
          6    2    1    2  501    0 -0.10349344568E+03  0.16979468009E+03 -0.15109853928E+03  0.30324232698E+03  0.17200003957E+03 0.  0.
         24    2    3    3    0    0 -0.45575407837E+02  0.13018240453E+02 -0.39707928767E+02  0.10233610696E+03  0.81543649635E+02 0.  0.
         -6    2    1    2    0  502  0.10349344568E+03 -0.16979468009E+03  0.27973846053E+03  0.38374710097E+03  0.17165985120E+03 0.  0.
        -24    2    5    5    0    0  0.16316134654E+02 -0.15181898961E+03  0.15924384092E+03  0.23386697433E+03  0.77588265588E+02 0.  0.
          5    1    3    3  501    0 -0.57918037838E+02  0.15677643964E+03 -0.11139061051E+03  0.20090622002E+03  0.47000000000E+01 0. -1.
        -13    1    4    4    0    0  0.78304932491E+01  0.17464110838E+02  0.16065790541E+02  0.24988425673E+02  0.00000000000E+00 0.  1.
         14    1    4    4    0    0 -0.53405901086E+02 -0.44458703849E+01 -0.55773719308E+02  0.77347681282E+02  0.00000000000E+00 0. -1.
         -5    1    5    5    0  502  0.87177311021E+02 -0.17975690485E+02  0.12049461960E+03  0.14988012663E+03  0.47000000000E+01 0.  1.
         13    1    6    6    0    0 -0.20806434825E+02 -0.14883855120E+02  0.87444610798E+01  0.27035208024E+02  0.00000000000E+00 0. -1.
        -14    1    6    6    0    0  0.37122569478E+02 -0.13693513449E+03  0.15049937984E+03  0.20683176631E+03  0.00000000000E+00 0.  1.
</event>
<event>
12    1  0.8526130E-002  0.1940068E+03  0.7818608E-02  0.1156160E+00
         21   -1    0    0  501  502  0.00000000000E+00  0.00000000000E+00  0.47452887268E+03  0.47452887268E+03  0.00000000000E+00 0. -1.
         21   -1    0    0  502  503 -0.00000000000E+00 -0.00000000000E+00 -0.11104958727E+03  0.11104958727E+03  0.00000000000E+00 0. -1.
         -6    2    1    2    0  503  0.75082588026E+02  0.18116222192E+02  0.17797181118E+02  0.18917618432E+03  0.17177105847E+03 0.  0.
        -24    2    3    3    0    0 -0.13502950354E+02 -0.33398164682E+02  0.19800767745E+02  0.86573874285E+02  0.76191851487E+02 0.  0.
          6    2    1    2  501    0 -0.75082588026E+02 -0.18116222192E+02  0.34568210429E+03  0.39640227563E+03  0.17796925118E+03 0.  0.
         24    2    5    5    0    0 -0.19324770482E+02  0.58899525325E+02  0.18811079111E+03  0.21230673434E+03  0.76458347340E+02 0.  0.
          5    1    5    5  501    0 -0.55757817544E+02 -0.77015747517E+02  0.15757131319E+03  0.18409554129E+03  0.47000000000E+01 0. -1.
        -13    1    6    6    0    0 -0.23538819540E+02 -0.12333717127E+02  0.41982496193E+02  0.49686281709E+02  0.00000000000E+00 0.  1.
         14    1    6    6    0    0  0.42140490580E+01  0.71233242453E+02  0.14612829491E+03  0.16262045263E+03  0.00000000000E+00 0. -1.
         -5    1    3    3    0  503  0.88585538381E+02  0.51514386874E+02 -0.20035866269E+01  0.10260231004E+03  0.47000000000E+01 0.  1.
         13    1    4    4    0    0  0.11304622860E+02 -0.23230667354E+01 -0.24477748276E+02  0.27061989907E+02  0.00000000000E+00 0. -1.
        -14    1    4    4    0    0 -0.24807573214E+02 -0.31075097947E+02  0.44278516021E+02  0.59511884378E+02  0.00000000000E+00 0.  1.
</event>
<event>
12    1  0.8526130E-002  0.1789461E+03  0.7818608E-02  0.1169360E+00
         21   -1    0    0  501  502  0.00000000000E+00  0.00000000000E+00  0.42983054581E+03  0.42983054581E+03  0.00000000000E+00 0. -1.
         21   -1    0    0  502  503 -0.00000000000E+00 -0.00000000000E+00 -0.80928270716E+02  0.80928270716E+02  0.00000000000E+00 0.  1.
         -6    2    1    2    0  503  0.41083825048E+02  0.28601258678E+02  0.25034294776E+03  0.30646580480E+03  0.16953992256E+03 0.  0.
        -24    2    3    3    0    0  0.66401500105E+01  0.42316505933E+02  0.61398876090E+02  0.11386147729E+03  0.85789485129E+02 0.  0.
          6    2    1    2  501    0 -0.41083825048E+02 -0.28601258678E+02  0.98559327333E+02  0.20429301172E+03  0.17180157437E+03 0.  0.
         24    2    5    5    0    0  0.21119456332E+01 -0.32190313974E+02  0.12982455348E+03  0.15064265955E+03  0.69268460063E+02 0.  0.
          5    1    5    5  501    0 -0.43195770681E+02  0.35890552960E+01 -0.31265226150E+02  0.53650352178E+02  0.47000000000E+01 0. -1.
        -13    1    6    6    0    0  0.31588538528E+01 -0.53112515328E+02  0.75032346862E+02  0.91982447879E+02  0.00000000000E+00 0.  1.
         14    1    6    6    0    0 -0.10469082196E+01  0.20922201354E+02  0.54792206621E+02  0.58660211666E+02  0.00000000000E+00 0. -1.
         -5    1    3    3    0  503  0.34443675037E+02 -0.13715247255E+02  0.18894407167E+03  0.19260432751E+03  0.47000000000E+01 0.  1.
         13    1    4    4    0    0  0.88658661816E+01  0.38674693557E+02  0.82918401683E+02  0.91922776517E+02  0.00000000000E+00 0. -1.
        -14    1    4    4    0    0 -0.22257161711E+01  0.36418123757E+01 -0.21519525593E+02  0.21938700772E+02  0.00000000000E+00 0.  1.
</event>
<event>
12    1  0.8526130E-002  0.1807602E+03  0.7818608E-02  0.1167233E+00
         21   -1    0    0  501  502  0.00000000000E+00  0.00000000000E+00  0.18795652873E+03  0.18795652873E+03  0.00000000000E+00 0. -1.
         21   -1    0    0  502  503 -0.00000000000E+00 -0.00000000000E+00 -0.46020098828E+03  0.46020098828E+03  0.00000000000E+00 0. -1.
         -6    2    1    2    0  503  0.51535554878E+02  0.36717325607E+01 -0.39215166546E+03  0.43180685922E+03  0.17321905182E+03 0.  0.
        -24    2    3    3    0    0  0.58555787077E+02  0.10727274576E+02 -0.40368561870E+03  0.41586363462E+03  0.80228606130E+02 0.  0.
          6    2    1    2  501    0 -0.51535554878E+02 -0.36717325607E+01  0.11990720591E+03  0.21635065780E+03  0.17251224323E+03 0.  0.
         24    2    5    5    0    0 -0.35797039284E+02 -0.52998103932E+02  0.22641645269E+02  0.10606253028E+03  0.81525389824E+02 0.  0.
          5    1    5    5  501    0 -0.15738515594E+02  0.49326371372E+02  0.97265560639E+02  0.11028812752E+03  0.47000000000E+01 0. -1.
        -11    1    6    6    0    0 -0.24677477816E+02 -0.62635659721E+02  0.43781328369E+02  0.80305718936E+02  0.00000000000E+00 0.  1.
         12    1    6    6    0    0 -0.11119561468E+02  0.96375557886E+01 -0.21139683100E+02  0.25756811340E+02  0.00000000000E+00 0. -1.
         -5    1    3    3    0  503 -0.70202321996E+01 -0.70555420153E+01  0.11533953238E+02  0.15943224597E+02  0.47000000000E+01 0.  1.
         13    1    4    4    0    0  0.42604493757E+02  0.40448912395E+02 -0.17247976486E+03  0.18221011687E+03  0.00000000000E+00 0. -1.
        -14    1    4    4    0    0  0.15951293320E+02 -0.29721637819E+02 -0.23120585383E+03  0.23365351776E+03  0.00000000000E+00 0.  1.
</event>
<event>
12    1  0.8526130E-002  0.2089666E+03  0.7818608E-02  0.1142534E+00
         21   -1    0    0  503  502  0.00000000000E+00  0.00000000000E+00  0.74234179916E+03  0.74234179916E+03  0.00000000000E+00 0.  1.
         21   -1    0    0  501  503 -0.00000000000E+00 -0.00000000000E+00 -0.59950849756E+02  0.59950849756E+02  0.00000000000E+00 0. -1.
          6    2    1    2  501    0  0.75913009837E+02  0.89371318593E+02  0.28074721453E+03  0.34954027570E+03  0.17207378715E+03 0.  0.
         24    2    3    3    0    0  0.57276908075E+02  0.47068724425E+02  0.28290617811E+03  0.30302613929E+03  0.79327337428E+02 0.  0.
         -6    2    1    2    0  502 -0.75913009837E+02 -0.89371318593E+02  0.40164373488E+03  0.45275237322E+03  0.17296532611E+03 0.  0.
        -24    2    5    5    0    0 -0.35150537569E+02 -0.38938593688E+02  0.36672575017E+03  0.37895268119E+03  0.79784612394E+02 0.  0.
          5    1    3    3  501    0  0.18636101762E+02  0.42302594168E+02 -0.21589635831E+01  0.46514136410E+02  0.47000000000E+01 0. -1.
        -11    1    4    4    0    0  0.18590693079E+02  0.58989796821E+02  0.11803464526E+03  0.13325759821E+03  0.00000000000E+00 0.  1.
         12    1    4    4    0    0  0.38686214996E+02 -0.11921072396E+02  0.16487153285E+03  0.16976854109E+03  0.00000000000E+00 0. -1.
         -5    1    5    5    0  502 -0.40762472268E+02 -0.50432724905E+02  0.34917984707E+02  0.73799692023E+02  0.47000000000E+01 0.  1.
         11    1    6    6    0    0  0.52468160028E+01  0.18854038238E+02  0.37931694054E+02  0.42682751199E+02  0.00000000000E+00 0. -1.
        -12    1    6    6    0    0 -0.40397353572E+02 -0.57792631927E+02  0.32879405612E+03  0.33626992999E+03  0.00000000000E+00 0.  1.
</event>
<event>
12    1  0.8526130E-002  0.2385723E+03  0.7818608E-02  0.1120785E+00
         21   -1    0    0  501  502  0.00000000000E+00  0.00000000000E+00  0.60784228492E+03  0.60784228492E+03  0.00000000000E+00 0.  1.
         21   -1    0    0  502  503 -0.00000000000E+00 -0.00000000000E+00 -0.16196098873E+03  0.16196098873E+03  0.00000000000E+00 0. -1.
         -6    2    1    2    0  503 -0.45141303825E+01 -0.16502485352E+03 -0.27271682696E+02  0.23990662006E+03  0.17192400071E+03 0.  0.
        -24    2    3    3    0    0  0.23608985015E+02 -0.10348887824E+03 -0.79683261304E+02  0.15419402212E+03  0.78479565703E+02 0.  0.
          6    2    1    2  501    0  0.45141303825E+01  0.16502485352E+03  0.47315297889E+03  0.52989665359E+03  0.17222991147E+03 0.  0.
         24    2    5    5    0    0  0.51097484801E+02  0.16475759359E+03  0.40078488934E+03  0.44370320418E+03  0.80548049500E+02 0.  0.
          5    1    5    5  501    0 -0.46583354418E+02  0.26725993720E+00  0.72368089544E+02  0.86193449409E+02  0.47000000000E+01 0. -1.
        -11    1    6    6    0    0  0.91727085471E+01  0.62389833172E+02  0.66745324069E+02  0.91823570778E+02  0.00000000000E+00 0.  1.
         12    1    6    6    0    0  0.41924776254E+02  0.10236776041E+03  0.33403956527E+03  0.35187963340E+03  0.00000000000E+00 0. -1.
         -5    1    3    3    0  503 -0.28123115397E+02 -0.61535975280E+02  0.52411578608E+02  0.85712597939E+02  0.47000000000E+01 0.  1.
         13    1    4    4    0    0  0.28645993649E+02 -0.43159705338E+02  0.28020637379E+01  0.51876822168E+02  0.00000000000E+00 0. -1.
        -14    1    4    4    0    0 -0.50370086341E+01 -0.60329172905E+02 -0.82485325042E+02  0.10231719996E+03  0.00000000000E+00 0.  1.
</event>
<event>
12    1  0.8526130E-002  0.1847569E+03  0.7818608E-02  0.1163286E+00
         21   -1    0    0  503  502  0.00000000000E+00  0.00000000000E+00  0.83138624034E+02  0.83138624034E+02  0.00000000000E+00 0.  1.
         21   -1    0    0  501  503 -0.00000000000E+00 -0.00000000000E+00 -0.41680028455E+03  0.41680028455E+03  0.00000000000E+00 0.  1.
          6    2    1    2  501    0 -0.64026495319E+02 -0.20370253587E+02 -0.13606496993E+03  0.22942171334E+03  0.17206483423E+03 0.  0.
         24    2    3    3    0    0 -0.14530181078E+02 -0.49597563299E+02 -0.14278364160E+03  0.17135837460E+03  0.79407051271E+02 0.  0.
         -6    2    1    2    0  502  0.64026495319E+02  0.20370253587E+02 -0.19759669059E+03  0.27051719524E+03  0.17210683152E+03 0.  0.
        -24    2    5    5    0    0  0.47289847784E+01 -0.47877601972E+02 -0.11001608600E+03  0.14455522938E+03  0.80486316189E+02 0.  0.
          5    1    3    3  501    0 -0.49496314241E+02  0.29227309712E+02  0.67186716707E+01  0.58063338738E+02  0.47000000000E+01 0. -1.
        -11    1    4    4    0    0 -0.22357577026E+02 -0.52691915395E+02 -0.43946924429E+02  0.72163920107E+02  0.00000000000E+00 0.  1.
         12    1    4    4    0    0  0.78273959487E+01  0.30943520957E+01 -0.98836717167E+02  0.99194454495E+02  0.00000000000E+00 0. -1.
         -5    1    5    5    0  502  0.59297510540E+02  0.68247855560E+02 -0.87580604587E+02  0.12596196587E+03  0.47000000000E+01 0.  1.
         13    1    6    6    0    0 -0.37464213886E+02 -0.19902180286E+02 -0.59149781475E+02  0.72789839612E+02  0.00000000000E+00 0. -1.
        -14    1    6    6    0    0  0.42193198664E+02 -0.27975421686E+02 -0.50866304529E+02  0.71765389767E+02  0.00000000000E+00 0.  1.
</event>
<event>
12    1  0.8526130E-002  0.1934540E+03  0.7818608E-02  0.1155490E+00
         21   -1    0    0  503  502  0.00000000000E+00  0.00000000000E+00  0.10109938597E+04  0.10109938597E+04  0.00000000000E+00 0.  1.
         21   -1    0    0  501  503 -0.00000000000E+00 -0.00000000000E+00 -0.39828758721E+02  0.39828758721E+02  0.00000000000E+00 0. -1.
          6    2    1    2  501    0  0.45191378578E+02 -0.70843193575E+02  0.62803027662E+03  0.65715026411E+03  0.17425103295E+03 0.  0.
         24    2    3    3    0    0  0.18637318764E+02 -0.10099594511E+03  0.30648110249E+03  0.33306652816E+03  0.80343732912E+02 0.  0.
         -6    2    1    2    0  502 -0.45191378578E+02  0.70843193575E+02  0.34313482435E+03  0.39367235431E+03  0.17371066776E+03 0.  0.
        -24    2    5    5    0    0 -0.48576655691E+02 -0.22926553320E+02  0.14977668622E+03  0.17869866960E+03  0.81331669469E+02 0.  0.
          5    1    3    3  501    0  0.26554059813E+02  0.30152751535E+02  0.32154917414E+03  0.32408373595E+03  0.47000000000E+01 0. -1.
        -13    1    4    4    0    0 -0.25157787968E+01 -0.44542636882E+02  0.40223408544E+02  0.60069112181E+02  0.00000000000E+00 0.  1.
         14    1    4    4    0    0  0.21153097561E+02 -0.56453308229E+02  0.26625769394E+03  0.27299741598E+03  0.00000000000E+00 0. -1.
         -5    1    5    5    0  502  0.33852771127E+01  0.93769746895E+02  0.19335813813E+03  0.21497368470E+03  0.47000000000E+01 0.  1.
         13    1    6    6    0    0 -0.17303460866E+02 -0.16697670976E+02 -0.15045672712E+01  0.24093270775E+02  0.00000000000E+00 0. -1.
        -14    1    6    6    0    0 -0.31273194824E+02 -0.62288823440E+01  0.15128125349E+03  0.15460539883E+03  0.00000000000E+00 0.  1.
</event>
<event>
12    1  0.8526130E-002  0.2011595E+03  0.7818608E-02  0.1148957E+00
         21   -1    0    0  501  502  0.00000000000E+00  0.00000000000E+00  0.15998113813E+03  0.15998113813E+03  0.00000000000E+00 0.  1.
         21   -1    0    0  502  503 -0.00000000000E+00 -0.00000000000E+00 -0.25184690795E+03  0.25184690795E+03  0.00000000000E+00 0. -1.
         -6    2    1    2    0  503  0.93169282696E+02  0.41764443133E+02 -0.42763949228E+02  0.20565480426E+03  0.17332154861E+03 0.  0.
        -24    2    3    3    0    0  0.14385203050E+02  0.17343062649E+02 -0.79229133335E+02  0.11534901993E+03  0.80749148241E+02 0.  0.
          6    2    1    2  501    0 -0.93169282696E+02 -0.41764443133E+02 -0.49101820598E+02  0.20617324182E+03  0.17225455846E+03 0.  0.
         24    2    5    5    0    0 -0.12270397026E+03  0.14269027757E+01 -0.33205010182E+02  0.15128618768E+03  0.82016080815E+02 0.  0.
          5    1    5    5  501    0  0.29534687565E+02 -0.43191345909E+02 -0.15896810416E+02  0.54887054142E+02  0.47000000000E+01 0. -1.
        -11    1    6    6    0    0 -0.82002355891E+02 -0.13433963850E+02  0.17158604569E+02  0.84848544284E+02  0.00000000000E+00 0.  1.
         12    1    6    6    0    0 -0.40701614371E+02  0.14860866626E+02 -0.50363614752E+02  0.66437643397E+02  0.00000000000E+00 0. -1.
         -5    1    3    3    0  503  0.78784079647E+02  0.24421380484E+02  0.36465184106E+02  0.90305784324E+02  0.47000000000E+01 0.  1.
         11    1    4    4    0    0  0.39839403831E+02  0.34848323641E+02 -0.50946460240E+02  0.73465131656E+02  0.00000000000E+00 0. -1.
        -12    1    4    4    0    0 -0.25454200781E+02 -0.17505260992E+02 -0.28282673094E+02  0.41883888277E+02  0.00000000000E+00 0.  1.
</event>
<event>
12    1  0.8526130E-002  0.1770053E+03  0.7818608E-02  0.1171316E+00
         21   -1    0    0  501  502  0.00000000000E+00  0.00000000000E+00  0.26118179767E+03  0.26118179767E+03  0.00000000000E+00 0.  1.
         21   -1    0    0  502  503 -0.00000000000E+00 -0.00000000000E+00 -0.14976069667E+03  0.14976069667E+03  0.00000000000E+00 0.  1.
         -6    2    1    2    0  503 -0.17060384490E+02  0.35239174557E+02 -0.38638855663E+02  0.17888894294E+03  0.17022172775E+03 0.  0.
        -24    2    3    3    0    0  0.28339838777E+02  0.89716442981E+01  0.31735539345E+02  0.90992362285E+02  0.79930148714E+02 0.  0.
          6    2    1    2  501    0  0.17060384490E+02 -0.35239174557E+02  0.15005995665E+03  0.23205355140E+03  0.17262098361E+03 0.  0.
         24    2    5    5    0    0  0.52753214916E+02 -0.47711181643E+02  0.16105682105E+03  0.19239815919E+03  0.77578950212E+02 0.  0.
          5    1    5    5  501    0 -0.35692830426E+02  0.12472007086E+02 -0.10996864393E+02  0.39655392207E+02  0.47000000000E+01 0. -1.
        -11    1    6    6    0    0  0.18213045026E+02 -0.25492760296E+02  0.14492725367E+03  0.14827509802E+03  0.00000000000E+00 0.  1.
         12    1    6    6    0    0  0.34540169890E+02 -0.22218421347E+02  0.16129567378E+02  0.44123061170E+02  0.00000000000E+00 0. -1.
         -5    1    3    3    0  503 -0.45400223267E+02  0.26267530259E+02 -0.70374395009E+02  0.87896580658E+02  0.47000000000E+01 0.  1.
         13    1    4    4    0    0  0.22385523399E+02  0.41035387912E+02  0.34743582450E+02  0.58242005807E+02  0.00000000000E+00 0. -1.
        -14    1    4    4    0    0  0.59543153779E+01 -0.32063743614E+02 -0.30080431050E+01  0.32750356478E+02  0.00000000000E+00 0.  1.
</event>
<event>
12    1  0.8526130E-002  0.2195984E+03  0.7818608E-02  0.1135099E+00
         21   -1    0    0  503  502  0.00000000000E+00  0.00000000000E+00  0.15646744763E+03  0.15646744763E+03  0.00000000000E+00 0.  1.
         21   -1    0    0  501  503 -0.00000000000E+00 -0.00000000000E+00 -0.31147256760E+03  0.31147256760E+03  0.00000000000E+00 0. -1.
          6    2    1    2  501    0  0.10330510833E+03  0.76929171354E+02 -0.11865816158E+03  0.24535391685E+03  0.17183929234E+03 0.  0.
         24    2    3    3    0    0 -0.58783787659E+01  0.58010701558E+01 -0.13245170753E+02  0.77680933725E+02  0.76096551592E+02 0.  0.
         -6    2    1    2    0  502 -0.10330510833E+03 -0.76929171354E+02 -0.36346958389E+02  0.22258609838E+03  0.17785788426E+03 0.  0.
        -24    2    5    5    0    0 -0.87586118876E+02 -0.67827288417E+02  0.41106616798E+02  0.14289245238E+03  0.80353156315E+02 0.  0.
          5    1    3    3  501    0  0.10918348710E+03  0.71128101199E+02 -0.10541299083E+03  0.16767298313E+03  0.47000000000E+01 0. -1.
        -13    1    4    4    0    0  0.23732209520E+02 -0.24418245075E+02 -0.85865061973E+01  0.35116898353E+02  0.00000000000E+00 0.  1.
         14    1    4    4    0    0 -0.29610588286E+02  0.30219315231E+02 -0.46586645559E+01  0.42564035372E+02  0.00000000000E+00 0. -1.
         -5    1    5    5    0  502 -0.15718989455E+02 -0.91018829369E+01 -0.77453575186E+02  0.79693645993E+02  0.47000000000E+01 0.  1.
         13    1    6    6    0    0 -0.49189276011E+01  0.10018071611E+01  0.34775859897E+02  0.35136304557E+02  0.00000000000E+00 0. -1.
        -14    1    6    6    0    0 -0.82667191275E+02 -0.68829095579E+02  0.63307569004E+01  0.10775614783E+03  0.00000000000E+00 0.  1.
</event>
<event>
12    1  0.8526130E-002  0.2326516E+03  0.7818608E-02  0.1125057E+00
         21   -1    0    0  503  502  0.00000000000E+00  0.00000000000E+00  0.18512047917E+04  0.18512047917E+04  0.00000000000E+00 0. -1.
         21   -1    0    0  501  503 -0.00000000000E+00 -0.00000000000E+00 -0.33363378693E+02  0.33363378693E+02  0.00000000000E+00 0.  1.
          6    2    1    2  501    0 -0.15151753519E+03 -0.23459967624E+02  0.56724890409E+03  0.61251927532E+03  0.17291792822E+03 0.  0.
         24    2    3    3    0    0 -0.34997226669E+02 -0.83198489794E+01  0.38252582193E+03  0.39354230719E+03  0.85179324623E+02 0.  0.
         -6    2    1    2    0  502  0.15151753519E+03  0.23459967624E+02  0.12505925090E+04  0.12720488951E+04  0.17498238353E+03 0.  0.
        -24    2    5    5    0    0  0.43577909204E+02  0.18460452968E+02  0.90327761509E+03  0.90828292157E+03  0.82629251490E+02 0.  0.
          5    1    3    3  501    0 -0.11652030852E+03 -0.15140118645E+02  0.18472308216E+03  0.21897696814E+03  0.47000000000E+01 0. -1.
        -11    1    4    4    0    0  0.11137710153E+02  0.27608314271E+02  0.19045412298E+03  0.19276680358E+03  0.00000000000E+00 0.  1.
         12    1    4    4    0    0 -0.46134936822E+02 -0.35928163250E+02  0.19207169895E+03  0.20077550361E+03  0.00000000000E+00 0. -1.
         -5    1    5    5    0  502  0.10793962598E+03  0.49995146560E+01  0.34731489386E+03  0.36376597354E+03  0.47000000000E+01 0.  1.
         13    1    6    6    0    0  0.24106401115E+02 -0.28746413432E+02  0.22692036464E+03  0.23000071032E+03  0.00000000000E+00 0. -1.
        -14    1    6    6    0    0  0.19471508089E+02  0.47206866400E+02  0.67635725045E+03  0.67828221125E+03  0.00000000000E+00 0.  1.
</event>
<event>
12    1  0.8526130E-002  0.2546070E+03  0.7818608E-02  0.1110487E+00
         21   -1    0    0  503  502  0.00000000000E+00  0.00000000000E+00  0.83247206523E+02  0.83247206523E+02  0.00000000000E+00 0. -1.
         21   -1    0    0  501  503 -0.00000000000E+00 -0.00000000000E+00 -0.84309250472E+03  0.84309250472E+03  0.00000000000E+00 0.  1.
          6    2    1    2  501    0  0.11288974667E+03 -0.14974767306E+03 -0.50882938015E+03  0.56880128362E+03  0.17163653938E+03 0.  0.
         24    2    3    3    0    0  0.10363762865E+02 -0.12671752459E+03 -0.29942256045E+03  0.33446120760E+03  0.77754042074E+02 0.  0.
         -6    2    1    2    0  502 -0.11288974667E+03  0.14974767306E+03 -0.25101591805E+03  0.35753842763E+03  0.17220997539E+03 0.  0.
        -24    2    5    5    0    0  0.63585888244E+01  0.72974819370E+02 -0.14173400111E+03  0.17843269363E+03  0.79899581783E+02 0.  0.
          5    1    3    3  501    0  0.10252598381E+03 -0.23030148475E+02 -0.20940681970E+03  0.23434007602E+03  0.47000000000E+01 0. -1.
        -13    1    4    4    0    0  0.16211174303E+02 -0.17351393899E+02 -0.13387068569E+03  0.13596041162E+03  0.00000000000E+00 0.  1.
         14    1    4    4    0    0 -0.58474114382E+01 -0.10936613069E+03 -0.16555187477E+03  0.19850079597E+03  0.00000000000E+00 0. -1.
         -5    1    5    5    0  502 -0.11924833550E+03  0.76772853694E+02 -0.10928191693E+03  0.17910573400E+03  0.47000000000E+01 0.  1.
         11    1    6    6    0    0 -0.83973779526E+01  0.70804466398E+02 -0.14637116934E+03  0.16281372065E+03  0.00000000000E+00 0. -1.
        -12    1    6    6    0    0  0.14755966777E+02  0.21703529712E+01  0.46371682286E+01  0.15618972973E+02  0.00000000000E+00 0.  1.
</event>
<event>
12    1  0.8526130E-002  0.2296138E+03  0.7818608E-02  0.1127014E+00
         21   -1    0    0  501  502  0.00000000000E+00  0.00000000000E+00  0.45000495023E+03  0.45000495023E+03  0.00000000000E+00 0. -1.
         21   -1    0    0  502  503 -0.00000000000E+00 -0.00000000000E+00 -0.18014702852E+03  0.18014702852E+03  0.00000000000E+00 0. -1.
         -6    2    1    2    0  503  0.15082696463E+03  0.15203374354E+02 -0.51701621279E+02  0.23536264281E+03  0.17246043064E+03 0.  0.
        -24    2    3    3    0    0  0.11424695179E+03  0.72549314755E+02 -0.16041641542E+02  0.15841864776E+03  0.80767348788E+02 0.  0.
          6    2    1    2  501    0 -0.15082696463E+03 -0.15203374354E+02  0.32155954299E+03  0.39478933593E+03  0.17169206221E+03 0.  0.
         24    2    5    5    0    0 -0.92560314159E+02  0.38681032423E+02  0.27283772943E+03  0.30154537115E+03  0.80159529920E+02 0.  0.
          5    1    5    5  501    0 -0.58266650472E+02 -0.53884406777E+02  0.48721813560E+02  0.93243964778E+02  0.47000000000E+01 0. -1.
        -13    1    6    6    0    0 -0.27090466508E+02  0.42494373418E+02  0.57577382527E+02  0.76516796368E+02  0.00000000000E+00 0.  1.
         14    1    6    6    0    0 -0.65469847652E+02 -0.38133409950E+01  0.21526034690E+03  0.22502857479E+03  0.00000000000E+00 0. -1.
         -5    1    3    3    0  503  0.36580012843E+02 -0.57345940400E+02 -0.35659979737E+02  0.76943995054E+02  0.47000000000E+01 0.  1.
         13    1    4    4    0    0  0.45518355390E+02  0.53602099052E+02  0.26787129840E+02  0.75250621428E+02  0.00000000000E+00 0. -1.
        -14    1    4    4    0    0  0.68728596399E+02  0.18947215703E+02 -0.42828771382E+02  0.83168026332E+02  0.00000000000E+00 0.  1.
</event>
<event>
12    1  0.8526130E-002  0.2432320E+03  0.7818608E-02  0.1118492E+00
         21   -1    0    0  501  502  0.00000000000E+00  0.00000000000E+00  0.30134354612E+03  0.30134354612E+03  0.00000000000E+00 0.  1.
         21   -1    0    0  502  503 -0.00000000000E+00 -0.00000000000E+00 -0.21792187011E+03  0.21792187011E+03  0.00000000000E+00 0. -1.
         -6    2    1    2    0  503 -0.13898209336E+03  0.81958748341E+02  0.13037410583E+03  0.27154315706E+03  0.17522847934E+03 0.  0.
        -24    2    3    3    0    0 -0.33740783460E+02 -0.37280428191E+01  0.62921519977E+01  0.87596477949E+02  0.80505981148E+02 0.  0.
          6    2    1    2  501    0  0.13898209336E+03 -0.81958748341E+02 -0.46952429819E+02  0.24772225917E+03  0.18201244000E+03 0.  0.
         24    2    5    5    0    0  0.61024529863E+02 -0.19161767340E+02  0.44927341164E+02  0.11176335050E+03  0.79883752783E+02 0.  0.
          5    1    5    5  501    0  0.77957563499E+02 -0.62796981001E+02 -0.91879770983E+02  0.13595890867E+03  0.47000000000E+01 0. -1.
        -11    1    6    6    0    0  0.12564983282E+02  0.26577884276E+02 -0.31889035013E+01  0.29570793750E+02  0.00000000000E+00 0.  1.
         12    1    6    6    0    0  0.48459546581E+02 -0.45739651616E+02  0.48116244665E+02  0.82192556752E+02  0.00000000000E+00 0. -1.
         -5    1    3    3    0  503 -0.10524130990E+03  0.85686791160E+02  0.12408195383E+03  0.18394667911E+03  0.47000000000E+01 0.  1.
         11    1    4    4    0    0 -0.29977119690E+02 -0.29876403707E+02 -0.22985601894E+02  0.48161863521E+02  0.00000000000E+00 0. -1.
        -12    1    4    4    0    0 -0.37636637697E+01  0.26148360888E+02  0.29277753892E+02  0.39434614428E+02  0.00000000000E+00 0.  1.
</event>
<event>
12    1  0.8526130E-002  0.1814897E+03  0.7818608E-02  0.1166935E+00
         21   -1    0    0  501  502  0.00000000000E+00  0.00000000000E+00  0.93837856337E+02  0.93837856337E+02  0.00000000000E+00 0.  1.
         21   -1    0    0  502  503 -0.00000000000E+00 -0.00000000000E+00 -0.34917037637E+03  0.34917037637E+03  0.00000000000E+00 0.  1.
         -6    2    1    2    0  503 -0.35164924685E+02 -0.36462467784E+02 -0.10909080552E+03  0.21175295369E+03  0.17427686612E+03 0.  0.
        -24    2    3    3    0    0  0.64035711309E+01  0.38952854978E+02 -0.84532981688E+02  0.12208363083E+03  0.78741712509E+02 0.  0.
          6    2    1    2  501    0  0.35164924685E+02  0.36462467784E+02 -0.14624171451E+03  0.23125527901E+03  0.17183213182E+03 0.  0.
         24    2    5    5    0    0  0.78020544389E+02  0.44451525801E+02 -0.14495949769E+03  0.18738999356E+03  0.77708495178E+02 0.  0.
          5    1    5    5  501    0 -0.42855619704E+02 -0.79890580168E+01 -0.12822168213E+01  0.43865285457E+02  0.47000000000E+01 0. -1.
        -13    1    6    6    0    0  0.46247030125E+02  0.18606831338E+01 -0.17825874669E+02  0.49598505469E+02  0.00000000000E+00 0.  1.
         14    1    6    6    0    0  0.31773514264E+02  0.42590842667E+02 -0.12713362302E+03  0.13779148809E+03  0.00000000000E+00 0. -1.
         -5    1    3    3    0  503 -0.41568495816E+02 -0.75415322762E+02 -0.24557823836E+02  0.89669322866E+02  0.47000000000E+01 0.  1.
         13    1    4    4    0    0  0.41535371362E+02  0.22100058698E+02 -0.59151841029E+02  0.75581346679E+02  0.00000000000E+00 0. -1.
        -14    1    4    4    0    0 -0.35131800231E+02  0.16852796280E+02 -0.25381140659E+02  0.46502284149E+02  0.00000000000E+00 0.  1.
</event>
<event>
12    1  0.8526130E-002  0.3064252E+03  0.7818608E-02  0.1082260E+00
         21   -1    0    0  501  502  0.00000000000E+00  0.00000000000E+00  0.24535409625E+03  0.24535409625E+03  0.00000000000E+00 0. -1.
         21   -1    0    0  502  503 -0.00000000000E+00 -0.00000000000E+00 -0.39057054691E+03  0.39057054691E+03  0.00000000000E+00 0.  1.
         -6    2    1    2    0  503  0.22537803127E+01 -0.25246097460E+03 -0.12278373638E+03  0.32867943468E+03  0.17091723623E+03 0.  0.
        -24    2    3    3    0    0 -0.64073809872E+02 -0.93593063922E+02 -0.42875124127E+02  0.13882201825E+03  0.67588177630E+02 0.  0.
          6    2    1    2  501    0 -0.22537803127E+01  0.25246097460E+03 -0.22432714273E+02  0.30724520848E+03  0.17365128344E+03 0.  0.
         24    2    5    5    0    0  0.32737057101E+02  0.51897580557E+02  0.12169008902E+02  0.10067947323E+03  0.78887247236E+02 0.  0.
          5    1    5    5  501    0 -0.34990837413E+02  0.20056339404E+03 -0.34601723175E+02  0.20656573525E+03  0.47000000000E+01 0. -1.
        -11    1    6    6    0    0 -0.96405251499E+01  0.31573894822E+01 -0.24423786291E+02  0.26446742149E+02  0.00000000000E+00 0.  1.
         12    1    6    6    0    0  0.42377582251E+02  0.48740191075E+02  0.36592795193E+02  0.74232731079E+02  0.00000000000E+00 0. -1.
         -5    1    3    3    0  503  0.66327590185E+02 -0.15886791067E+03 -0.79908612258E+02  0.18985741643E+03  0.47000000000E+01 0.  1.
         11    1    4    4    0    0 -0.43771025867E+02 -0.93866639088E+02 -0.52765112197E+02  0.11623685175E+03  0.00000000000E+00 0. -1.
        -12    1    4    4    0    0 -0.20302784006E+02  0.27357516612E+00  0.98899880703E+01  0.22585166499E+02  0.00000000000E+00 0.  1.
</event>
<event>
12    1  0.8526130E-002  0.2095061E+03  0.7818608E-02  0.1142002E+00
         21   -1    0    0  501  502  0.00000000000E+00  0.00000000000E+00  0.77291031456E+02  0.77291031456E+02  0.00000000000E+00 0. -1.
         21   -1    0    0  502  503 -0.00000000000E+00 -0.00000000000E+00 -0.13178539670E+04  0.13178539670E+04  0.00000000000E+00 0. -1.
         -6    2    1    2    0  503  0.11102851961E+03 -0.36198063553E+02 -0.11468695897E+04  0.11658484783E+04  0.17394018117E+03 0.  0.
        -24    2    3    3    0    0  0.13459131077E+03 -0.16273005934E+01 -0.10266042415E+04  0.10384271820E+04  0.79355368947E+02 0.  0.
          6    2    1    2  501    0 -0.11102851961E+03  0.36198063553E+02 -0.93693345846E+02  0.22929652015E+03  0.17366870508E+03 0.  0.
         24    2    5    5    0    0 -0.41885011114E+02  0.43187201893E+02 -0.11890697469E+03  0.15521892636E+03  0.79589935956E+02 0.  0.
          5    1    5    5  501    0 -0.69143508500E+02 -0.69891383398E+01  0.25213628844E+02  0.74077593791E+02  0.47000000000E+01 0. -1.
        -11    1    6    6    0    0 -0.50960079844E+02 -0.31906080518E+01 -0.48500161217E+02  0.70422832630E+02  0.00000000000E+00 0.  1.
         12    1    6    6    0    0  0.90750687298E+01  0.46377809945E+02 -0.70406813473E+02  0.84796093726E+02  0.00000000000E+00 0. -1.
         -5    1    3    3    0  503 -0.23562791158E+02 -0.34570762960E+02 -0.12026534818E+03  0.12742129630E+03  0.47000000000E+01 0.  1.
         13    1    4    4    0    0  0.16897799677E+02 -0.13410367857E+02 -0.41081042601E+03  0.41137644527E+03  0.00000000000E+00 0. -1.
        -14    1    4    4    0    0  0.11769351110E+03  0.11783067264E+02 -0.61579381548E+03  0.62705073671E+03  0.00000000000E+00 0.  1.
</event>
<event>
12    1  0.8526130E-002  0.2207048E+03  0.7818608E-02  0.1134553E+00
         21   -1    0    0  503  502  0.00000000000E+00  0.00000000000E+00  0.47158933441E+03  0.47158933441E+03  0.00000000000E+00 0.  1.
         21   -1    0    0  501  503 -0.00000000000E+00 -0.00000000000E+00 -0.14032886132E+03  0.14032886132E+03  0.00000000000E+00 0.  1.
          6    2    1    2  501    0  0.12588073833E+03  0.10148639527E+02  0.60570643950E+00  0.21437174734E+03  0.17322218106E+03 0.  0.
         24    2    3    3    0    0  0.15029436912E+03  0.28397947429E+02  0.27280235686E+02  0.17359573579E+03  0.77436602576E+02 0.  0.
         -6    2    1    2    0  502 -0.12588073833E+03 -0.10148639527E+02  0.33065476665E+03  0.39754644840E+03  0.18100179213E+03 0.  0.
        -24    2    5    5    0    0 -0.99785252430E+01  0.59636397837E+01  0.22574582464E+03  0.24031761943E+03  0.81585813118E+02 0.  0.
          5    1    3    3  501    0 -0.24413630789E+02 -0.18249307902E+02 -0.26674529246E+02  0.40776011547E+02  0.47000000000E+01 0. -1.
        -13    1    4    4    0    0  0.58333820045E+02 -0.20712942601E+02 -0.10346524329E+02  0.62760745039E+02  0.00000000000E+00 0.  1.
         14    1    4    4    0    0  0.91960549073E+02  0.49110890030E+02  0.37626760015E+02  0.11083499075E+03  0.00000000000E+00 0. -1.
         -5    1    5    5    0  502 -0.11590221309E+03 -0.16112279310E+02  0.10490894202E+03  0.15722882897E+03  0.47000000000E+01 0.  1.
         11    1    6    6    0    0 -0.33885656309E+02  0.32290293109E+02  0.13201934352E+03  0.14007143819E+03  0.00000000000E+00 0. -1.
        -12    1    6    6    0    0  0.23907131066E+02 -0.26326653326E+02  0.93726481111E+02  0.10024618124E+03  0.00000000000E+00 0.  1.
</event>
<event>
12    1  0.8526130E-002  0.1980998E+03  0.7818608E-02  0.1155467E+00
         21   -1    0    0  503  502  0.00000000000E+00  0.00000000000E+00  0.10553818582E+03  0.10553818582E+03  0.00000000000E+00 0.  1.
         21   -1    0    0  501  503 -0.00000000000E+00 -0.00000000000E+00 -0.36290084812E+03  0.36290084812E+03  0.00000000000E+00 0.  1.
          6    2    1    2  501    0 -0.63021245820E+01 -0.50321342302E+02 -0.18379988476E+03  0.25712170717E+03  0.17250281272E+03 0.  0.
         24    2    3    3    0    0 -0.67569290861E+02 -0.49435828405E+02 -0.13585402113E+03  0.17917720360E+03  0.81477880645E+02 0.  0.
         -6    2    1    2    0  502  0.63021245820E+01  0.50321342302E+02 -0.73562777539E+02  0.21131732677E+03  0.19149824043E+03 0.  0.
        -24    2    5    5    0    0  0.53945189497E+02  0.18219993484E+02  0.21498379815E+02  0.10014596414E+03  0.79529756490E+02 0.  0.
          5    1    3    3  501    0  0.61267166279E+02 -0.88551389790E+00 -0.47945863623E+02  0.77944503573E+02  0.47000000000E+01 0. -1.
        -11    1    4    4    0    0  0.11101984734E+02 -0.56526543887E+01 -0.60502927695E+02  0.61772249646E+02  0.00000000000E+00 0.  1.
         12    1    4    4    0    0 -0.78671275595E+02 -0.43783174016E+02 -0.75351093440E+02  0.11740495396E+03  0.00000000000E+00 0. -1.
         -5    1    5    5    0  502 -0.47643064915E+02  0.32101348819E+02 -0.95061157354E+02  0.11117136263E+03  0.47000000000E+01 0.  1.
         11    1    6    6    0    0  0.32226182874E+02 -0.22310766922E+02 -0.14454424652E+02  0.41775920999E+02  0.00000000000E+00 0. -1.
        -12    1    6    6    0    0  0.21719006623E+02  0.40530760406E+02  0.35952804467E+02  0.58370043146E+02  0.00000000000E+00 0.  1.
</event>
<event>
12    1  0.8526130E-002  0.3094258E+03  0.7818608E-02  0.1081035E+00
         21   -1    0    0  503  502  0.00000000000E+00  0.00000000000E+00  0.22691817403E+03  0.22691817403E+03  0.00000000000E+00 0. -1.
         21   -1    0    0  501  503 -0.00000000000E+00 -0.00000000000E+00 -0.45452905735E+03  0.45452905735E+03  0.00000000000E+00 0. -1.
          6    2    1    2  501    0  0.15158519429E+03  0.20387120422E+03 -0.21076938596E+03  0.37156340334E+03  0.17056989654E+03 0.  0.
         24    2    3    3    0    0  0.10300173613E+03  0.55859522564E+02 -0.51650657753E+02  0.14883336500E+03  0.75854704428E+02 0.  0.
         -6    2    1    2    0  502 -0.15158519429E+03 -0.20387120422E+03 -0.16841497361E+02  0.30988382804E+03  0.17664317652E+03 0.  0.
        -24    2    5    5    0    0 -0.11415430763E+03 -0.22494468715E+03 -0.39640060983E+01  0.26479410926E+03  0.80429402129E+02 0.  0.
          5    1    3    3  501    0  0.48583458161E+02  0.14801168166E+03 -0.15911872821E+03  0.22273003835E+03  0.47000000000E+01 0. -1.
        -11    1    4    4    0    0  0.28594844604E+02 -0.12887423363E+02  0.64921034461E+01  0.32029646049E+02  0.00000000000E+00 0.  1.
         12    1    4    4    0    0  0.74406891522E+02  0.68746945927E+02 -0.58142761200E+02  0.11680371895E+03  0.00000000000E+00 0. -1.
         -5    1    5    5    0  502 -0.37430886654E+02  0.21073482928E+02 -0.12877491263E+02  0.45089718779E+02  0.47000000000E+01 0.  1.
         13    1    6    6    0    0 -0.34949455635E+02 -0.11712091210E+03 -0.35625025223E+02  0.12731030957E+03  0.00000000000E+00 0. -1.
        -14    1    6    6    0    0 -0.79204851998E+02 -0.10782377505E+03  0.31661019124E+02  0.13748379970E+03  0.00000000000E+00 0.  1.
</event>
<event>
12    1  0.8526130E-002  0.2654113E+03  0.7818608E-02  0.1104260E+00
         21   -1    0    0  503  502  0.00000000000E+00  0.00000000000E+00  0.97579545387E+03  0.97579545387E+03  0.00000000000E+00 0. -1.
         21   -1    0    0  501  503 -0.00000000000E+00 -0.00000000000E+00 -0.75218129043E+02  0.75218129043E+02  0.00000000000E+00 0.  1.
          6    2    1    2  501    0 -0.20107201698E+03 -0.14230188730E+02  0.33309431228E+03  0.42453122929E+03  0.16924092141E+03 0.  0.
         24    2    3    3    0    0 -0.50565882127E+02 -0.44338707005E+02  0.85888269618E+02  0.13351312498E+03  0.76981363399E+02 0.  0.
         -6    2    1    2    0  502  0.20107201698E+03  0.14230188730E+02  0.56748301255E+03  0.62648235363E+03  0.17265779911E+03 0.  0.
        -24    2    5    5    0    0  0.17418323541E+03  0.17859250945E+02  0.56757845109E+03  0.59894554598E+03  0.77017637993E+02 0.  0.
          5    1    3    3  501    0 -0.15050613486E+03  0.30108518275E+02  0.24720604266E+03  0.29101810430E+03  0.47000000000E+01 0. -1.
        -11    1    4    4    0    0 -0.16977664222E+02 -0.58411127873E+02  0.72677206994E+02  0.94773822115E+02  0.00000000000E+00 0.  1.
         12    1    4    4    0    0 -0.33588217905E+02  0.14072420868E+02  0.13211062624E+02  0.38739302869E+02  0.00000000000E+00 0. -1.
         -5    1    5    5    0  502  0.26888781573E+02 -0.36290622151E+01 -0.95438543577E-01  0.27536807650E+02  0.47000000000E+01 0.  1.
         11    1    6    6    0    0  0.13583909088E+02  0.12380365009E+02  0.15649708228E+03  0.15757262702E+03  0.00000000000E+00 0. -1.
        -12    1    6    6    0    0  0.16059932632E+03  0.54788859366E+01  0.41108136881E+03  0.44137291896E+03  0.00000000000E+00 0.  1.
</event>
<event>
12    1  0.8526130E-002  0.2356738E+03  0.7818608E-02  0.1122773E+00
         21   -1    0    0  503  502  0.00000000000E+00  0.00000000000E+00  0.12688086126E+03  0.12688086126E+03  0.00000000000E+00 0.  1.
         21   -1    0    0  501  503 -0.00000000000E+00 -0.00000000000E+00 -0.45329283811E+03  0.45329283811E+03  0.00000000000E+00 0.  1.
          6    2    1    2  501    0  0.21682694289E+02 -0.15961828035E+03 -0.21798841439E+03  0.32075546645E+03  0.17151380642E+03 0.  0.
         24    2    3    3    0    0 -0.43509818028E+00 -0.14457735936E+03 -0.88000838017E+02  0.18796131725E+03  0.81746603249E+02 0.  0.
         -6    2    1    2    0  502 -0.21682694289E+02  0.15961828035E+03 -0.10842356246E+03  0.25941823293E+03  0.17202911389E+03 0.  0.
        -24    2    5    5    0    0  0.42374859438E+02  0.12422984594E+03 -0.10282740655E+03  0.18587152369E+03  0.82134429116E+02 0.  0.
          5    1    3    3  501    0  0.22117792469E+02 -0.15040920992E+02 -0.12998757637E+03  0.13279414919E+03  0.47000000000E+01 0. -1.
        -11    1    4    4    0    0  0.24257553976E+02 -0.86073697036E+01 -0.34903989964E+01  0.25974961469E+02  0.00000000000E+00 0.  1.
         12    1    4    4    0    0 -0.24692652157E+02 -0.13596998965E+03 -0.84510439020E+02  0.16198635579E+03  0.00000000000E+00 0. -1.
         -5    1    5    5    0  502 -0.64057553726E+02  0.35388434411E+02 -0.55961559178E+01  0.73546709244E+02  0.47000000000E+01 0.  1.
         13    1    6    6    0    0  0.32869064249E+02  0.29825945795E+01 -0.18020764636E+02  0.37603446824E+02  0.00000000000E+00 0. -1.
        -14    1    6    6    0    0  0.95057951891E+01  0.12124725136E+03 -0.84806641909E+02  0.14826807686E+03  0.00000000000E+00 0.  1.
</event>
<event>
12    1  0.8526130E-002  0.2239139E+03  0.7818608E-02  0.1131319E+00
         21   -1    0    0  503  502  0.00000000000E+00  0.00000000000E+00  0.21478128741E+03  0.21478128741E+03  0.00000000000E+00 0. -1.
         21   -1    0    0  501  503 -0.00000000000E+00 -0.00000000000E+00 -0.30855853346E+03  0.30855853346E+03  0.00000000000E+00 0.  1.
          6    2    1    2  501    0  0.33455430414E+02  0.13906947958E+03  0.83645652528E+02  0.23902722562E+03  0.17227255564E+03 0.  0.
         24    2    3    3    0    0 -0.99024874059E+01  0.27140904210E+00  0.25126700804E+02  0.82210864439E+02  0.77647551274E+02 0.  0.
         -6    2    1    2    0  502 -0.33455430414E+02 -0.13906947958E+03 -0.17742289858E+03  0.28431259525E+03  0.16998582558E+03 0.  0.
        -24    2    5    5    0    0  0.31772894147E+02 -0.11127097218E+03 -0.15570801224E+03  0.21000837176E+03  0.80422540880E+02 0.  0.
          5    1    3    3  501    0  0.43357917820E+02  0.13879807054E+03  0.58518951724E+02  0.15681636118E+03  0.47000000000E+01 0. -1.
        -13    1    4    4    0    0  0.84866954796E+01  0.32448185841E+02 -0.56808707784E+01  0.34017364056E+02  0.00000000000E+00 0.  1.
         14    1    4    4    0    0 -0.18389182886E+02 -0.32176776799E+02  0.30807571582E+02  0.48193500383E+02  0.00000000000E+00 0. -1.
         -5    1    5    5    0  502 -0.65228324561E+02 -0.27798507409E+02 -0.21714886339E+02  0.74304223486E+02  0.47000000000E+01 0.  1.
         11    1    6    6    0    0 -0.24903803571E+01  0.89058462604E+01  0.13012810507E+01  0.93385986266E+01  0.00000000000E+00 0. -1.
        -12    1    6    6    0    0  0.34263274505E+02 -0.12017681844E+03 -0.15700929329E+03  0.20066977313E+03  0.00000000000E+00 0.  1.
</event>
<event>
12    1  0.8526130E-002  0.1901085E+03  0.7818608E-02  0.1158382E+00
         21   -1    0    0  501  502  0.00000000000E+00  0.00000000000E+00  0.41585000082E+03  0.41585000082E+03  0.00000000000E+00 0.  1.
         21   -1    0    0  502  503 -0.00000000000E+00 -0.00000000000E+00 -0.94654010752E+02  0.94654010752E+02  0.00000000000E+00 0.  1.
         -6    2    1    2    0  503 -0.39562219571E+02  0.70943821465E+02  0.87379741630E+02  0.20915489782E+03  0.17179160926E+03 0.  0.
        -24    2    3    3    0    0 -0.60342569097E+02  0.10495803913E+03  0.86067000988E+02  0.16899766662E+03  0.80593219560E+02 0.  0.
          6    2    1    2  501    0  0.39562219571E+02 -0.70943821465E+02  0.23381624843E+03  0.30134911375E+03  0.17188093351E+03 0.  0.
         24    2    5    5    0    0 -0.12405339363E+02 -0.51379615532E+02  0.22536384219E+03  0.24498495398E+03  0.80218507667E+02 0.  0.
          5    1    5    5  501    0  0.51967558934E+02 -0.19564205933E+02  0.84524062411E+01  0.56364159770E+02  0.47000000000E+01 0. -1.
        -13    1    6    6    0    0  0.29356088199E+02 -0.23497823722E+02  0.49924580969E+02  0.62501131341E+02  0.00000000000E+00 0.  1.
         14    1    6    6    0    0 -0.41761427561E+02 -0.27881791810E+02  0.17543926122E+03  0.18248382264E+03  0.00000000000E+00 0. -1.
         -5    1    3    3    0  503  0.20780349526E+02 -0.34014217665E+02  0.13127406420E+01  0.40157231202E+02  0.47000000000E+01 0.  1.
         11    1    4    4    0    0  0.60183432714E+01  0.57219187530E+02  0.60157706011E+02  0.83241849269E+02  0.00000000000E+00 0. -1.
        -12    1    4    4    0    0 -0.66360912369E+02  0.47738851601E+02  0.25909294978E+02  0.85755817347E+02  0.00000000000E+00 0.  1.
</event>
<event>
12    1  0.8526130E-002  0.2193576E+03  0.7818608E-02  0.1134493E+00
         21   -1    0    0  501  502  0.00000000000E+00  0.00000000000E+00  0.11536041463E+03  0.11536041463E+03  0.00000000000E+00 0.  1.
         21   -1    0    0  502  503 -0.00000000000E+00 -0.00000000000E+00 -0.60504653020E+03  0.60504653020E+03  0.00000000000E+00 0.  1.
         -6    2    1    2    0  503  0.43112905095E+02 -0.12831201828E+03 -0.44656652354E+03  0.49753331259E+03  0.17261239982E+03 0.  0.
        -24    2    3    3    0    0 -0.47002093269E+02 -0.80827503183E+02 -0.21822079226E+03  0.24745461479E+03  0.69793912063E+02 0.  0.
          6    2    1    2  501    0 -0.43112905095E+02  0.12831201828E+03 -0.43119592028E+02  0.22287363223E+03  0.17172844874E+03 0.  0.
         24    2    5    5    0    0 -0.83263541979E+02  0.95279645604E+02 -0.69904068887E+02  0.16419902539E+03  0.77869845279E+02 0.  0.
          5    1    5    5  501    0  0.40150636884E+02  0.33032372679E+02  0.26784476859E+02  0.58674606838E+02  0.47000000000E+01 0. -1.
        -13    1    6    6    0    0 -0.17527030199E+02  0.29954211144E+02  0.15650611808E+02  0.38070897058E+02  0.00000000000E+00 0.  1.
         14    1    6    6    0    0 -0.65736511780E+02  0.65325434460E+02 -0.85554680695E+02  0.12612812833E+03  0.00000000000E+00 0. -1.
         -5    1    3    3    0  503  0.90114998365E+02 -0.47484515101E+02 -0.22834573128E+03  0.25007869781E+03  0.47000000000E+01 0.  1.
         13    1    4    4    0    0 -0.15231430857E+02  0.55486500364E+01 -0.78429678119E+02  0.80087442293E+02  0.00000000000E+00 0. -1.
        -14    1    4    4    0    0 -0.31770662413E+02 -0.86376153219E+02 -0.13979111414E+03  0.16736717249E+03  0.00000000000E+00 0.  1.
</event>
<event>
12    1  0.8526130E-002  0.1940756E+03  0.7818608E-02  0.1155044E+00
         21   -1    0    0  501  502  0.00000000000E+00  0.00000000000E+00  0.41043915484E+03  0.41043915484E+03  0.00000000000E+00 0. -1.
         21   -1    0    0  502  503 -0.00000000000E+00 -0.00000000000E+00 -0.15505715269E+03  0.15505715269E+03  0.00000000000E+00 0. -1.
         -6    2    1    2    0  503  0.82475357672E+02 -0.36878925523E+02 -0.53771911918E+02  0.20047373232E+03  0.17069287937E+03 0.  0.
        -24    2    3    3    0    0  0.80201690417E+02 -0.75930035329E+02 -0.83188017136E+00  0.13448209875E+03  0.76727188459E+02 0.  0.
          6    2    1    2  501    0 -0.82475357672E+02  0.36878925523E+02  0.30915391408E+03  0.36502257521E+03  0.17176465892E+03 0.  0.
         24    2    5    5    0    0 -0.44550371600E+02  0.69541021133E+02  0.10868199057E+03  0.15834359908E+03  0.80251050254E+02 0.  0.
          5    1    5    5  501    0 -0.37924986072E+02 -0.32662095610E+02  0.20047192351E+03  0.20667897613E+03  0.47000000000E+01 0. -1.
        -13    1    6    6    0    0 -0.76395527572E+01  0.12872784616E+02 -0.12543429527E+02  0.19529694682E+02  0.00000000000E+00 0.  1.
         14    1    6    6    0    0 -0.36910818843E+02  0.56668236517E+02  0.12122542010E+03  0.13881390440E+03  0.00000000000E+00 0. -1.
         -5    1    3    3    0  503  0.22736672551E+01  0.39051109806E+02 -0.52940031747E+02  0.65991633569E+02  0.47000000000E+01 0.  1.
         11    1    4    4    0    0  0.28908168382E+02 -0.38160961132E+02 -0.37652631923E+02  0.60906993395E+02  0.00000000000E+00 0. -1.
        -12    1    4    4    0    0  0.51293522034E+02 -0.37769074197E+02  0.36820751751E+02  0.73575105354E+02  0.00000000000E+00 0.  1.
</event>
<event>
12    1  0.8526130E-002  0.2089949E+03  0.7818608E-02  0.1142427E+00
         21   -1    0    0  501  502  0.00000000000E+00  0.00000000000E+00  0.18340211963E+03  0.18340211963E+03  0.00000000000E+00 0. -1.
         21   -1    0    0  502  503 -0.00000000000E+00 -0.00000000000E+00 -0.26072679777E+03  0.26072679777E+03  0.00000000000E+00 0. -1.
         -6    2    1    2    0  503  0.11679831212E+03  0.19046989057E+02  0.27215535605E+02  0.21044640898E+03  0.17187894626E+03 0.  0.
        -24    2    3    3    0    0  0.54695982548E+02  0.30146911331E+02  0.78925103075E+02  0.12874036893E+03  0.80277169405E+02 0.  0.
          6    2    1    2  501    0 -0.11679831212E+03 -0.19046989057E+02 -0.10454021375E+03  0.23368250842E+03  0.17226208214E+03 0.  0.
         24    2    5    5    0    0 -0.23660517617E+02  0.32241767881E+02 -0.86174321311E+02  0.12567981698E+03  0.82280319961E+02 0.  0.
          5    1    5    5  501    0 -0.93137794502E+02 -0.51288756938E+02 -0.18365892440E+02  0.10800269144E+03  0.47000000000E+01 0. -1.
        -11    1    6    6    0    0 -0.54130915424E+02  0.21236565983E+02 -0.63711913122E+02  0.86257495982E+02  0.00000000000E+00 0.  1.
         12    1    6    6    0    0  0.30470397806E+02  0.11005201899E+02 -0.22462408189E+02  0.39422320999E+02  0.00000000000E+00 0. -1.
         -5    1    3    3    0  503  0.62102329571E+02 -0.11099922275E+02 -0.51709567470E+02  0.81706040050E+02  0.47000000000E+01 0.  1.
         13    1    4    4    0    0  0.57245102870E+02  0.51055065427E+01  0.14066401624E+02  0.59168671223E+02  0.00000000000E+00 0. -1.
        -14    1    4    4    0    0 -0.25491203220E+01  0.25041404789E+02  0.64858701451E+02  0.69571697709E+02  0.00000000000E+00 0.  1.
</event>
<event>
12    1  0.8526130E-002  0.1893056E+03  0.7818608E-02  0.1160106E+00
         21   -1    0    0  503  502  0.00000000000E+00  0.00000000000E+00  0.22387649640E+03  0.22387649640E+03  0.00000000000E+00 0. -1.
         21   -1    0    0  501  503 -0.00000000000E+00 -0.00000000000E+00 -0.20699076182E+03  0.20699076182E+03  0.00000000000E+00 0. -1.
          6    2    1    2  501    0  0.63620780368E+02 -0.45238078846E+02 -0.98186265720E+02  0.20933127558E+03  0.16758565776E+03 0.  0.
         24    2    3    3    0    0  0.14251630697E+02  0.24094259171E+02 -0.74159261047E+01  0.84809668664E+02  0.79712242700E+02 0.  0.
         -6    2    1    2    0  502 -0.63620780368E+02  0.45238078846E+02  0.11507200030E+03  0.22153598264E+03  0.17246025305E+03 0.  0.
        -24    2    5    5    0    0  0.25838235390E+02  0.47249432363E+02  0.77270877029E+02  0.12428385689E+03  0.81089859905E+02 0.  0.
          5    1    3    3  501    0  0.49369149671E+02 -0.69332338017E+02 -0.90770339616E+02  0.12452160691E+03  0.47000000000E+01 0. -1.
        -13    1    4    4    0    0 -0.50197890857E+01 -0.28233454749E+02 -0.38305485203E+01  0.28930941075E+02  0.00000000000E+00 0.  1.
         14    1    4    4    0    0  0.19271419782E+02  0.52327713920E+02 -0.35853775845E+01  0.55878727588E+02  0.00000000000E+00 0. -1.
         -5    1    5    5    0  502 -0.89459015758E+02 -0.20113535166E+01  0.37801123273E+02  0.97252125756E+02  0.47000000000E+01 0.  1.
         13    1    6    6    0    0 -0.19677021303E+02  0.97854874587E+01  0.58381726408E+02  0.62380821657E+02  0.00000000000E+00 0. -1.
        -14    1    6    6    0    0  0.45515256694E+02  0.37463944904E+02  0.18889150620E+02  0.61903035231E+02  0.00000000000E+00 0.  1.
</event>
<event>
12    1  0.8526130E-002  0.1739548E+03  0.7818608E-02  0.1173978E+00
         21   -1    0    0  503  502  0.00000000000E+00  0.00000000000E+00  0.68084634434E+02  0.68084634434E+02  0.00000000000E+00 0.  1.
         21   -1    0    0  501  503 -0.00000000000E+00 -0.00000000000E+00 -0.77772804065E+03  0.77772804065E+03  0.00000000000E+00 0.  1.
          6    2    1    2  501    0 -0.19759631973E+02  0.24819973435E+02 -0.63291157268E+03  0.65638201384E+03  0.17103746702E+03 0.  0.
         24    2    3    3    0    0 -0.48969398736E+02  0.56119040704E+02 -0.57086085545E+03  0.58084908331E+03  0.77176373010E+02 0.  0.
         -6    2    1    2    0  502  0.19759631973E+02 -0.24819973435E+02 -0.76731833535E+02  0.18943066124E+03  0.17026369843E+03 0.  0.
        -24    2    5    5    0    0 -0.23785923509E+02  0.39867222324E+02 -0.24944783369E+02  0.95704265482E+02  0.79886786398E+02 0.  0.
          5    1    3    3  501    0  0.29209766763E+02 -0.31299067269E+02 -0.62050717228E+02  0.75532930532E+02  0.47000000000E+01 0. -1.
        -11    1    4    4    0    0 -0.41219834513E+02 -0.73586571181E+01 -0.27378197557E+03  0.27696533129E+03  0.00000000000E+00 0.  1.
         12    1    4    4    0    0 -0.77495642231E+01  0.63477697822E+02 -0.29707887988E+03  0.30388375202E+03  0.00000000000E+00 0. -1.
         -5    1    5    5    0  502  0.43545555482E+02 -0.64687195760E+02 -0.51787050167E+02  0.93726395762E+02  0.47000000000E+01 0.  1.
         11    1    6    6    0    0  0.34815134240E+01  0.29425109677E+02 -0.49408379925E+02  0.57612030185E+02  0.00000000000E+00 0. -1.
        -12    1    6    6    0    0 -0.27267436933E+02  0.10442112647E+02  0.24463596556E+02  0.38092235297E+02  0.00000000000E+00 0.  1.
</event>
<event>
12    1  0.8526130E-002  0.2141306E+03  0.7818608E-02  0.1138410E+00
         21   -1    0    0  503  502  0.00000000000E+00  0.00000000000E+00  0.71604228917E+02  0.71604228917E+02  0.00000000000E+00 0.  1.
         21   -1    0    0  501  503 -0.00000000000E+00 -0.00000000000E+00 -0.76816208310E+03  0.76816208310E+03  0.00000000000E+00 0.  1.
          6    2    1    2  501    0 -0.78740221648E+02 -0.10032467236E+03 -0.52057065640E+03  0.56289052389E+03  0.17200834629E+03 0.  0.
         24    2    3    3    0    0  0.18832657057E+02 -0.79181835358E+02 -0.26789365583E+03  0.29116411216E+03  0.79906804182E+02 0.  0.
         -6    2    1    2    0  502  0.78740221648E+02  0.10032467236E+03 -0.17598719778E+03  0.27687578812E+03  0.17153322091E+03 0.  0.
        -24    2    5    5    0    0 -0.12209724963E+02  0.88452339630E+02 -0.11674374523E+03  0.16758387743E+03  0.80513105474E+02 0.  0.
          5    1    3    3  501    0 -0.97572878705E+02 -0.21142837004E+02 -0.25267700057E+03  0.27172641173E+03  0.47000000000E+01 0. -1.
        -11    1    4    4    0    0 -0.27133521063E+02 -0.56279556220E+02 -0.15607465778E+03  0.16811577920E+03  0.00000000000E+00 0.  1.
         12    1    4    4    0    0  0.45966178120E+02 -0.22902279137E+02 -0.11181899805E+03  0.12304833296E+03  0.00000000000E+00 0. -1.
         -5    1    5    5    0  502  0.90949946611E+02  0.11872332731E+02 -0.59243452548E+02  0.10929191069E+03  0.47000000000E+01 0.  1.
         13    1    6    6    0    0  0.19217748588E+02  0.76160514756E+02 -0.10647025775E+03  0.13230896286E+03  0.00000000000E+00 0. -1.
        -14    1    6    6    0    0 -0.31427473552E+02  0.12291824874E+02 -0.10273487486E+02  0.35274914567E+02  0.00000000000E+00 0.  1.
</event>
<event>
12    1  0.8526130E-002  0.1737524E+03  0.7818608E-02  0.1174187E+00
         21   -1    0    0  503  502  0.00000000000E+00  0.00000000000E+00  0.65660858461E+02  0.65660858461E+02  0.00000000000E+00 0.  1.
         21   -1    0    0  501  503 -0.00000000000E+00 -0.00000000000E+00 -0.45918071351E+03  0.45918071351E+03  0.00000000000E+00 0.  1.
          6    2    1    2  501    0  0.92669141778E+01  0.23909062632E+02 -0.21189155256E+03  0.27402178779E+03  0.17184990883E+03 0.  0.
         24    2    3    3    0    0  0.17053344315E+02 -0.52184541541E+02 -0.11796886021E+03  0.15280121516E+03  0.80109402993E+02 0.  0.
         -6    2    1    2    0  502 -0.92669141778E+01 -0.23909062632E+02 -0.18162830249E+03  0.25081978418E+03  0.17106783712E+03 0.  0.
        -24    2    5    5    0    0 -0.42941590201E+02 -0.69049484194E+01 -0.34799628012E+02  0.99149505766E+02  0.82024093425E+02 0.  0.
          5    1    3    3  501    0 -0.77864301371E+01  0.76093604173E+02 -0.93922692351E+02  0.12122057263E+03  0.47000000000E+01 0. -1.
        -13    1    4    4    0    0 -0.20827055767E+02 -0.32876532355E+02 -0.98749227920E+02  0.10614161600E+03  0.00000000000E+00 0.  1.
         14    1    4    4    0    0  0.37880400082E+02 -0.19308009186E+02 -0.19219632292E+02  0.46659599168E+02  0.00000000000E+00 0. -1.
         -5    1    5    5    0  502  0.33674676024E+02 -0.17004114212E+02 -0.14682867448E+03  0.15167027841E+03  0.47000000000E+01 0.  1.
         11    1    6    6    0    0  0.23924596582E+02  0.40755062239E+01 -0.35439834071E+01  0.24526636357E+02  0.00000000000E+00 0. -1.
        -12    1    6    6    0    0 -0.66866186783E+02 -0.10980454643E+02 -0.31255644605E+02  0.74622869409E+02  0.00000000000E+00 0.  1.
</event>
<event>
12    1  0.8526130E-002  0.2445462E+03  0.7818608E-02  0.1116890E+00
         21   -1    0    0  503  502  0.00000000000E+00  0.00000000000E+00  0.70788410649E+03  0.70788410649E+03  0.00000000000E+00 0.  1.
         21   -1    0    0  501  503 -0.00000000000E+00 -0.00000000000E+00 -0.91864866705E+02  0.91864866705E+02  0.00000000000E+00 0. -1.
          6    2    1    2  501    0 -0.17080895835E+03 -0.28523958215E+02  0.19287499537E+03  0.31102215296E+03  0.17188571596E+03 0.  0.
         24    2    3    3    0    0 -0.15084806503E+03 -0.29600151651E+02  0.72344299623E+02  0.18875468357E+03  0.82239438115E+02 0.  0.
         -6    2    1    2    0  502  0.17080895835E+03  0.28523958215E+02  0.42314424442E+03  0.48872682023E+03  0.17266596881E+03 0.  0.
        -24    2    5    5    0    0  0.14232617682E+03 -0.24509250096E+02  0.37880367110E+03  0.41381376082E+03  0.83019054816E+02 0.  0.
          5    1    3    3  501    0 -0.19960893318E+02  0.10761934358E+01  0.12053069575E+03  0.12226746939E+03  0.47000000000E+01 0. -1.
        -11    1    4    4    0    0 -0.36783962988E+01 -0.23883551179E+02  0.23178750974E+02  0.33484460769E+02  0.00000000000E+00 0.  1.
         12    1    4    4    0    0 -0.14716966873E+03 -0.57166004711E+01  0.49165548649E+02  0.15527022280E+03  0.00000000000E+00 0. -1.
         -5    1    5    5    0  502  0.28482781534E+02  0.53033208310E+02  0.44340573323E+02  0.74913059411E+02  0.47000000000E+01 0.  1.
         11    1    6    6    0    0  0.29266180139E+02  0.14541122404E+02  0.27519049908E+02  0.42722963949E+02  0.00000000000E+00 0. -1.
        -12    1    6    6    0    0  0.11305999668E+03 -0.39050372500E+02  0.35128462119E+03  0.37109079687E+03  0.00000000000E+00 0.  1.
</event>
<event>
12    1  0.8526130E-002  0.2508958E+03  0.7818608E-02  0.1112760E+00
         21   -1    0    0  503  502  0.00000000000E+00  0.00000000000E+00  0.35997175057E+03  0.35997175057E+03  0.00000000000E+00 0.  1.
         21   -1    0    0  501  503 -0.00000000000E+00 -0.00000000000E+00 -0.39152234733E+03  0.39152234733E+03  0.00000000000E+00 0. -1.
          6    2    1    2  501    0  0.57071724031E+02 -0.17365077990E+03  0.26379406879E+03  0.36396709741E+03  0.17167691231E+03 0.  0.
         24    2    3    3    0    0  0.21873479991E+02 -0.19033258060E+03  0.24498320010E+03  0.32045689585E+03  0.77271685649E+02 0.  0.
         -6    2    1    2    0  502 -0.57071724031E+02  0.17365077990E+03 -0.29534466555E+03  0.38752700049E+03  0.17186311296E+03 0.  0.
        -24    2    5    5    0    0 -0.13849048063E+01  0.15821635647E+03 -0.26909559770E+03  0.32388466533E+03  0.86339459795E+02 0.  0.
          5    1    3    3  501    0  0.35198244040E+02  0.16681800701E+02  0.18810868693E+02  0.43510201552E+02  0.47000000000E+01 0. -1.
        -11    1    4    4    0    0  0.17223967092E+02 -0.90548772466E+02  0.59273412721E+02  0.10958596029E+03  0.00000000000E+00 0.  1.
         12    1    4    4    0    0  0.46495128983E+01 -0.99783808138E+02  0.18570978738E+03  0.21087093556E+03  0.00000000000E+00 0. -1.
         -5    1    5    5    0  502 -0.55686819224E+02  0.15434423433E+02 -0.26249067847E+02  0.63642335162E+02  0.47000000000E+01 0.  1.
         11    1    6    6    0    0  0.22340472826E+02  0.34269558333E+02 -0.12899972657E+03  0.13533081249E+03  0.00000000000E+00 0. -1.
        -12    1    6    6    0    0 -0.23725377632E+02  0.12394679814E+03 -0.14009587113E+03  0.18855385284E+03  0.00000000000E+00 0.  1.
</event>
<event>
12    1  0.8526130E-002  0.1884677E+03  0.7818608E-02  0.1159914E+00
         21   -1    0    0  503  502  0.00000000000E+00  0.00000000000E+00  0.71259234240E+02  0.71259234240E+02  0.00000000000E+00 0. -1.
         21   -1    0    0  501  503 -0.00000000000E+00 -0.00000000000E+00 -0.77222960546E+03  0.77222960546E+03  0.00000000000E+00 0. -1.
          6    2    1    2  501    0 -0.76737137623E+02 -0.10572907757E+02 -0.60209792226E+03  0.63090567617E+03  0.17181294935E+03 0.  0.
         24    2    3    3    0    0 -0.17637245583E+02  0.21645939094E+02 -0.14626144888E+03  0.17010221286E+03  0.82235833319E+02 0.  0.
         -6    2    1    2    0  502  0.76737137623E+02  0.10572907757E+02 -0.98872448968E+02  0.21258316354E+03  0.17150937463E+03 0.  0.
        -24    2    5    5    0    0  0.32802579664E+01  0.39401957934E+02 -0.69142594432E+01  0.91317232939E+02  0.82022897209E+02 0.  0.
          5    1    3    3  501    0 -0.59099892040E+02 -0.32218846850E+02 -0.45583647338E+03  0.46080346331E+03  0.47000000000E+01 0. -1.
        -13    1    4    4    0    0 -0.12251104767E+02  0.20827970706E+02 -0.15658012743E+03  0.15843367772E+03  0.00000000000E+00 0.  1.
         14    1    4    4    0    0 -0.53861408168E+01  0.81796838738E+00  0.10318678552E+02  0.11668535137E+02  0.00000000000E+00 0. -1.
         -5    1    5    5    0  502  0.73456879657E+02 -0.28829050177E+02 -0.91958189524E+02  0.12126593060E+03  0.47000000000E+01 0.  1.
         11    1    6    6    0    0  0.34772352106E+02  0.26072846354E+02 -0.27472697788E+02  0.51416523722E+02  0.00000000000E+00 0. -1.
        -12    1    6    6    0    0 -0.31492094140E+02  0.13329111580E+02  0.20558438345E+02  0.39900709216E+02  0.00000000000E+00 0.  1.
</event>
<event>
12    1  0.8526130E-002  0.1958983E+03  0.7818608E-02  0.1153663E+00
         21   -1    0    0  501  502  0.00000000000E+00  0.00000000000E+00  0.97598130095E+02  0.97598130095E+02  0.00000000000E+00 0. -1.
         21   -1    0    0  502  503 -0.00000000000E+00 -0.00000000000E+00 -0.39155741200E+03  0.39155741200E+03  0.00000000000E+00 0. -1.
         -6    2    1    2    0  503  0.64154944061E+02  0.66422122227E+02 -0.16451284976E+03  0.25435236540E+03  0.17059570006E+03 0.  0.
        -24    2    3    3    0    0  0.51561749065E+01  0.41074350287E+02 -0.16769242843E+03  0.18988870103E+03  0.78887767332E+02 0.  0.
          6    2    1    2  501    0 -0.64154944061E+02 -0.66422122227E+02 -0.12944643214E+03  0.23480317670E+03  0.17276688868E+03 0.  0.
         24    2    5    5    0    0 -0.44180683153E+02 -0.94453709202E+02 -0.14623722678E+03  0.19621870117E+03  0.79012760037E+02 0.  0.
          5    1    5    5  501    0 -0.19974260908E+02  0.28031586974E+02  0.16790794633E+02  0.38584475524E+02  0.47000000000E+01 0. -1.
        -13    1    6    6    0    0  0.55331638596E+01  0.10801366819E+02 -0.26900110166E+02  0.29511037840E+02  0.00000000000E+00 0.  1.
         14    1    6    6    0    0 -0.49713847013E+02 -0.10525507602E+03 -0.11933711661E+03  0.16670766333E+03  0.00000000000E+00 0. -1.
         -5    1    3    3    0  503  0.58998769154E+02  0.25347771941E+02  0.31795786624E+01  0.64463664374E+02  0.47000000000E+01 0.  1.
         13    1    4    4    0    0  0.12259232377E+02  0.62081199502E+02 -0.97139631357E+02  0.11593305003E+03  0.00000000000E+00 0. -1.
        -14    1    4    4    0    0 -0.71030574706E+01 -0.21006849215E+02 -0.70552797068E+02  0.73955650991E+02  0.00000000000E+00 0.  1.
</event>
<event>
12    1  0.8526130E-002  0.2265291E+03  0.7818608E-02  0.1129370E+00
         21   -1    0    0  501  502  0.00000000000E+00  0.00000000000E+00  0.17012758170E+03  0.17012758170E+03  0.00000000000E+00 0. -1.
         21   -1    0    0  502  503 -0.00000000000E+00 -0.00000000000E+00 -0.30189092204E+03  0.30189092204E+03  0.00000000000E+00 0. -1.
         -6    2    1    2    0  503 -0.13593232734E+03  0.47857569065E+02 -0.45507108817E+02  0.22962300117E+03  0.17288111863E+03 0.  0.
        -24    2    3    3    0    0 -0.18173427407E+02 -0.18284451648E+02  0.52581473530E+01  0.85258439548E+02  0.81097217984E+02 0.  0.
          6    2    1    2  501    0  0.13593232734E+03 -0.47857569065E+02 -0.86256231524E+02  0.24239550258E+03  0.17477842447E+03 0.  0.
         24    2    5    5    0    0  0.97488373247E+02  0.30762955368E+01 -0.11615521466E+03  0.17176806201E+03  0.80615052699E+02 0.  0.
          5    1    5    5  501    0  0.38443954091E+02 -0.50933864602E+02  0.29898983131E+02  0.70627440572E+02  0.47000000000E+01 0. -1.
        -13    1    6    6    0    0  0.30689060168E+02  0.34440837819E+02 -0.19305242001E+02  0.50006820459E+02  0.00000000000E+00 0.  1.
         14    1    6    6    0    0  0.66799313079E+02 -0.31364542282E+02 -0.96849972655E+02  0.12176124155E+03  0.00000000000E+00 0. -1.
         -5    1    3    3    0  503 -0.11775889993E+03  0.66142020713E+02 -0.50765256170E+02  0.14436456162E+03  0.47000000000E+01 0.  1.
         11    1    4    4    0    0 -0.57833743197E+01  0.21052672858E+02 -0.25676551606E+02  0.33703824046E+02  0.00000000000E+00 0. -1.
        -12    1    4    4    0    0 -0.12390053088E+02 -0.39337124505E+02  0.30934698959E+02  0.51554615502E+02  0.00000000000E+00 0.  1.
</event>
<event>
12    1  0.8526130E-002  0.1760097E+03  0.7818608E-02  0.1171822E+00
         21   -1    0    0  501  502  0.00000000000E+00  0.00000000000E+00  0.98583436630E+03  0.98583436630E+03  0.00000000000E+00 0. -1.
         21   -1    0    0  502  503 -0.00000000000E+00 -0.00000000000E+00 -0.42803608026E+02  0.42803608026E+02  0.00000000000E+00 0. -1.
         -6    2    1    2    0  503 -0.23744125691E+02 -0.27091000601E+02  0.20509746006E+03  0.27000434952E+03  0.17187109943E+03 0.  0.
        -24    2    3    3    0    0 -0.24941578099E+01  0.16251479733E+02  0.20629696164E+03  0.22148981005E+03  0.78923812347E+02 0.  0.
          6    2    1    2  501    0  0.23744125691E+02  0.27091000601E+02  0.73793329821E+03  0.75863362481E+03  0.17228383051E+03 0.  0.
         24    2    5    5    0    0  0.71420735841E+02  0.52417370365E+02  0.56618371572E+03  0.57853783572E+03  0.79331741356E+02 0.  0.
          5    1    5    5  501    0 -0.47676610149E+02 -0.25326369765E+02  0.17174958249E+03  0.18009578909E+03  0.47000000000E+01 0. -1.
        -11    1    6    6    0    0  0.77920481303E+02  0.38661846144E+02  0.31198376047E+03  0.32388301368E+03  0.00000000000E+00 0.  1.
         12    1    6    6    0    0 -0.64997454626E+01  0.13755524221E+02  0.25419995526E+03  0.25465482204E+03  0.00000000000E+00 0. -1.
         -5    1    3    3    0  503 -0.21249967882E+02 -0.43342480334E+02 -0.11995015787E+01  0.48514539475E+02  0.47000000000E+01 0.  1.
         13    1    4    4    0    0  0.14397093529E+02 -0.27402763633E+02  0.11222544199E+03  0.11641622561E+03  0.00000000000E+00 0. -1.
        -14    1    4    4    0    0 -0.16891251339E+02  0.43654243366E+02  0.94071519652E+02  0.10507358443E+03  0.00000000000E+00 0.  1.
</event>
<event>
12    1  0.8526130E-002  0.2106838E+03  0.7818608E-02  0.1142130E+00
         21   -1    0    0  503  502  0.00000000000E+00  0.00000000000E+00  0.17400200122E+03  0.17400200122E+03  0.00000000000E+00 0.  1.
         21   -1    0    0  501  503 -0.00000000000E+00 -0.00000000000E+00 -0.33257385911E+03  0.33257385911E+03  0.00000000000E+00 0.  1.
          6    2    1    2  501    0 -0.14319245694E+02 -0.11266875127E+03 -0.20744652861E+03  0.29567162735E+03  0.17744960039E+03 0.  0.
         24    2    3    3    0    0  0.37462839620E+02 -0.71949429513E+02 -0.47790959409E+02  0.12289593953E+03  0.78988932093E+02 0.  0.
         -6    2    1    2    0  502  0.14319245694E+02  0.11266875127E+03  0.48874670712E+02  0.21090423299E+03  0.17085834409E+03 0.  0.
        -24    2    5    5    0    0  0.59055892517E+02  0.10824655505E+03  0.31406519809E+01  0.14660326987E+03  0.79232189921E+02 0.  0.
          5    1    3    3  501    0 -0.51782085314E+02 -0.40719321752E+02 -0.15965556920E+03  0.17277568781E+03  0.47000000000E+01 0. -1.
        -13    1    4    4    0    0 -0.81903391803E+01 -0.13051777886E+02 -0.45829680805E+02  0.48350700145E+02  0.00000000000E+00 0.  1.
         14    1    4    4    0    0  0.45653178800E+02 -0.58897651627E+02 -0.19612786043E+01  0.74545239389E+02  0.00000000000E+00 0. -1.
         -5    1    5    5    0  502 -0.44736646823E+02  0.44221962115E+01  0.45734018731E+02  0.64300963116E+02  0.47000000000E+01 0.  1.
         13    1    6    6    0    0  0.66845158153E+02  0.40230301436E+02 -0.90683803025E+00  0.78022911234E+02  0.00000000000E+00 0. -1.
        -14    1    6    6    0    0 -0.77892656358E+01  0.68016253618E+02  0.40474900112E+01  0.68580358637E+02  0.00000000000E+00 0.  1.
</event>
<event>
12    1  0.8526130E-002  0.1778324E+03  0.7818608E-02  0.1170620E+00
         21   -1    0    0  503  502  0.00000000000E+00  0.00000000000E+00  0.24699064703E+04  0.24699064703E+04  0.00000000000E+00 0. -1.
         21   -1    0    0  501  503 -0.00000000000E+00 -0.00000000000E+00 -0.19206357509E+02  0.19206357509E+02  0.00000000000E+00 0. -1.
          6    2    1    2  501    0 -0.14928493043E+02 -0.25509204041E+02  0.48904246665E+03  0.51941105357E+03  0.17248689511E+03 0.  0.
         24    2    3    3    0    0  0.60881530831E-01  0.27938247673E+02  0.42105985408E+03  0.43151886360E+03  0.90202990736E+02 0.  0.
         -6    2    1    2    0  502  0.14928493043E+02  0.25509204041E+02  0.19616576461E+04  0.19697017742E+04  0.17535900147E+03 0.  0.
        -24    2    5    5    0    0  0.64993783990E+02  0.42663676325E+02  0.16318962511E+04  0.16356875875E+04  0.79650036758E+02 0.  0.
          5    1    3    3  501    0 -0.14989374574E+02 -0.53447451713E+02  0.67982612575E+02  0.87892189967E+02  0.47000000000E+01 0. -1.
        -11    1    4    4    0    0  0.17579534435E+02  0.20723182952E+02  0.40704824693E+03  0.40795436714E+03  0.00000000000E+00 0.  1.
         12    1    4    4    0    0 -0.17518652904E+02  0.72150647202E+01  0.14011607151E+02  0.23564496460E+02  0.00000000000E+00 0. -1.
         -5    1    5    5    0  502 -0.50065290947E+02 -0.17154472285E+02  0.32976139503E+03  0.33401418672E+03  0.47000000000E+01 0.  1.
         13    1    6    6    0    0 -0.17547718517E+02  0.17309381780E+02  0.31431648984E+03  0.31528145030E+03  0.00000000000E+00 0. -1.
        -14    1    6    6    0    0  0.82541502507E+02  0.25354294546E+02  0.13175797613E+04  0.13204061372E+04  0.00000000000E+00 0.  1.
</event>
<event>
12    1  0.8917991E-002  0.1774648E+03  0.7818608E-02  0.1175294E+00
         21   -1    0    0  503  502  0.00000000000E+00  0.00000000000E+00  0.26375549919E+03  0.26375549919E+03  0.00000000000E+00 0.  1.
         21   -1    0    0  501  503 -0.00000000000E+00 -0.00000000000E+00 -0.11049415512E+03  0.11049415512E+03  0.00000000000E+00 0. -1.
          6    2    1    2  501    0 -0.10515036158E+01 -0.44253964688E+02  0.47034341232E+02  0.18359186852E+03  0.17185524688E+03 0.  0.
         24    2    3    3    0    0  0.43272485798E+02  0.11061799016E+01  0.71264343895E+02  0.11553790623E+03  0.79979181062E+02 0.  0.
         -6    2    1    2    0  502  0.10515036158E+01  0.44253964688E+02  0.10622700284E+03  0.19065778579E+03  0.15200886849E+03 0.  0.
        -24    2    5    5    0    0  0.51284678930E+02  0.56836789782E+01  0.62907767294E+02  0.11378331012E+03  0.79541385303E+02 0.  0.
          5    1    3    3  501    0 -0.44323989414E+02 -0.45360144589E+02 -0.24230002663E+02  0.68053962293E+02  0.47000000000E+01 0. -1.
        -13    1    4    4    0    0  0.27062049175E+02  0.37795300481E+02  0.55612248880E+02  0.72481456039E+02  0.00000000000E+00 0.  1.
         14    1    4    4    0    0  0.16210436623E+02 -0.36689120580E+02  0.15652095016E+02  0.43056450188E+02  0.00000000000E+00 0. -1.
         -5    1    5    5    0  502 -0.50233175314E+02  0.38570285710E+02  0.43319235547E+02  0.76874475674E+02  0.47000000000E+01 0.  1.
         11    1    6    6    0    0  0.96919843471E+01  0.37839823846E+02  0.12666723294E+02  0.41063763932E+02  0.00000000000E+00 0. -1.
        -12    1    6    6    0    0  0.41592694583E+02 -0.32156144867E+02  0.50241044000E+02  0.72719546187E+02  0.00000000000E+00 0.  1.
</event>
<event>
12    1  0.8526130E-002  0.1963154E+03  0.7818608E-02  0.1153120E+00
         21   -1    0    0  503  502  0.00000000000E+00  0.00000000000E+00  0.26677448860E+03  0.26677448860E+03  0.00000000000E+00 0. -1.
         21   -1    0    0  501  503 -0.00000000000E+00 -0.00000000000E+00 -0.14464171547E+03  0.14464171547E+03  0.00000000000E+00 0. -1.
          6    2    1    2  501    0 -0.88496130393E+02  0.26203637338E+02  0.78077409063E+02  0.21127189797E+03  0.17326724261E+03 0.  0.
         24    2    3    3    0    0 -0.13990654043E+02  0.63350535834E+02  0.99397666413E+01  0.10358816481E+03  0.80141625488E+02 0.  0.
         -6    2    1    2    0  502  0.88496130393E+02 -0.26203637338E+02  0.44055364066E+02  0.20014430610E+03  0.17204264720E+03 0.  0.
        -24    2    5    5    0    0  0.21186460739E+02  0.34806296553E+01 -0.40207295984E+02  0.88188809518E+02  0.75496083159E+02 0.  0.
          5    1    3    3  501    0 -0.74505476350E+02 -0.37146898496E+02  0.68137642422E+02  0.10768373317E+03  0.47000000000E+01 0. -1.
        -11    1    4    4    0    0  0.12419367608E+02 -0.15553095468E+02  0.20717668034E+01  0.20010789292E+02  0.00000000000E+00 0.  1.
         12    1    4    4    0    0 -0.26410021651E+02  0.78903631302E+02  0.78679998378E+01  0.83577375513E+02  0.00000000000E+00 0. -1.
         -5    1    5    5    0  502  0.67309669654E+02 -0.29684266993E+02  0.84262660050E+02  0.11195549658E+03  0.47000000000E+01 0.  1.
         13    1    6    6    0    0  0.17966132340E+02 -0.31668787509E+02 -0.38293709376E+02  0.52840346245E+02  0.00000000000E+00 0. -1.
        -14    1    6    6    0    0  0.32203283995E+01  0.35149417165E+02 -0.19135866079E+01  0.35348463272E+02  0.00000000000E+00 0.  1.
</event>
<event>
12    1  0.8526130E-002  0.1873197E+03  0.7818608E-02  0.1161619E+00
         21   -1    0    0  503  502  0.00000000000E+00  0.00000000000E+00  0.26666896524E+04  0.26666896524E+04  0.00000000000E+00 0. -1.
         21   -1    0    0  501  503 -0.00000000000E+00 -0.00000000000E+00 -0.28357237273E+02  0.28357237273E+02  0.00000000000E+00 0. -1.
          6    2    1    2  501    0 -0.42767083978E+02  0.49150990036E+02  0.32061520927E+03  0.36977234664E+03  0.17231550317E+03 0.  0.
         24    2    3    3    0    0 -0.11971032390E+02  0.18971883402E+02  0.44786440370E+02  0.90554197120E+02  0.75438712865E+02 0.  0.
         -6    2    1    2    0  502  0.42767083978E+02 -0.49150990036E+02  0.23177172059E+04  0.23252745431E+04  0.17562406111E+03 0.  0.
        -24    2    5    5    0    0  0.64288100815E+02 -0.54504439930E+01  0.80503399174E+03  0.81179990229E+03  0.82320630792E+02 0.  0.
          5    1    3    3  501    0 -0.30796051588E+02  0.30179106634E+02  0.27582876890E+03  0.27921814952E+03  0.47000000000E+01 0. -1.
        -13    1    4    4    0    0  0.27349012696E+02 -0.37274248202E+01  0.12169806821E+01  0.27628666873E+02  0.00000000000E+00 0.  1.
         14    1    4    4    0    0 -0.39320045086E+02  0.22699308222E+02  0.43569459688E+02  0.62925530247E+02  0.00000000000E+00 0. -1.
         -5    1    5    5    0  502 -0.21521016837E+02 -0.43700546043E+02  0.15126832142E+04  0.15134746408E+04  0.47000000000E+01 0.  1.
         13    1    6    6    0    0  0.48081992196E+02  0.10541383370E+02  0.75746738109E+03  0.75906510403E+03  0.00000000000E+00 0. -1.
        -14    1    6    6    0    0  0.16206108619E+02 -0.15991827363E+02  0.47566610650E+02  0.52734798262E+02  0.00000000000E+00 0.  1.
</event>
<event>
12    1  0.8526130E-002  0.3054618E+03  0.7818608E-02  0.1082574E+00
         21   -1    0    0  501  502  0.00000000000E+00  0.00000000000E+00  0.19138995380E+03  0.19138995380E+03  0.00000000000E+00 0. -1.
         21   -1    0    0  502  503 -0.00000000000E+00 -0.00000000000E+00 -0.49158506481E+03  0.49158506481E+03  0.00000000000E+00 0.  1.
         -6    2    1    2    0  503 -0.20888859161E+03  0.14075735195E+03 -0.18266349125E+03  0.35568215224E+03  0.17232749796E+03 0.  0.
        -24    2    3    3    0    0 -0.16350285443E+03  0.82263530203E+02 -0.53634094213E+02  0.20684644543E+03  0.80052258658E+02 0.  0.
          6    2    1    2  501    0  0.20888859161E+03 -0.14075735195E+03 -0.11753161976E+03  0.32729286638E+03  0.17280006628E+03 0.  0.
         24    2    5    5    0    0  0.15820393017E+03 -0.11941873380E+03 -0.14933405665E+03  0.26359234423E+03  0.88830996593E+02 0.  0.
          5    1    5    5  501    0  0.50684661433E+02 -0.21338618152E+02  0.31802436896E+02  0.63700522146E+02  0.47000000000E+01 0. -1.
        -13    1    6    6    0    0  0.59679452638E+02 -0.53773349158E+01 -0.15152664530E+02  0.61807410885E+02  0.00000000000E+00 0.  1.
         14    1    6    6    0    0  0.98524477535E+02 -0.11404139888E+03 -0.13418139212E+03  0.20178493334E+03  0.00000000000E+00 0. -1.
         -5    1    3    3    0  503 -0.45385737175E+02  0.58493821746E+02 -0.12902939704E+03  0.14883570681E+03  0.47000000000E+01 0.  1.
         11    1    4    4    0    0 -0.22627830983E+02 -0.15097801284E+02  0.62849050965E+00  0.27209508244E+02  0.00000000000E+00 0. -1.
        -12    1    4    4    0    0 -0.14087502345E+03  0.97361331487E+02 -0.54262584722E+02  0.17963693718E+03  0.00000000000E+00 0.  1.
</event>
<event>
12    1  0.8526130E-002  0.1949866E+03  0.7818608E-02  0.1154174E+00
         21   -1    0    0  503  502  0.00000000000E+00  0.00000000000E+00  0.74559627562E+03  0.74559627562E+03  0.00000000000E+00 0. -1.
         21   -1    0    0  501  503 -0.00000000000E+00 -0.00000000000E+00 -0.59062176620E+02  0.59062176620E+02  0.00000000000E+00 0. -1.
          6    2    1    2  501    0  0.48199424760E+02 -0.76753412328E+02  0.19260423908E+03  0.27363447464E+03  0.17194522950E+03 0.  0.
         24    2    3    3    0    0 -0.27024076419E+01  0.21853088312E+02  0.92672003426E+02  0.12422637501E+03  0.79744790137E+02 0.  0.
         -6    2    1    2    0  502 -0.48199424760E+02  0.76753412328E+02  0.49392985992E+03  0.53102397761E+03  0.17264265817E+03 0.  0.
        -24    2    5    5    0    0 -0.51943032584E+02  0.38589892134E+02  0.47809067318E+03  0.48926947234E+03  0.81404338790E+02 0.  0.
          5    1    3    3  501    0  0.50901832401E+02 -0.98606500639E+02  0.99932235657E+02  0.14940809962E+03  0.47000000000E+01 0. -1.
        -13    1    4    4    0    0  0.78428015133E+01 -0.42490103843E+01  0.95515767433E+02  0.95931358028E+02  0.00000000000E+00 0.  1.
         14    1    4    4    0    0 -0.10545209155E+02  0.26102098696E+02 -0.28437640061E+01  0.28295016985E+02  0.00000000000E+00 0. -1.
         -5    1    5    5    0  502  0.37436078248E+01  0.38163520194E+02  0.15839186737E+02  0.41754505262E+02  0.47000000000E+01 0.  1.
         11    1    6    6    0    0 -0.68642836856E+02  0.24021535562E+02  0.25763032539E+03  0.26769807205E+03  0.00000000000E+00 0. -1.
        -12    1    6    6    0    0  0.16699804272E+02  0.14568356571E+02  0.22046034780E+03  0.22157140029E+03  0.00000000000E+00 0.  1.
</event>
<event>
12    1  0.8526130E-002  0.1907071E+03  0.7818608E-02  0.1157877E+00
         21   -1    0    0  503  502  0.00000000000E+00  0.00000000000E+00  0.26165351723E+03  0.26165351723E+03  0.00000000000E+00 0. -1.
         21   -1    0    0  501  503 -0.00000000000E+00 -0.00000000000E+00 -0.14120565853E+03  0.14120565853E+03  0.00000000000E+00 0. -1.
          6    2    1    2  501    0 -0.74480944516E+02  0.31791397997E+02  0.86397910673E+02  0.20936524433E+03  0.17265891949E+03 0.  0.
         24    2    3    3    0    0  0.67322217549E-01 -0.28150329249E+02  0.64040378378E+01  0.84579169666E+02  0.79499551393E+02 0.  0.
         -6    2    1    2    0  502  0.74480944516E+02 -0.31791397997E+02  0.34049948029E+02  0.19349393142E+03  0.17240185166E+03 0.  0.
        -24    2    5    5    0    0  0.59242147411E+01  0.25781692738E+02  0.55409810991E+02  0.10133635051E+03  0.80616479580E+02 0.  0.
          5    1    3    3  501    0 -0.74548266734E+02  0.59941727246E+02  0.79993872836E+02  0.12478607466E+03  0.47000000000E+01 0. -1.
        -11    1    4    4    0    0 -0.24309466747E+02  0.60718184060E+01 -0.22422963235E+02  0.33624491558E+02  0.00000000000E+00 0.  1.
         12    1    4    4    0    0  0.24376788964E+02 -0.34222147655E+02  0.28827001073E+02  0.50954678109E+02  0.00000000000E+00 0. -1.
         -5    1    5    5    0  502  0.68556729775E+02 -0.57573090736E+02 -0.21359862962E+02  0.92157580915E+02  0.47000000000E+01 0.  1.
         11    1    6    6    0    0  0.24192280270E+02  0.44786547609E+02  0.14961279856E+02  0.53056019134E+02  0.00000000000E+00 0. -1.
        -12    1    6    6    0    0 -0.18268065529E+02 -0.19004854870E+02  0.40448531135E+02  0.48280331376E+02  0.00000000000E+00 0.  1.
</event>
<event>
12    1  0.8526130E-002  0.1944039E+03  0.7818608E-02  0.1154632E+00
         21   -1    0    0  503  502  0.00000000000E+00  0.00000000000E+00  0.42758946329E+03  0.42758946329E+03  0.00000000000E+00 0. -1.
         21   -1    0    0  501  503 -0.00000000000E+00 -0.00000000000E+00 -0.90713075447E+02  0.90713075447E+02  0.00000000000E+00 0. -1.
          6    2    1    2  501    0 -0.25444674289E+02 -0.86349557132E+02  0.12524233926E+03  0.23093197447E+03  0.17187278966E+03 0.  0.
         24    2    3    3    0    0 -0.19993422944E+02  0.13074934148E+02  0.18996487015E+02  0.85243207827E+02  0.79591752700E+02 0.  0.
         -6    2    1    2    0  502  0.25444674289E+02  0.86349557132E+02  0.21163404859E+03  0.28737056427E+03  0.17230552289E+03 0.  0.
        -24    2    5    5    0    0  0.18055331879E+02  0.94159246799E+02  0.63260466369E+02  0.13853372899E+03  0.77445133460E+02 0.  0.
          5    1    3    3  501    0 -0.54512513449E+01 -0.99424491280E+02  0.10624585224E+03  0.14568876664E+03  0.47000000000E+01 0. -1.
        -13    1    4    4    0    0  0.23685700050E+02  0.21903612443E+02  0.24268423575E+02  0.40370001334E+02  0.00000000000E+00 0.  1.
         14    1    4    4    0    0 -0.43679122993E+02 -0.88286782951E+01 -0.52719365597E+01  0.44873206493E+02  0.00000000000E+00 0. -1.
         -5    1    5    5    0  502  0.73893424094E+01 -0.78096896663E+01  0.14837358222E+03  0.14883683528E+03  0.47000000000E+01 0.  1.
         11    1    6    6    0    0 -0.19114663589E+02  0.81202945479E+02  0.48484160597E+02  0.96488354465E+02  0.00000000000E+00 0. -1.
        -12    1    6    6    0    0  0.37169995468E+02  0.12956301320E+02  0.14776305771E+02  0.42045374528E+02  0.00000000000E+00 0.  1.
</event>
<event>
12    1  0.8526130E-002  0.1880774E+03  0.7818608E-02  0.1160385E+00
         21   -1    0    0  501  502  0.00000000000E+00  0.00000000000E+00  0.93543169600E+03  0.93543169600E+03  0.00000000000E+00 0.  1.
         21   -1    0    0  502  503 -0.00000000000E+00 -0.00000000000E+00 -0.51051030643E+02  0.51051030643E+02  0.00000000000E+00 0.  1.
         -6    2    1    2    0  503 -0.63395881169E+02  0.35178291241E+02  0.69550333661E+03  0.72048456183E+03  0.17354124200E+03 0.  0.
        -24    2    3    3    0    0  0.17197790839E+02  0.10920864410E+02  0.51461556014E+03  0.52091943361E+03  0.78184731800E+02 0.  0.
          6    2    1    2  501    0  0.63395881169E+02 -0.35178291241E+02  0.18887732875E+03  0.26599816482E+03  0.17269576847E+03 0.  0.
         24    2    5    5    0    0  0.58801576114E+02 -0.85942071538E+02  0.16457027932E+03  0.20933255196E+03  0.76766369323E+02 0.  0.
          5    1    5    5  501    0  0.45943050556E+01  0.50763780296E+02  0.24307049431E+02  0.56665612861E+02  0.47000000000E+01 0. -1.
        -11    1    6    6    0    0  0.29215643407E+02  0.65058976531E+01  0.57423360110E+02  0.64755870856E+02  0.00000000000E+00 0.  1.
         12    1    6    6    0    0  0.29585932707E+02 -0.92447969191E+02  0.10714691921E+03  0.14457668110E+03  0.00000000000E+00 0. -1.
         -5    1    3    3    0  503 -0.80593672009E+02  0.24257426831E+02  0.18088777647E+03  0.19956512822E+03  0.47000000000E+01 0.  1.
         11    1    4    4    0    0  0.42570229265E+02 -0.34472725558E+01  0.17837118313E+03  0.18341315951E+03  0.00000000000E+00 0. -1.
        -12    1    4    4    0    0 -0.25372438426E+02  0.14368136966E+02  0.33624437701E+03  0.33750627411E+03  0.00000000000E+00 0.  1.
</event>
<event>
12    1  0.8526130E-002  0.2033928E+03  0.7818608E-02  0.1150570E+00
         21   -1    0    0  503  502  0.00000000000E+00  0.00000000000E+00  0.14898941933E+03  0.14898941933E+03  0.00000000000E+00 0. -1.
         21   -1    0    0  501  503 -0.00000000000E+00 -0.00000000000E+00 -0.25510296234E+03  0.25510296234E+03  0.00000000000E+00 0. -1.
          6    2    1    2  501    0 -0.10181723399E+01  0.70840627128E+02 -0.47063799796E+02  0.19230122739E+03  0.17246834399E+03 0.  0.
         24    2    3    3    0    0 -0.10956203778E+02 -0.24771169597E+01 -0.76635497827E+02  0.11248373939E+03  0.81568484049E+02 0.  0.
         -6    2    1    2    0  502  0.10181723399E+01 -0.70840627128E+02 -0.59049743219E+02  0.21179115427E+03  0.19065463468E+03 0.  0.
        -24    2    5    5    0    0  0.55895550610E+02 -0.75733922436E+02  0.92972068109E+01  0.12387718176E+03  0.79994865585E+02 0.  0.
          5    1    3    3  501    0  0.99380314377E+01  0.73317744088E+02  0.29571698031E+02  0.79817488005E+02  0.47000000000E+01 0. -1.
        -13    1    4    4    0    0 -0.39359810222E+02 -0.15026648065E+02 -0.17360136185E+02  0.45567193694E+02  0.00000000000E+00 0.  1.
         14    1    4    4    0    0  0.28403606444E+02  0.12549531106E+02 -0.59275361642E+02  0.66916545695E+02  0.00000000000E+00 0. -1.
         -5    1    5    5    0  502 -0.54877378270E+02  0.48932953080E+01 -0.68346950030E+02  0.87913972514E+02  0.47000000000E+01 0.  1.
         11    1    6    6    0    0  0.35271975062E+02 -0.44274848606E+02  0.44771124320E+02  0.72172210834E+02  0.00000000000E+00 0. -1.
        -12    1    6    6    0    0  0.20623575549E+02 -0.31459073830E+02 -0.35473917509E+02  0.51704970923E+02  0.00000000000E+00 0.  1.
</event>
<event>
12    1  0.8526130E-002  0.1820455E+03  0.7818608E-02  0.1169919E+00
         21   -1    0    0  501  502  0.00000000000E+00  0.00000000000E+00  0.10502194534E+03  0.10502194534E+03  0.00000000000E+00 0. -1.
         21   -1    0    0  502  503 -0.00000000000E+00 -0.00000000000E+00 -0.53482774565E+03  0.53482774565E+03  0.00000000000E+00 0.  1.
         -6    2    1    2    0  503 -0.59884989434E+01  0.59990655755E+02 -0.43754732876E+03  0.47390739926E+03  0.17177257427E+03 0.  0.
        -24    2    3    3    0    0 -0.14855332637E+02  0.91483054972E+02 -0.41780994758E+03  0.43541004657E+03  0.80168111519E+02 0.  0.
          6    2    1    2  501    0  0.59884989434E+01 -0.59990655755E+02  0.77415284478E+01  0.16594229172E+03  0.15440910602E+03 0.  0.
         24    2    5    5    0    0  0.38566272825E+02  0.56192474869E+01  0.18660555944E+02  0.91731201475E+02  0.80916399042E+02 0.  0.
          5    1    5    5  501    0 -0.32577773882E+02 -0.65609903242E+02 -0.10919027496E+02  0.74211090249E+02  0.47000000000E+01 0. -1.
        -13    1    6    6    0    0  0.29495714585E+02 -0.28904822994E+02 -0.13740249683E+02  0.43523332048E+02  0.00000000000E+00 0.  1.
         14    1    6    6    0    0  0.90705582407E+01  0.34524070481E+02  0.32400805628E+02  0.48207869427E+02  0.00000000000E+00 0. -1.
         -5    1    3    3    0  503  0.88668336936E+01 -0.31492399216E+02 -0.19737381184E+02  0.38497352690E+02  0.47000000000E+01 0.  1.
         13    1    4    4    0    0  0.15168593206E+02 -0.61684306998E+01 -0.28017643319E+02  0.32451873509E+02  0.00000000000E+00 0. -1.
        -14    1    4    4    0    0 -0.30023925842E+02  0.97651485671E+02 -0.38979230426E+03  0.40295817306E+03  0.00000000000E+00 0.  1.
</event>
<event>
12    1  0.8526130E-002  0.1943593E+03  0.7818608E-02  0.1154605E+00
         21   -1    0    0  503  502  0.00000000000E+00  0.00000000000E+00  0.93072985579E+02  0.93072985579E+02  0.00000000000E+00 0.  1.
         21   -1    0    0  501  503 -0.00000000000E+00 -0.00000000000E+00 -0.44388405696E+03  0.44388405696E+03  0.00000000000E+00 0. -1.
          6    2    1    2  501    0  0.23340085322E+02  0.86348622774E+02 -0.25411375632E+03  0.31987205944E+03  0.17246300769E+03 0.  0.
         24    2    3    3    0    0  0.80223058920E+02  0.72862748511E+02 -0.16058667363E+03  0.20947755466E+03  0.79674631181E+02 0.  0.
         -6    2    1    2    0  502 -0.23340085322E+02 -0.86348622774E+02 -0.96697315057E+02  0.21708498310E+03  0.17255339727E+03 0.  0.
        -24    2    5    5    0    0 -0.34960084133E+02  0.15499407709E+02 -0.66779275192E+02  0.11019613992E+03  0.78875081849E+02 0.  0.
          5    1    3    3  501    0 -0.56882973598E+02  0.13485874263E+02 -0.93527082691E+02  0.11039450479E+03  0.47000000000E+01 0. -1.
        -11    1    4    4    0    0 -0.58737754094E+01 -0.18386644725E+01  0.53547232751E+01  0.81581239237E+01  0.00000000000E+00 0.  1.
         12    1    4    4    0    0  0.86096834329E+02  0.74701412983E+02 -0.16594139691E+03  0.20131943073E+03  0.00000000000E+00 0. -1.
         -5    1    5    5    0  502  0.11619998811E+02 -0.10184803048E+03 -0.29918039866E+02  0.10688884317E+03  0.47000000000E+01 0.  1.
         13    1    6    6    0    0  0.27038419590E+01  0.30007027056E+02  0.22719928655E+01  0.30214142147E+02  0.00000000000E+00 0. -1.
        -14    1    6    6    0    0 -0.37663926092E+02 -0.14507619347E+02 -0.69051268057E+02  0.79981997775E+02  0.00000000000E+00 0.  1.
</event>
<event>
12    1  0.8526130E-002  0.2054875E+03  0.7818608E-02  0.1145878E+00
         21   -1    0    0  503  502  0.00000000000E+00  0.00000000000E+00  0.24119730410E+03  0.24119730410E+03  0.00000000000E+00 0. -1.
         21   -1    0    0  501  503 -0.00000000000E+00 -0.00000000000E+00 -0.29056254760E+03  0.29056254760E+03  0.00000000000E+00 0.  1.
          6    2    1    2  501    0  0.43501933005E+02 -0.10178266081E+03 -0.19447756570E+03  0.28292511527E+03  0.17312703162E+03 0.  0.
         24    2    3    3    0    0  0.37900560410E+02 -0.24681682509E+02 -0.18243732216E+03  0.20454786288E+03  0.80689613691E+02 0.  0.
         -6    2    1    2    0  502 -0.43501933005E+02  0.10178266081E+03  0.14511232221E+03  0.24883473642E+03  0.16914198704E+03 0.  0.
        -24    2    5    5    0    0 -0.76126619865E+02  0.12100019933E+03  0.12832571982E+03  0.20715063875E+03  0.77508620647E+02 0.  0.
          5    1    3    3  501    0  0.56013725949E+01 -0.77100978296E+02 -0.12040243537E+02  0.78377252399E+02  0.47000000000E+01 0. -1.
        -11    1    4    4    0    0  0.51749828963E+02 -0.44436188774E+02 -0.13998894227E+03  0.15572258547E+03  0.00000000000E+00 0.  1.
         12    1    4    4    0    0 -0.13849268552E+02  0.19754506265E+02 -0.42448379899E+02  0.48825277400E+02  0.00000000000E+00 0. -1.
         -5    1    5    5    0  502  0.32624686859E+02 -0.19217538524E+02  0.16786602382E+02  0.41684097677E+02  0.47000000000E+01 0.  1.
         11    1    6    6    0    0 -0.33767827498E+02  0.10984992728E+03  0.71299377460E+02  0.13524375743E+03  0.00000000000E+00 0. -1.
        -12    1    6    6    0    0 -0.42358792367E+02  0.11150272052E+02  0.57026342364E+02  0.71906881319E+02  0.00000000000E+00 0.  1.
</event>
<event>
12    1  0.8526130E-002  0.2647711E+03  0.7818608E-02  0.1104348E+00
         21   -1    0    0  501  502  0.00000000000E+00  0.00000000000E+00  0.13643698685E+03  0.13643698685E+03  0.00000000000E+00 0. -1.
         21   -1    0    0  502  503 -0.00000000000E+00 -0.00000000000E+00 -0.54622731711E+03  0.54622731711E+03  0.00000000000E+00 0. -1.
         -6    2    1    2    0  503  0.80687613408E+02 -0.18361042268E+03 -0.28857998956E+03  0.39146730777E+03  0.17246728502E+03 0.  0.
        -24    2    3    3    0    0  0.30692894824E+02 -0.49680104387E+02 -0.19953090230E+03  0.22297804406E+03  0.80600624028E+02 0.  0.
          6    2    1    2  501    0 -0.80687613408E+02  0.18361042268E+03 -0.12121034070E+03  0.29119699619E+03  0.17285967032E+03 0.  0.
         24    2    5    5    0    0  0.19415072842E+02  0.41369407002E+02 -0.52330003723E+02  0.10406163032E+03  0.77472709563E+02 0.  0.
          5    1    5    5  501    0 -0.10010268625E+03  0.14224101568E+03 -0.68880336974E+02  0.18713536587E+03  0.47000000000E+01 0. -1.
        -13    1    6    6    0    0 -0.47223696805E+01  0.23253793431E+02 -0.66583830020E+02  0.70685543815E+02  0.00000000000E+00 0.  1.
         14    1    6    6    0    0  0.24137442522E+02  0.18115613571E+02  0.14253826297E+02  0.33376086510E+02  0.00000000000E+00 0. -1.
         -5    1    3    3    0  503  0.49994718585E+02 -0.13393031830E+03 -0.89049087259E+02  0.16848926371E+03  0.47000000000E+01 0.  1.
         13    1    4    4    0    0  0.26323403854E+02  0.11881950748E+02 -0.26225173887E+02  0.39011050863E+02  0.00000000000E+00 0. -1.
        -14    1    4    4    0    0  0.43694909698E+01 -0.61562055135E+02 -0.17330572841E+03  0.18396699319E+03  0.00000000000E+00 0.  1.
</event>
<event>
12    1  0.8526130E-002  0.2641539E+03  0.7818608E-02  0.1104842E+00
         21   -1    0    0  503  502  0.00000000000E+00  0.00000000000E+00  0.43570161908E+03  0.43570161908E+03  0.00000000000E+00 0.  1.
         21   -1    0    0  501  503 -0.00000000000E+00 -0.00000000000E+00 -0.17112802289E+03  0.17112802289E+03  0.00000000000E+00 0. -1.
          6    2    1    2  501    0 -0.68596983982E+02  0.18748985344E+03  0.21125977180E+03  0.33734934019E+03  0.17121885058E+03 0.  0.
         24    2    3    3    0    0 -0.20409646615E+02  0.19650366205E+03  0.16523697596E+03  0.26994417744E+03  0.80847744778E+02 0.  0.
         -6    2    1    2    0  502  0.68596983982E+02 -0.18748985344E+03  0.53313824384E+02  0.26948030178E+03  0.17297189894E+03 0.  0.
        -24    2    5    5    0    0  0.72441583178E+02 -0.14261775324E+03 -0.23948414568E+02  0.17992679885E+03  0.78819539910E+02 0.  0.
          5    1    3    3  501    0 -0.48187337367E+02 -0.90138086176E+01  0.46022795839E+02  0.67405162749E+02  0.47000000000E+01 0. -1.
        -13    1    4    4    0    0  0.26484718304E+02  0.43629268954E+02  0.23195471488E+02  0.56062316316E+02  0.00000000000E+00 0.  1.
         14    1    4    4    0    0 -0.46894364919E+02  0.15287439310E+03  0.14204150447E+03  0.21388186113E+03  0.00000000000E+00 0. -1.
         -5    1    5    5    0  502 -0.38445991956E+01 -0.44872100194E+02  0.77262238952E+02  0.89553502928E+02  0.47000000000E+01 0.  1.
         11    1    6    6    0    0  0.63334115994E+02 -0.49712129006E+02 -0.31078386308E+02  0.86303951906E+02  0.00000000000E+00 0. -1.
        -12    1    6    6    0    0  0.91074671833E+01 -0.92905624236E+02  0.71299717402E+01  0.93622846946E+02  0.00000000000E+00 0.  1.
</event>
<event>
12    1  0.8526130E-002  0.1800139E+03  0.7818608E-02  0.1167875E+00
         21   -1    0    0  503  502  0.00000000000E+00  0.00000000000E+00  0.24119461226E+03  0.24119461226E+03  0.00000000000E+00 0. -1.
         21   -1    0    0  501  503 -0.00000000000E+00 -0.00000000000E+00 -0.30060210518E+03  0.30060210518E+03  0.00000000000E+00 0. -1.
          6    2    1    2  501    0  0.41560029190E+02 -0.29085615508E+02 -0.23131199185E+03  0.29288674343E+03  0.17234905816E+03 0.  0.
         24    2    3    3    0    0  0.27268145647E+02 -0.85059816844E+02 -0.13217036113E+03  0.17804545254E+03  0.79072464248E+02 0.  0.
         -6    2    1    2    0  502 -0.41560029190E+02  0.29085615508E+02  0.17190449893E+03  0.24890997401E+03  0.17271887376E+03 0.  0.
        -24    2    5    5    0    0  0.40344588128E+02 -0.79710039337E+01  0.74342086433E+02  0.11616181502E+03  0.79218676835E+02 0.  0.
          5    1    3    3  501    0  0.14291883543E+02  0.55974201335E+02 -0.99141630723E+02  0.11484129089E+03  0.47000000000E+01 0. -1.
        -13    1    4    4    0    0  0.68988030242E+01 -0.88602143468E+02 -0.12969617889E+03  0.15722287406E+03  0.00000000000E+00 0.  1.
         14    1    4    4    0    0  0.20369342623E+02  0.35423266245E+01 -0.24741822383E+01  0.20822578480E+02  0.00000000000E+00 0. -1.
         -5    1    5    5    0  502 -0.81904617318E+02  0.37056619442E+02  0.97562412493E+02  0.13274815898E+03  0.47000000000E+01 0.  1.
         11    1    6    6    0    0  0.53570474744E+02 -0.78833387104E+01  0.16177515500E+02  0.56512430503E+02  0.00000000000E+00 0. -1.
        -12    1    6    6    0    0 -0.13225886617E+02 -0.87665223292E-01  0.58164570933E+02  0.59649384521E+02  0.00000000000E+00 0.  1.
</event>
<event>
12    1  0.8526130E-002  0.2634757E+03  0.7818608E-02  0.1105094E+00
         21   -1    0    0  501  502  0.00000000000E+00  0.00000000000E+00  0.40498169258E+02  0.40498169258E+02  0.00000000000E+00 0. -1.
         21   -1    0    0  502  503 -0.00000000000E+00 -0.00000000000E+00 -0.19068363356E+04  0.19068363356E+04  0.00000000000E+00 0.  1.
         -6    2    1    2    0  503 -0.18653483508E+03  0.72393078011E+02 -0.62265391132E+03  0.67604775848E+03  0.17119192745E+03 0.  0.
        -24    2    3    3    0    0 -0.20614635271E+03  0.81362715852E+02 -0.59685822228E+03  0.64209818412E+03  0.83271425305E+02 0.  0.
          6    2    1    2  501    0  0.18653483508E+03 -0.72393078011E+02 -0.12436842551E+04  0.12712867464E+04  0.17141605198E+03 0.  0.
         24    2    5    5    0    0  0.10813426522E+03 -0.39634970582E+02 -0.10521251782E+04  0.10616758858E+04  0.83212653428E+02 0.  0.
          5    1    5    5  501    0  0.78400569864E+02 -0.32758107429E+02 -0.19155907687E+03  0.20961086062E+03  0.47000000000E+01 0. -1.
        -13    1    6    6    0    0  0.19401921565E+02 -0.48969122216E+02 -0.41750649257E+03  0.42081597026E+03  0.00000000000E+00 0.  1.
         14    1    6    6    0    0  0.88732343654E+02  0.93341516337E+01 -0.63461868563E+03  0.64085991554E+03  0.00000000000E+00 0. -1.
         -5    1    3    3    0  503  0.19611517630E+02 -0.89696378407E+01 -0.25795689037E+02  0.33949574366E+02  0.47000000000E+01 0.  1.
         13    1    4    4    0    0 -0.73887738394E+02  0.62119544652E+02 -0.17877116765E+03  0.20316831962E+03  0.00000000000E+00 0. -1.
        -14    1    4    4    0    0 -0.13225861432E+03  0.19243171200E+02 -0.41808705463E+03  0.43892986450E+03  0.00000000000E+00 0.  1.
</event>
<event>
12    1  0.8526130E-002  0.1803419E+03  0.7818608E-02  0.1167707E+00
         21   -1    0    0  503  502  0.00000000000E+00  0.00000000000E+00  0.19374918264E+02  0.19374918264E+02  0.00000000000E+00 0. -1.
         21   -1    0    0  501  503 -0.00000000000E+00 -0.00000000000E+00 -0.16722358270E+04  0.16722358270E+04  0.00000000000E+00 0. -1.
          6    2    1    2  501    0 -0.45803178925E+02 -0.28086497950E+02 -0.86200359750E+03  0.88066646077E+03  0.17215234662E+03 0.  0.
         24    2    3    3    0    0  0.99748180888E+01  0.22835010200E+02 -0.23762326176E+03  0.25171727474E+03  0.79220181685E+02 0.  0.
         -6    2    1    2    0  502  0.45803178925E+02  0.28086497950E+02 -0.79085731127E+03  0.81094428453E+03  0.17113901735E+03 0.  0.
        -24    2    5    5    0    0  0.63503495141E+02  0.63817125247E+02 -0.71627553951E+03  0.72624180759E+03  0.79190878399E+02 0.  0.
          5    1    3    3  501    0 -0.55777997014E+02 -0.50921508151E+02 -0.62438033574E+03  0.62894918603E+03  0.47000000000E+01 0. -1.
        -11    1    4    4    0    0  0.43193419729E+02  0.58088456096E+01 -0.15581488461E+03  0.16179521767E+03  0.00000000000E+00 0.  1.
         12    1    4    4    0    0 -0.33218601640E+02  0.17026164591E+02 -0.81808377156E+02  0.89922057074E+02  0.00000000000E+00 0. -1.
         -5    1    5    5    0  502 -0.17700316216E+02 -0.35730627297E+02 -0.74581771752E+02  0.84702476934E+02  0.47000000000E+01 0.  1.
         11    1    6    6    0    0  0.31367111483E+02  0.27591271840E+02 -0.10432620730E+03  0.11237940868E+03  0.00000000000E+00 0. -1.
        -12    1    6    6    0    0  0.32136383658E+02  0.36225853407E+02 -0.61194933221E+03  0.61386239892E+03  0.00000000000E+00 0.  1.
</event>
<event>
12    1  0.8526130E-002  0.2215945E+03  0.7818608E-02  0.1132985E+00
         21   -1    0    0  501  502  0.00000000000E+00  0.00000000000E+00  0.17732276105E+03  0.17732276105E+03  0.00000000000E+00 0.  1.
         21   -1    0    0  502  503 -0.00000000000E+00 -0.00000000000E+00 -0.40233014937E+03  0.40233014937E+03  0.00000000000E+00 0. -1.
         -6    2    1    2    0  503  0.94488121780E+02 -0.99795337055E+02 -0.27581934869E+03  0.35380850331E+03  0.17383046179E+03 0.  0.
        -24    2    3    3    0    0  0.79766335813E+02 -0.95628511294E+02 -0.29429813855E+03  0.32936164065E+03  0.79750959092E+02 0.  0.
          6    2    1    2  501    0 -0.94488121780E+02  0.99795337055E+02  0.50811960367E+02  0.22584440712E+03  0.17186252196E+03 0.  0.
         24    2    5    5    0    0 -0.31957275741E+02  0.12516849240E+03  0.38736580568E+02  0.15712899025E+03  0.80626161641E+02 0.  0.
          5    1    5    5  501    0 -0.62530846038E+02 -0.25373155342E+02  0.12075379799E+02  0.68715416870E+02  0.47000000000E+01 0. -1.
        -13    1    6    6    0    0 -0.30266304043E+02  0.11363962790E+03  0.60643108327E+02  0.13231629067E+03  0.00000000000E+00 0.  1.
         14    1    6    6    0    0 -0.16909716988E+01  0.11528864500E+02 -0.21906527760E+02  0.24812699580E+02  0.00000000000E+00 0. -1.
         -5    1    3    3    0  503  0.14721785966E+02 -0.41668257610E+01  0.18478789864E+02  0.24446862657E+02  0.47000000000E+01 0.  1.
         13    1    4    4    0    0  0.74948076739E+02 -0.33009459853E+02 -0.19941073638E+03  0.21557244822E+03  0.00000000000E+00 0. -1.
        -14    1    4    4    0    0  0.48182590743E+01 -0.62619051441E+02 -0.94887402167E+02  0.11378919243E+03  0.00000000000E+00 0.  1.
</event>
<event>
12    1  0.8526130E-002  0.2024978E+03  0.7818608E-02  0.1147711E+00
         21   -1    0    0  501  502  0.00000000000E+00  0.00000000000E+00  0.29140970200E+03  0.29140970200E+03  0.00000000000E+00 0. -1.
         21   -1    0    0  502  503 -0.00000000000E+00 -0.00000000000E+00 -0.18921411672E+03  0.18921411672E+03  0.00000000000E+00 0. -1.
         -6    2    1    2    0  503 -0.68668218903E+02  0.81868331554E+02 -0.70858546937E+02  0.21425360013E+03  0.17165641117E+03 0.  0.
        -24    2    3    3    0    0 -0.31109693493E+02  0.60542061262E+02 -0.10796215683E+03  0.15712024294E+03  0.91639452334E+02 0.  0.
          6    2    1    2  501    0  0.68668218903E+02 -0.81868331554E+02  0.17305413222E+03  0.26637021859E+03  0.17201050164E+03 0.  0.
         24    2    5    5    0    0 -0.17288792926E+02 -0.20736557202E+02  0.30979692133E+02  0.89359093957E+02  0.79349853073E+02 0.  0.
          5    1    5    5  501    0  0.85957011829E+02 -0.61131774352E+02  0.14207444009E+03  0.17701112464E+03  0.47000000000E+01 0. -1.
        -11    1    6    6    0    0 -0.22392845450E+02 -0.46660829415E+02  0.35214696516E+02  0.62599899200E+02  0.00000000000E+00 0.  1.
         12    1    6    6    0    0  0.51040525238E+01  0.25924272213E+02 -0.42350043823E+01  0.26759194758E+02  0.00000000000E+00 0. -1.
         -5    1    3    3    0  503 -0.37558525410E+02  0.21326270293E+02  0.37103609895E+02  0.57133357181E+02  0.47000000000E+01 0.  1.
         13    1    4    4    0    0 -0.18939804677E+02  0.84627226482E+02 -0.76198201910E+02  0.11544110896E+03  0.00000000000E+00 0. -1.
        -14    1    4    4    0    0 -0.12169888816E+02 -0.24085165221E+02 -0.31763954923E+02  0.41679133986E+02  0.00000000000E+00 0.  1.
</event>
<event>
12    1  0.8526130E-002  0.1923730E+03  0.7818608E-02  0.1156890E+00
         21   -1    0    0  501  502  0.00000000000E+00  0.00000000000E+00  0.82137763539E+03  0.82137763539E+03  0.00000000000E+00 0. -1.
         21   -1    0    0  502  503 -0.00000000000E+00 -0.00000000000E+00 -0.50591841795E+02  0.50591841795E+02  0.00000000000E+00 0. -1.
         -6    2    1    2    0  503 -0.49246772552E+02 -0.65417880306E+02  0.23164915904E+03  0.29953985507E+03  0.17134190445E+03 0.  0.
        -24    2    3    3    0    0  0.20956653575E+02 -0.14587383558E+02  0.45699129020E+02  0.94328344418E+02  0.78469440417E+02 0.  0.
          6    2    1    2  501    0  0.49246772552E+02  0.65417880306E+02  0.53913663455E+03  0.57242962211E+03  0.17407647137E+03 0.  0.
         24    2    5    5    0    0  0.70652317293E+02  0.88111790789E+01  0.18385616769E+03  0.21200096606E+03  0.77922605175E+02 0.  0.
          5    1    5    5  501    0 -0.21405544742E+02  0.56606701227E+02  0.35528046686E+03  0.36042865605E+03  0.47000000000E+01 0. -1.
        -11    1    6    6    0    0 -0.10471946786E+02  0.19314398836E+02  0.24727191214E+02  0.33077812159E+02  0.00000000000E+00 0.  1.
         12    1    6    6    0    0  0.81124264080E+02 -0.10503219758E+02  0.15912897648E+03  0.17892315390E+03  0.00000000000E+00 0. -1.
         -5    1    3    3    0  503 -0.70203426126E+02 -0.50830496748E+02  0.18595003002E+03  0.20521151065E+03  0.47000000000E+01 0.  1.
         11    1    4    4    0    0 -0.24982688923E+02 -0.19461913247E+02  0.36830001717E+01  0.31882052997E+02  0.00000000000E+00 0. -1.
        -12    1    4    4    0    0  0.45939342498E+02  0.48745296892E+01  0.42016128849E+02  0.62446291421E+02  0.00000000000E+00 0.  1.
</event>
<event>
12    1  0.8526130E-002  0.1891608E+03  0.7818608E-02  0.1159344E+00
         21   -1    0    0  503  502  0.00000000000E+00  0.00000000000E+00  0.18882896464E+03  0.18882896464E+03  0.00000000000E+00 0. -1.
         21   -1    0    0  501  503 -0.00000000000E+00 -0.00000000000E+00 -0.18895374835E+03  0.18895374835E+03  0.00000000000E+00 0.  1.
          6    2    1    2  501    0 -0.80574208559E+02  0.18592356759E+01 -0.12010138678E+01  0.18916462733E+03  0.17113197818E+03 0.  0.
         24    2    3    3    0    0 -0.34381480657E+02  0.65189915979E+02  0.55932569577E+01  0.11034334027E+03  0.81930195044E+02 0.  0.
         -6    2    1    2    0  502  0.80574208559E+02 -0.18592356759E+01  0.10762301529E+01  0.18861808566E+03  0.17052848479E+03 0.  0.
        -24    2    5    5    0    0 -0.21102648899E+02 -0.13696065599E+02 -0.15916512741E+02  0.84747314043E+02  0.79346505004E+02 0.  0.
          5    1    3    3  501    0 -0.46192727902E+02 -0.63330680303E+02 -0.67942708255E+01  0.78821287066E+02  0.47000000000E+01 0. -1.
        -11    1    4    4    0    0 -0.49448569416E+02  0.11753965508E+02 -0.11771311109E+02  0.52171644480E+02  0.00000000000E+00 0.  1.
         12    1    4    4    0    0  0.15067088760E+02  0.53435950471E+02  0.17364568067E+02  0.58171695786E+02  0.00000000000E+00 0. -1.
         -5    1    5    5    0  502  0.10167685746E+03  0.11836829923E+02  0.16992742894E+02  0.10387077162E+03  0.47000000000E+01 0.  1.
         13    1    6    6    0    0 -0.12487701996E+01 -0.75881860532E+01  0.31794101252E+02  0.32710928893E+02  0.00000000000E+00 0. -1.
        -14    1    6    6    0    0 -0.19853878699E+02 -0.61078795459E+01 -0.47710613993E+02  0.52036385150E+02  0.00000000000E+00 0.  1.
</event>
<event>
12    1  0.8526130E-002  0.1762890E+03  0.7818608E-02  0.1171679E+00
         21   -1    0    0  501  502  0.00000000000E+00  0.00000000000E+00  0.63331132178E+02  0.63331132178E+02  0.00000000000E+00 0.  1.
         21   -1    0    0  502  503 -0.00000000000E+00 -0.00000000000E+00 -0.10243922233E+04  0.10243922233E+04  0.00000000000E+00 0.  1.
         -6    2    1    2    0  503 -0.13042265630E+02 -0.32632465621E+02 -0.87465761761E+03  0.89224647416E+03  0.17275081508E+03 0.  0.
        -24    2    3    3    0    0  0.58323119596E+02 -0.42709016413E+01 -0.45423019052E+03  0.46483717622E+03  0.79553174272E+02 0.  0.
          6    2    1    2  501    0  0.13042265630E+02  0.32632465621E+02 -0.86403473547E+02  0.19547688135E+03  0.17178670611E+03 0.  0.
         24    2    5    5    0    0 -0.34042435062E+02  0.68160649826E+02 -0.32474298711E+02  0.11541648658E+03  0.80384225614E+02 0.  0.
          5    1    5    5  501    0  0.47084700692E+02 -0.35528184206E+02 -0.53929174835E+02  0.80060394769E+02  0.47000000000E+01 0. -1.
        -11    1    6    6    0    0 -0.45779209842E+02  0.29654045875E+02  0.11558609744E+02  0.55755716745E+02  0.00000000000E+00 0.  1.
         12    1    6    6    0    0  0.11736774780E+02  0.38506603951E+02 -0.44032908455E+02  0.59660769834E+02  0.00000000000E+00 0. -1.
         -5    1    3    3    0  503 -0.71365385226E+02 -0.28361563979E+02 -0.42042742709E+03  0.42740929794E+03  0.47000000000E+01 0.  1.
         11    1    4    4    0    0  0.20710821231E+02  0.35249768016E+02 -0.13775979349E+03  0.14369845150E+03  0.00000000000E+00 0. -1.
        -12    1    4    4    0    0  0.37612298365E+02 -0.39520669657E+02 -0.31647039704E+03  0.32113872473E+03  0.00000000000E+00 0.  1.
</event>
<event>
12    1  0.8526130E-002  0.2427432E+03  0.7818608E-02  0.1118549E+00
         21   -1    0    0  503  502  0.00000000000E+00  0.00000000000E+00  0.17101045762E+04  0.17101045762E+04  0.00000000000E+00 0.  1.
         21   -1    0    0  501  503 -0.00000000000E+00 -0.00000000000E+00 -0.34371771191E+02  0.34371771191E+02  0.00000000000E+00 0. -1.
          6    2    1    2  501    0  0.14328403566E+03 -0.81202873070E+02  0.74931391046E+03  0.78765194912E+03  0.17832564334E+03 0.  0.
         24    2    3    3    0    0  0.14049056032E+03 -0.97215788334E+02  0.74725891887E+03  0.77060700998E+03  0.79061779449E+02 0.  0.
         -6    2    1    2    0  502 -0.14328403566E+03  0.81202873070E+02  0.92641889455E+03  0.95682439828E+03  0.17359936486E+03 0.  0.
        -24    2    5    5    0    0 -0.42763716696E+02  0.76755017710E+02  0.68498369411E+03  0.69521942135E+03  0.80045701993E+02 0.  0.
          5    1    3    3  501    0  0.27934753428E+01  0.16012915264E+02  0.20549915942E+01  0.17044939137E+02  0.47000000000E+01 0. -1.
        -11    1    4    4    0    0  0.11034328278E+03 -0.34811730507E+02  0.39510609333E+03  0.41169930972E+03  0.00000000000E+00 0.  1.
         12    1    4    4    0    0  0.30147277536E+02 -0.62404057827E+02  0.35215282553E+03  0.35890770026E+03  0.00000000000E+00 0. -1.
         -5    1    5    5    0  502 -0.10052031896E+03  0.44478553605E+01  0.24143520044E+03  0.26160497693E+03  0.47000000000E+01 0.  1.
         13    1    6    6    0    0  0.13686650442E+02  0.11983721999E+02  0.33732307338E+02  0.38324959903E+02  0.00000000000E+00 0. -1.
        -14    1    6    6    0    0 -0.56450367138E+02  0.64771295711E+02  0.65125138678E+03  0.65689446145E+03  0.00000000000E+00 0.  1.
</event>
<event>
12    1  0.8526130E-002  0.2180636E+03  0.7818608E-02  0.1138466E+00
         21   -1    0    0  503  502  0.00000000000E+00  0.00000000000E+00  0.74277580504E+02  0.74277580504E+02  0.00000000000E+00 0.  1.
         21   -1    0    0  501  503 -0.00000000000E+00 -0.00000000000E+00 -0.19751007668E+04  0.19751007668E+04  0.00000000000E+00 0.  1.
          6    2    1    2  501    0  0.11952098259E+03 -0.10831191308E+02 -0.17961637525E+04  0.18074996368E+04  0.16262881512E+03 0.  0.
         24    2    3    3    0    0  0.66968430037E+02  0.53661792877E+02 -0.95203868765E+03  0.95927187801E+03  0.80377325955E+02 0.  0.
         -6    2    1    2    0  502 -0.11952098259E+03  0.10831191308E+02 -0.10465943383E+03  0.24187871047E+03  0.18206903500E+03 0.  0.
        -24    2    5    5    0    0 -0.10677744865E+02  0.23464213510E+02 -0.99866810374E+02  0.13209937322E+03  0.82536543667E+02 0.  0.
          5    1    3    3  501    0  0.52552552549E+02 -0.64492984185E+02 -0.84412506480E+03  0.84822775881E+03  0.47000000000E+01 0. -1.
        -13    1    4    4    0    0  0.51627907724E+01  0.54696956795E+02 -0.50500037212E+03  0.50798010525E+03  0.00000000000E+00 0.  1.
         14    1    4    4    0    0  0.61805639264E+02 -0.10351639176E+01 -0.44703831553E+03  0.45129177276E+03  0.00000000000E+00 0. -1.
         -5    1    5    5    0  502 -0.10884323772E+03 -0.12633022202E+02 -0.47926234606E+01  0.10977933725E+03  0.47000000000E+01 0.  1.
         11    1    6    6    0    0  0.34414820272E+02  0.16969985882E+02 -0.61740731567E+02  0.72693040998E+02  0.00000000000E+00 0. -1.
        -12    1    6    6    0    0 -0.45092565137E+02  0.64942276282E+01 -0.38126078807E+02  0.59406332224E+02  0.00000000000E+00 0.  1.
</event>
<event>
12    1  0.8526130E-002  0.2527453E+03  0.7818608E-02  0.1111743E+00
         21   -1    0    0  503  502  0.00000000000E+00  0.00000000000E+00  0.59774565088E+03  0.59774565088E+03  0.00000000000E+00 0. -1.
         21   -1    0    0  501  503 -0.00000000000E+00 -0.00000000000E+00 -0.10921790524E+03  0.10921790524E+03  0.00000000000E+00 0.  1.
          6    2    1    2  501    0  0.16144466145E+03  0.88414399358E+02  0.18831636323E+03  0.31518765092E+03  0.17320137964E+03 0.  0.
         24    2    3    3    0    0  0.91319030454E+02  0.86695353958E+02  0.45388756416E+02  0.15590504035E+03  0.79943684413E+02 0.  0.
         -6    2    1    2    0  502 -0.16144466145E+03 -0.88414399358E+02  0.30021138241E+03  0.39177590520E+03  0.17169741129E+03 0.  0.
        -24    2    5    5    0    0 -0.91094803236E+01 -0.51144456722E+02  0.11843630413E+03  0.15165234302E+03  0.79199349245E+02 0.  0.
          5    1    3    3  501    0  0.70125630997E+02  0.17190453993E+01  0.14292760681E+03  0.15928261057E+03  0.47000000000E+01 0. -1.
        -13    1    4    4    0    0  0.59847572935E+02  0.48462814826E+02 -0.14324873447E+02  0.78329933016E+02  0.00000000000E+00 0.  1.
         14    1    4    4    0    0  0.31471457519E+02  0.38232539132E+02  0.59713629863E+02  0.77575107337E+02  0.00000000000E+00 0. -1.
         -5    1    5    5    0  502 -0.15233518113E+03 -0.37269942636E+02  0.18177507828E+03  0.24012356219E+03  0.47000000000E+01 0.  1.
         11    1    6    6    0    0 -0.12554163738E+02 -0.13945770280E+02  0.11222352845E+03  0.11378142147E+03  0.00000000000E+00 0. -1.
        -12    1    6    6    0    0  0.34446834144E+01 -0.37198686442E+02  0.62127756875E+01  0.37870921543E+02  0.00000000000E+00 0.  1.
</event>
<event>
12    1  0.8526130E-002  0.1738838E+03  0.7818608E-02  0.1173966E+00
         21   -1    0    0  501  502  0.00000000000E+00  0.00000000000E+00  0.18523019772E+02  0.18523019772E+02  0.00000000000E+00 0. -1.
         21   -1    0    0  502  503 -0.00000000000E+00 -0.00000000000E+00 -0.17392512363E+04  0.17392512363E+04  0.00000000000E+00 0. -1.
         -6    2    1    2    0  503 -0.59953231858E+01 -0.85636061486E+01 -0.10813662561E+04  0.10951889544E+04  0.17313747924E+03 0.  0.
        -24    2    3    3    0    0  0.35440696299E+01  0.25034278896E+02 -0.25739148428E+03  0.27046091891E+03  0.79116729766E+02 0.  0.
          6    2    1    2  501    0  0.59953231858E+01  0.85636061486E+01 -0.63936196039E+03  0.66258530165E+03  0.17356925512E+03 0.  0.
         24    2    5    5    0    0  0.62132550896E+02  0.37339907292E+02 -0.33707903695E+03  0.35375440999E+03  0.79152908209E+02 0.  0.
          5    1    5    5  501    0 -0.56137227710E+02 -0.28776301143E+02 -0.30228292344E+03  0.30883089167E+03  0.47000000000E+01 0. -1.
        -11    1    6    6    0    0  0.15430569794E-01  0.33455709627E+02 -0.51075948196E+02  0.61057654957E+02  0.00000000000E+00 0.  1.
         12    1    6    6    0    0  0.62117120326E+02  0.38841976643E+01 -0.28600308875E+03  0.29269675503E+03  0.00000000000E+00 0. -1.
         -5    1    3    3    0  503 -0.95393928157E+01 -0.33597885045E+02 -0.82397477186E+03  0.82472803551E+03  0.47000000000E+01 0.  1.
         13    1    4    4    0    0 -0.29951993687E+02 -0.28786346165E+01 -0.48565453839E+02  0.57131530433E+02  0.00000000000E+00 0. -1.
        -14    1    4    4    0    0  0.33496063316E+02  0.27912913513E+02 -0.20882603044E+03  0.21332938848E+03  0.00000000000E+00 0.  1.
</event>
<event>
12    1  0.8526130E-002  0.2136322E+03  0.7818608E-02  0.1138888E+00
         21   -1    0    0  503  502  0.00000000000E+00  0.00000000000E+00  0.24599736325E+04  0.24599736325E+04  0.00000000000E+00 0. -1.
         21   -1    0    0  501  503 -0.00000000000E+00 -0.00000000000E+00 -0.68981824060E+02  0.68981824060E+02  0.00000000000E+00 0. -1.
          6    2    1    2  501    0  0.24663802114E+02 -0.12165180798E+03  0.11290757049E+03  0.24087623650E+03  0.17281717599E+03 0.  0.
         24    2    3    3    0    0  0.54596533373E+01 -0.53940955479E+02  0.13603919139E+03  0.16664200745E+03  0.79520202221E+02 0.  0.
         -6    2    1    2    0  502 -0.24663802114E+02  0.12165180798E+03  0.22780842379E+04  0.22880792200E+04  0.17387137931E+03 0.  0.
        -24    2    5    5    0    0 -0.63374758728E+02  0.20012541473E+02  0.10071084085E+04  0.10124496784E+04  0.79813174585E+02 0.  0.
          5    1    3    3  501    0  0.19204148777E+02 -0.67710852505E+02 -0.23131620899E+02  0.74234229050E+02  0.47000000000E+01 0. -1.
        -11    1    4    4    0    0 -0.36724735718E+02 -0.26536934575E+02  0.55001968366E+02  0.71261010618E+02  0.00000000000E+00 0.  1.
         12    1    4    4    0    0  0.42184389055E+02 -0.27404020905E+02  0.81037223021E+02  0.95380996832E+02  0.00000000000E+00 0. -1.
         -5    1    5    5    0  502  0.38710956614E+02  0.10163926651E+03  0.12709758294E+04  0.12756295417E+04  0.47000000000E+01 0.  1.
         11    1    6    6    0    0 -0.24465118121E+02 -0.29055972693E+02  0.50995276341E+03  0.51136543926E+03  0.00000000000E+00 0. -1.
        -12    1    6    6    0    0 -0.38909640607E+02  0.49068514167E+02  0.49715564510E+03  0.50108423910E+03  0.00000000000E+00 0.  1.
</event>
<event>
12    1  0.8526130E-002  0.1870612E+03  0.7818608E-02  0.1161364E+00
         21   -1    0    0  503  502  0.00000000000E+00  0.00000000000E+00  0.26057993462E+02  0.26057993462E+02  0.00000000000E+00 0.  1.
         21   -1    0    0  501  503 -0.00000000000E+00 -0.00000000000E+00 -0.19230030565E+04  0.19230030565E+04  0.00000000000E+00 0.  1.
          6    2    1    2  501    0  0.70994775156E+02  0.16485200010E+02 -0.14886922049E+04  0.15003987320E+04  0.17227842000E+03 0.  0.
         24    2    3    3    0    0  0.94213785370E+01  0.51974631423E+02 -0.50492013516E+03  0.51405175542E+03  0.80713937314E+02 0.  0.
         -6    2    1    2    0  502 -0.70994775156E+02 -0.16485200010E+02 -0.40825285818E+03  0.44866231805E+03  0.17121757943E+03 0.  0.
        -24    2    5    5    0    0 -0.86962271507E+02  0.21346374685E+02 -0.38041993717E+03  0.39883310497E+03  0.79563890361E+02 0.  0.
          5    1    3    3  501    0  0.61573396619E+02 -0.35489431413E+02 -0.98377206975E+03  0.98634697654E+03  0.47000000000E+01 0. -1.
        -13    1    4    4    0    0  0.10258726397E+02 -0.19545817759E+02 -0.18023357494E+03  0.18158034584E+03  0.00000000000E+00 0.  1.
         14    1    4    4    0    0 -0.83734785978E+00  0.71520449182E+02 -0.32468656022E+03  0.33247140958E+03  0.00000000000E+00 0. -1.
         -5    1    5    5    0  502  0.15967496352E+02 -0.37831574695E+02 -0.27832921006E+02  0.49829213072E+02  0.47000000000E+01 0.  1.
         11    1    6    6    0    0  0.11163427391E+02  0.17127266771E+02 -0.88608677755E+02  0.90936588630E+02  0.00000000000E+00 0. -1.
        -12    1    6    6    0    0 -0.98125698898E+02  0.42191079144E+01 -0.29181125941E+03  0.30789651634E+03  0.00000000000E+00 0.  1.
</event>
<event>
12    1  0.8526130E-002  0.1954496E+03  0.7818608E-02  0.1154313E+00
         21   -1    0    0  503  502  0.00000000000E+00  0.00000000000E+00  0.31979675635E+03  0.31979675635E+03  0.00000000000E+00 0. -1.
         21   -1    0    0  501  503 -0.00000000000E+00 -0.00000000000E+00 -0.14377774223E+03  0.14377774223E+03  0.00000000000E+00 0. -1.
          6    2    1    2  501    0  0.52299964031E+02  0.67231948556E+02 -0.11516677882E+02  0.19270518223E+03  0.17247385960E+03 0.  0.
         24    2    3    3    0    0 -0.18138531594E+02 -0.13406487701E+02 -0.40000018822E-01  0.84918619050E+02  0.81868370086E+02 0.  0.
         -6    2    1    2    0  502 -0.52299964031E+02 -0.67231948556E+02  0.18753569200E+03  0.27086931635E+03  0.17591227820E+03 0.  0.
        -24    2    5    5    0    0 -0.10269358157E+03 -0.34381498295E+02  0.11611850673E+03  0.17737507523E+03  0.79059158783E+02 0.  0.
          5    1    3    3  501    0  0.70438495626E+02  0.80638436256E+02 -0.11476677863E+02  0.10778656318E+03  0.47000000000E+01 0. -1.
        -11    1    4    4    0    0  0.19585473168E+02 -0.34985349446E+02  0.75555382343E+01  0.40800142072E+02  0.00000000000E+00 0.  1.
         12    1    4    4    0    0 -0.37724004762E+02  0.21578861746E+02 -0.75955382531E+01  0.44118476978E+02  0.00000000000E+00 0. -1.
         -5    1    5    5    0  502  0.50393617535E+02 -0.32850450261E+02  0.71417185270E+02  0.93494241120E+02  0.47000000000E+01 0.  1.
         11    1    6    6    0    0 -0.84904458971E+02 -0.23485987800E+02  0.12643892703E+03  0.15410113901E+03  0.00000000000E+00 0. -1.
        -12    1    6    6    0    0 -0.17789122596E+02 -0.10895510495E+02 -0.10320420305E+02  0.23273936215E+02  0.00000000000E+00 0.  1.
</event>
<event>
12    1  0.8526130E-002  0.1868430E+03  0.7818608E-02  0.1161474E+00
         21   -1    0    0  501  502  0.00000000000E+00  0.00000000000E+00  0.12916897530E+03  0.12916897530E+03  0.00000000000E+00 0.  1.
         21   -1    0    0  502  503 -0.00000000000E+00 -0.00000000000E+00 -0.54937600626E+03  0.54937600626E+03  0.00000000000E+00 0.  1.
         -6    2    1    2    0  503  0.22416517195E+02 -0.69101261856E+02 -0.45245008648E+03  0.48951139248E+03  0.17214191233E+03 0.  0.
        -24    2    3    3    0    0  0.48101661309E+02  0.87562322593E+01 -0.32354474425E+03  0.33667097481E+03  0.79219330503E+02 0.  0.
          6    2    1    2  501    0 -0.22416517195E+02  0.69101261856E+02  0.32243055515E+02  0.18903358908E+03  0.17151267749E+03 0.  0.
         24    2    5    5    0    0 -0.24075103321E+02  0.98329338618E+02  0.65596258767E+02  0.14440671886E+03  0.79386156561E+02 0.  0.
          5    1    5    5  501    0  0.16585861255E+01 -0.29228076763E+02 -0.33353203252E+02  0.44626870228E+02  0.47000000000E+01 0. -1.
        -13    1    6    6    0    0  0.54993495329E+01 -0.79222223616E+01  0.25146531286E+02  0.26932368781E+02  0.00000000000E+00 0.  1.
         14    1    6    6    0    0 -0.29574452853E+02  0.10625156098E+03  0.40449727481E+02  0.11747435007E+03  0.00000000000E+00 0. -1.
         -5    1    3    3    0  503 -0.25685144114E+02 -0.77857494115E+02 -0.12890534223E+03  0.15284041767E+03  0.47000000000E+01 0.  1.
         13    1    4    4    0    0  0.11930314361E+02 -0.29557431021E+01 -0.14914149258E+01  0.12381160548E+02  0.00000000000E+00 0. -1.
        -14    1    4    4    0    0  0.36171346948E+02  0.11711975361E+02 -0.32205332933E+03  0.32428981427E+03  0.00000000000E+00 0.  1.
</event>
<event>
12    1  0.8526130E-002  0.2254185E+03  0.7818608E-02  0.1130141E+00
         21   -1    0    0  501  502  0.00000000000E+00  0.00000000000E+00  0.78887406524E+02  0.78887406524E+02  0.00000000000E+00 0. -1.
         21   -1    0    0  502  503 -0.00000000000E+00 -0.00000000000E+00 -0.64064319164E+03  0.64064319164E+03  0.00000000000E+00 0.  1.
         -6    2    1    2    0  503  0.34152186642E+02 -0.13992764608E+03 -0.28663248568E+03  0.36385329159E+03  0.17171172925E+03 0.  0.
        -24    2    3    3    0    0 -0.35145071373E+02 -0.12284775534E+03 -0.19508946393E+03  0.24768080144E+03  0.83421420701E+02 0.  0.
          6    2    1    2  501    0 -0.34152186642E+02  0.13992764608E+03 -0.27512329944E+03  0.35567730657E+03  0.17339953439E+03 0.  0.
         24    2    5    5    0    0  0.39591047295E+02  0.11935088551E+03 -0.18445540707E+03  0.23691609938E+03  0.79330675350E+02 0.  0.
          5    1    5    5  501    0 -0.73743233937E+02  0.20576760571E+02 -0.90667892367E+02  0.11876120719E+03  0.47000000000E+01 0. -1.
        -11    1    6    6    0    0  0.22492388534E+02  0.54100688586E+02 -0.15028369250E+03  0.16130089981E+03  0.00000000000E+00 0.  1.
         12    1    6    6    0    0  0.17098658762E+02  0.65250196925E+02 -0.34171714570E+02  0.75615199576E+02  0.00000000000E+00 0. -1.
         -5    1    3    3    0  503  0.69297258015E+02 -0.17079890740E+02 -0.91543021741E+02  0.11617249014E+03  0.47000000000E+01 0.  1.
         11    1    4    4    0    0  0.15747191930E+02 -0.10279648629E+02 -0.26364250113E+01  0.18989364562E+02  0.00000000000E+00 0. -1.
        -12    1    4    4    0    0 -0.50892263303E+02 -0.11256810671E+03 -0.19245303892E+03  0.22869143688E+03  0.00000000000E+00 0.  1.
</event>
<event>
12    1  0.8526130E-002  0.2620427E+03  0.7818608E-02  0.1105950E+00
         21   -1    0    0  501  502  0.00000000000E+00  0.00000000000E+00  0.60529099438E+02  0.60529099438E+02  0.00000000000E+00 0.  1.
         21   -1    0    0  502  503 -0.00000000000E+00 -0.00000000000E+00 -0.14729759810E+04  0.14729759810E+04  0.00000000000E+00 0.  1.
         -6    2    1    2    0  503  0.50012002601E+02 -0.19152074403E+03 -0.10744549415E+04  0.11059474647E+04  0.17171190266E+03 0.  0.
        -24    2    3    3    0    0 -0.26741968796E+02 -0.46467697024E+02 -0.42696451381E+03  0.43796729841E+03  0.81500175859E+02 0.  0.
          6    2    1    2  501    0 -0.50012002601E+02  0.19152074403E+03 -0.33799194003E+03  0.42755761573E+03  0.17142219064E+03 0.  0.
         24    2    5    5    0    0 -0.38192964965E+02  0.21498286877E+03 -0.29573406866E+03  0.37757783341E+03  0.86197705789E+02 0.  0.
          5    1    5    5  501    0 -0.11819037637E+02 -0.23462124735E+02 -0.42257871370E+02  0.49979782317E+02  0.47000000000E+01 0. -1.
        -13    1    6    6    0    0 -0.48146228823E+02  0.21872096051E+03 -0.28504035585E+03  0.36249816880E+03  0.00000000000E+00 0.  1.
         14    1    6    6    0    0  0.99532638586E+01 -0.37380917446E+01 -0.10693712803E+02  0.15079664613E+02  0.00000000000E+00 0. -1.
         -5    1    3    3    0  503  0.76753971397E+02 -0.14505304701E+03 -0.64749042771E+03  0.66798016628E+03  0.47000000000E+01 0.  1.
         13    1    4    4    0    0  0.13795863077E+02  0.16899905452E+02 -0.78455794183E+02  0.81432452273E+02  0.00000000000E+00 0. -1.
        -14    1    4    4    0    0 -0.40537831873E+02 -0.63367602476E+02 -0.34850871962E+03  0.35653484614E+03  0.00000000000E+00 0.  1.
</event>
<event>
12    1  0.8526130E-002  0.1858523E+03  0.7818608E-02  0.1162511E+00
         21   -1    0    0  503  502  0.00000000000E+00  0.00000000000E+00  0.36760203019E+03  0.36760203019E+03  0.00000000000E+00 0.  1.
         21   -1    0    0  501  503 -0.00000000000E+00 -0.00000000000E+00 -0.74516201452E+03  0.74516201452E+03  0.00000000000E+00 0.  1.
          6    2    1    2  501    0  0.63470714199E+02 -0.22597051910E+02 -0.70905131679E+03  0.73272775565E+03  0.17203789046E+03 0.  0.
         24    2    3    3    0    0  0.10286760942E+03 -0.38103907073E+02 -0.49606773182E+03  0.51552583261E+03  0.87464488407E+02 0.  0.
         -6    2    1    2    0  502 -0.63470714199E+02  0.22597051910E+02  0.33149133246E+03  0.38003628905E+03  0.17321062088E+03 0.  0.
        -24    2    5    5    0    0 -0.85754393667E+02  0.62570123668E+02  0.24747564561E+03  0.28424936681E+03  0.91020167825E+02 0.  0.
          5    1    3    3  501    0 -0.39396895219E+02  0.15506855163E+02 -0.21298358497E+03  0.21720192305E+03  0.47000000000E+01 0. -1.
        -11    1    4    4    0    0  0.48817725751E+02  0.25602400372E+02 -0.23672280279E+03  0.24305624578E+03  0.00000000000E+00 0.  1.
         12    1    4    4    0    0  0.54049883666E+02 -0.63706307445E+02 -0.25934492903E+03  0.27246958683E+03  0.00000000000E+00 0. -1.
         -5    1    5    5    0  502  0.22283679469E+02 -0.39973071757E+02  0.84015686843E+02  0.95786922239E+02  0.47000000000E+01 0.  1.
         11    1    6    6    0    0 -0.12279553041E+02  0.15269671675E+02 -0.22056491822E+01  0.19718397102E+02  0.00000000000E+00 0. -1.
        -12    1    6    6    0    0 -0.73474840627E+02  0.47300451993E+02  0.24968129480E+03  0.26453096971E+03  0.00000000000E+00 0.  1.
</event>
<event>
12    1  0.8526130E-002  0.2029005E+03  0.7818608E-02  0.1147772E+00
         21   -1    0    0  501  502  0.00000000000E+00  0.00000000000E+00  0.74208789338E+02  0.74208789338E+02  0.00000000000E+00 0. -1.
         21   -1    0    0  502  503 -0.00000000000E+00 -0.00000000000E+00 -0.57899029727E+03  0.57899029727E+03  0.00000000000E+00 0. -1.
         -6    2    1    2    0  503 -0.20699962271E+02 -0.10866674897E+03 -0.32569021513E+03  0.38256592294E+03  0.16746826084E+03 0.  0.
        -24    2    3    3    0    0 -0.21456199660E+02 -0.19384251287E+02 -0.23938826775E+03  0.25829986800E+03  0.92606486650E+02 0.  0.
          6    2    1    2  501    0  0.20699962271E+02  0.10866674897E+03 -0.17909129279E+03  0.27063316367E+03  0.17009311377E+03 0.  0.
         24    2    5    5    0    0 -0.38715517505E+02  0.18447226623E+02 -0.54117553386E+02  0.10537492033E+03  0.79598824015E+02 0.  0.
          5    1    5    5  501    0  0.59415479776E+02  0.90219522346E+02 -0.12497373941E+03  0.16525824334E+03  0.47000000000E+01 0. -1.
        -11    1    6    6    0    0 -0.26364621419E+02  0.49630829437E+01  0.17122075224E+02  0.31825947195E+02  0.00000000000E+00 0.  1.
         12    1    6    6    0    0 -0.12350896086E+02  0.13484143679E+02 -0.71239628610E+02  0.73548973136E+02  0.00000000000E+00 0. -1.
         -5    1    3    3    0  503  0.75623738902E+00 -0.89282497682E+02 -0.86301947379E+02  0.12426605493E+03  0.47000000000E+01 0.  1.
         11    1    4    4    0    0 -0.43394214534E+02 -0.35730343042E+02 -0.21298843036E+03  0.22028115384E+03  0.00000000000E+00 0. -1.
        -12    1    4    4    0    0  0.21938014874E+02  0.16346091754E+02 -0.26399837393E+02  0.38018714163E+02  0.00000000000E+00 0.  1.
</event>
<event>
12    1  0.8526130E-002  0.1746026E+03  0.7818608E-02  0.1179164E+00
         21   -1    0    0  503  502  0.00000000000E+00  0.00000000000E+00  0.54406239194E+02  0.54406239194E+02  0.00000000000E+00 0. -1.
         21   -1    0    0  501  503 -0.00000000000E+00 -0.00000000000E+00 -0.93209667059E+03  0.93209667059E+03  0.00000000000E+00 0. -1.
          6    2    1    2  501    0 -0.22550631312E+02  0.99771262742E+01 -0.79345802107E+03  0.81244182045E+03  0.17285255681E+03 0.  0.
         24    2    3    3    0    0 -0.65787147006E+01  0.20578236440E+02 -0.10774889159E+03  0.12644868206E+03  0.62551596744E+02 0.  0.
         -6    2    1    2    0  502  0.22550631312E+02 -0.99771262742E+01 -0.84232410333E+02  0.17406108934E+03  0.15031330563E+03 0.  0.
        -24    2    5    5    0    0  0.56212543016E+02  0.11336621589E+02 -0.45118836221E+02  0.11803108106E+03  0.92775307782E+02 0.  0.
          5    1    3    3  501    0 -0.15971916611E+02 -0.10601110166E+02 -0.68570912948E+03  0.68599313838E+03  0.47000000000E+01 0. -1.
        -13    1    4    4    0    0 -0.21038794421E+02 -0.15726028269E+02 -0.33767377748E+02  0.42780540387E+02  0.00000000000E+00 0.  1.
         14    1    4    4    0    0  0.14460079721E+02  0.36304264710E+02 -0.73981513838E+02  0.83668141675E+02  0.00000000000E+00 0. -1.
         -5    1    5    5    0  502 -0.33661911704E+02 -0.21313747863E+02 -0.39113574112E+02  0.56030008275E+02  0.47000000000E+01 0.  1.
         13    1    6    6    0    0 -0.14519630373E+02 -0.14951643412E+02 -0.36566070346E+02  0.42088582863E+02  0.00000000000E+00 0. -1.
        -14    1    6    6    0    0  0.70732173388E+02  0.26288265001E+02 -0.85527658753E+01  0.75942498202E+02  0.00000000000E+00 0.  1.
</event>
<event>
12    1  0.8526130E-002  0.2560161E+03  0.7818608E-02  0.1109815E+00
         21   -1    0    0  503  502  0.00000000000E+00  0.00000000000E+00  0.71085558542E+02  0.71085558542E+02  0.00000000000E+00 0. -1.
         21   -1    0    0  501  503 -0.00000000000E+00 -0.00000000000E+00 -0.11719054693E+04  0.11719054693E+04  0.00000000000E+00 0. -1.
          6    2    1    2  501    0 -0.14698183777E+03  0.11686002580E+03 -0.84217182853E+03  0.88022588646E+03  0.17402383792E+03 0.  0.
         24    2    3    3    0    0 -0.15116950406E+03  0.77019835288E+02 -0.47276090538E+03  0.50861951210E+03  0.80041616921E+02 0.  0.
         -6    2    1    2    0  502  0.14698183777E+03 -0.11686002580E+03 -0.25864808227E+03  0.36276514143E+03  0.17158027598E+03 0.  0.
        -24    2    5    5    0    0  0.67244178134E+02 -0.13658353103E+03 -0.18375134206E+03  0.25150543301E+03  0.79458081282E+02 0.  0.
          5    1    3    3  501    0  0.41876662907E+01  0.39840190509E+02 -0.36941092315E+03  0.37160637437E+03  0.47000000000E+01 0. -1.
        -13    1    4    4    0    0 -0.29466580902E+02  0.42293125460E+02 -0.73452396456E+02  0.89734287741E+02  0.00000000000E+00 0.  1.
         14    1    4    4    0    0 -0.12170292316E+03  0.34726709829E+02 -0.39930850893E+03  0.41888522436E+03  0.00000000000E+00 0. -1.
         -5    1    5    5    0  502  0.79737659640E+02  0.19723505231E+02 -0.74896740209E+02  0.11125970842E+03  0.47000000000E+01 0.  1.
         13    1    6    6    0    0  0.24520208835E+02 -0.82756941435E+02 -0.15417117352E+03  0.17668815111E+03  0.00000000000E+00 0. -1.
        -14    1    6    6    0    0  0.42723969300E+02 -0.53826589594E+02 -0.29580168544E+02  0.74817281901E+02  0.00000000000E+00 0.  1.
</event>
<event>
12    1  0.8526130E-002  0.1761700E+03  0.7818608E-02  0.1172512E+00
         21   -1    0    0  501  502  0.00000000000E+00  0.00000000000E+00  0.72988296708E+02  0.72988296708E+02  0.00000000000E+00 0.  1.
         21   -1    0    0  502  503 -0.00000000000E+00 -0.00000000000E+00 -0.79446352766E+03  0.79446352766E+03  0.00000000000E+00 0.  1.
         -6    2    1    2    0  503 -0.33234601200E+02 -0.14215873219E+02 -0.66206767784E+03  0.68510544289E+03  0.17242165777E+03 0.  0.
        -24    2    3    3    0    0  0.32002672041E+01 -0.67418736501E+02 -0.26269758580E+03  0.28053578916E+03  0.71657376985E+02 0.  0.
          6    2    1    2  501    0  0.33234601200E+02  0.14215873219E+02 -0.59407553112E+02  0.18234638148E+03  0.16856546415E+03 0.  0.
         24    2    5    5    0    0  0.48324827316E+00  0.20372433625E+02 -0.98992318041E+02  0.13038872594E+03  0.82380041520E+02 0.  0.
          5    1    5    5  501    0  0.32751352927E+02 -0.61565604055E+01  0.39584764929E+02  0.51957655538E+02  0.47000000000E+01 0. -1.
        -13    1    6    6    0    0 -0.98372646958E+01  0.12469815766E+02  0.11198511473E+02  0.19433855540E+02  0.00000000000E+00 0.  1.
         14    1    6    6    0    0  0.10320512969E+02  0.79026178587E+01 -0.11019082951E+03  0.11095487040E+03  0.00000000000E+00 0. -1.
         -5    1    3    3    0  503 -0.36434868404E+02  0.53202863282E+02 -0.39937009205E+03  0.40456965373E+03  0.47000000000E+01 0.  1.
         11    1    4    4    0    0  0.11415202173E+02 -0.45053537214E+02 -0.57386041413E+02  0.73846366229E+02  0.00000000000E+00 0. -1.
        -12    1    4    4    0    0 -0.82149349685E+01 -0.22365199287E+02 -0.20531154438E+03  0.20668942293E+03  0.00000000000E+00 0.  1.
</event>
<event>
12    1  0.8526130E-002  0.1814633E+03  0.7818608E-02  0.1167318E+00
         21   -1    0    0  503  502  0.00000000000E+00  0.00000000000E+00  0.21395655235E+03  0.21395655235E+03  0.00000000000E+00 0. -1.
         21   -1    0    0  501  503 -0.00000000000E+00 -0.00000000000E+00 -0.27403914977E+03  0.27403914977E+03  0.00000000000E+00 0. -1.
          6    2    1    2  501    0 -0.50977762305E+02 -0.35647964762E+01 -0.19391371345E+03  0.26557756221E+03  0.17411913525E+03 0.  0.
         24    2    3    3    0    0  0.28415809535E+02 -0.23739701440E+01 -0.50742110055E+02  0.10179430502E+03  0.83511824528E+02 0.  0.
         -6    2    1    2    0  502  0.50977762305E+02  0.35647964762E+01  0.13383111603E+03  0.22241813992E+03  0.17014000506E+03 0.  0.
        -24    2    5    5    0    0  0.32682968294E+02  0.11072402876E+02  0.16466223471E+03  0.18548967500E+03  0.78115257595E+02 0.  0.
          5    1    3    3  501    0 -0.79393571840E+02 -0.11908263322E+01 -0.14317160339E+03  0.16378325719E+03  0.47000000000E+01 0. -1.
        -13    1    4    4    0    0  0.30919713237E+02  0.17617572692E+02 -0.67026933670E+02  0.75888189934E+02  0.00000000000E+00 0.  1.
         14    1    4    4    0    0 -0.25039037023E+01 -0.19991542836E+02  0.16284823615E+02  0.25906115087E+02  0.00000000000E+00 0. -1.
         -5    1    5    5    0  502  0.18294794011E+02 -0.75076063993E+01 -0.30831118682E+02  0.36928464915E+02  0.47000000000E+01 0.  1.
         13    1    6    6    0    0 -0.82689301210E+01 -0.27753683778E+02  0.54738691026E+02  0.61927106051E+02  0.00000000000E+00 0. -1.
        -14    1    6    6    0    0  0.40951898415E+02  0.38826086654E+02  0.10992354369E+03  0.12356256895E+03  0.00000000000E+00 0.  1.
</event>
<event>
12    1  0.8526130E-002  0.1957692E+03  0.7818608E-02  0.1155016E+00
         21   -1    0    0  501  502  0.00000000000E+00  0.00000000000E+00  0.83387428391E+03  0.83387428391E+03  0.00000000000E+00 0.  1.
         21   -1    0    0  502  503 -0.00000000000E+00 -0.00000000000E+00 -0.44382549656E+02  0.44382549656E+02  0.00000000000E+00 0.  1.
         -6    2    1    2    0  503  0.64600387314E+02 -0.43294733307E+02  0.42894580551E+03  0.47150829372E+03  0.17966057721E+03 0.  0.
        -24    2    3    3    0    0  0.17935009198E+02  0.27675471028E+02  0.10190556234E+03  0.13358546514E+03  0.79829421955E+02 0.  0.
          6    2    1    2  501    0 -0.64600387314E+02  0.43294733307E+02  0.36054592874E+03  0.40674853985E+03  0.17147409124E+03 0.  0.
         24    2    5    5    0    0 -0.64119528076E+02 -0.29428551323E+02  0.15313966836E+03  0.18691143152E+03  0.80664562817E+02 0.  0.
          5    1    5    5  501    0 -0.48085923765E+00  0.72723284630E+02  0.20740626037E+03  0.21983710832E+03  0.47000000000E+01 0. -1.
        -13    1    6    6    0    0 -0.50446175951E+02  0.21199129657E+02  0.78888831228E+02  0.96008684289E+02  0.00000000000E+00 0.  1.
         14    1    6    6    0    0 -0.13673352125E+02 -0.50627680980E+02  0.74250837135E+02  0.90902747236E+02  0.00000000000E+00 0. -1.
         -5    1    3    3    0  503  0.46665378116E+02 -0.70970204335E+02  0.32704024317E+03  0.33792282857E+03  0.47000000000E+01 0.  1.
         11    1    4    4    0    0 -0.24081782154E+02  0.27833546715E+02  0.75408718365E+02  0.83911342260E+02  0.00000000000E+00 0. -1.
        -12    1    4    4    0    0  0.42016791351E+02 -0.15807568751E+00  0.26496843975E+02  0.49674122881E+02  0.00000000000E+00 0.  1.
</event>
<event>
12    1  0.8526130E-002  0.2238824E+03  0.7818608E-02  0.1134354E+00
         21   -1    0    0  503  502  0.00000000000E+00  0.00000000000E+00  0.31043616105E+03  0.31043616105E+03  0.00000000000E+00 0.  1.
         21   -1    0    0  501  503 -0.00000000000E+00 -0.00000000000E+00 -0.15766157305E+03  0.15766157305E+03  0.00000000000E+00 0. -1.
          6    2    1    2  501    0  0.96466914216E+02 -0.58070404156E+02  0.18879558317E+02  0.20723147627E+03  0.17294626235E+03 0.  0.
         24    2    3    3    0    0  0.94913892446E+02 -0.63395945104E+02  0.72373297621E+02  0.15324589109E+03  0.72240681698E+02 0.  0.
         -6    2    1    2    0  502 -0.96466914216E+02  0.58070404156E+02  0.13389502969E+03  0.26086625783E+03  0.19350785028E+03 0.  0.
        -24    2    5    5    0    0 -0.12226702939E+03  0.48686983928E+02  0.38697949362E+02  0.16167821106E+03  0.85572564342E+02 0.  0.
          5    1    3    3  501    0  0.15530217701E+01  0.53255409480E+01 -0.53493739304E+02  0.53985585185E+02  0.47000000000E+01 0. -1.
        -13    1    4    4    0    0  0.80711062694E+02 -0.27878247956E+02  0.18828896191E+02  0.87441407137E+02  0.00000000000E+00 0.  1.
         14    1    4    4    0    0  0.14202829751E+02 -0.35517697148E+02  0.53544401430E+02  0.65804483952E+02  0.00000000000E+00 0. -1.
         -5    1    5    5    0  502  0.25800115175E+02  0.93834202277E+01  0.95197080327E+02  0.99188046765E+02  0.47000000000E+01 0.  1.
         13    1    6    6    0    0 -0.82860069991E+02  0.69745841379E+02  0.10433065101E+02  0.10880773151E+03  0.00000000000E+00 0. -1.
        -14    1    6    6    0    0 -0.39406959400E+02 -0.21058857451E+02  0.28264884260E+02  0.52870479556E+02  0.00000000000E+00 0.  1.
</event>
<event>
12    1  0.8526130E-002  0.1793517E+03  0.7818608E-02  0.1168941E+00
         21   -1    0    0  503  502  0.00000000000E+00  0.00000000000E+00  0.72722597874E+02  0.72722597874E+02  0.00000000000E+00 0. -1.
         21   -1    0    0  501  503 -0.00000000000E+00 -0.00000000000E+00 -0.46047878610E+03  0.46047878610E+03  0.00000000000E+00 0.  1.
          6    2    1    2  501    0 -0.81388107010E+01  0.44763335084E+02 -0.13287932904E+03  0.22154573864E+03  0.17133476534E+03 0.  0.
         24    2    3    3    0    0  0.56772981091E+01  0.33947997596E+02 -0.16407120704E+03  0.18545031453E+03  0.79295396620E+02 0.  0.
         -6    2    1    2    0  502  0.81388107010E+01 -0.44763335084E+02 -0.25487685919E+03  0.31165564534E+03  0.17348496049E+03 0.  0.
        -24    2    5    5    0    0 -0.76254099928E+01 -0.93576286112E+02 -0.14480768102E+03  0.19012980930E+03  0.79783530271E+02 0.  0.
          5    1    3    3  501    0 -0.13816108810E+02  0.10815337487E+02  0.31191878005E+02  0.36095424102E+02  0.47000000000E+01 0. -1.
        -11    1    4    4    0    0  0.42209362436E+02  0.16804726627E+02 -0.98210720306E+02  0.10820986414E+03  0.00000000000E+00 0.  1.
         12    1    4    4    0    0 -0.36532064327E+02  0.17143270970E+02 -0.65860486739E+02  0.77240450394E+02  0.00000000000E+00 0. -1.
         -5    1    5    5    0  502  0.15764220694E+02  0.48812951028E+02 -0.11006917817E+03  0.12152583604E+03  0.47000000000E+01 0.  1.
         13    1    6    6    0    0  0.35305275975E+02 -0.49772607117E+02 -0.61067434288E+02  0.86330796715E+02  0.00000000000E+00 0. -1.
        -14    1    6    6    0    0 -0.42930685968E+02 -0.43803678995E+02 -0.83740246729E+02  0.10379901258E+03  0.00000000000E+00 0.  1.
</event>
<event>
12    1  0.8526130E-002  0.1743217E+03  0.7818608E-02  0.1173481E+00
         21   -1    0    0  501  502  0.00000000000E+00  0.00000000000E+00  0.14676690309E+03  0.14676690309E+03  0.00000000000E+00 0.  1.
         21   -1    0    0  502  503 -0.00000000000E+00 -0.00000000000E+00 -0.26208178356E+03  0.26208178356E+03  0.00000000000E+00 0.  1.
         -6    2    1    2    0  503  0.26306952119E+02 -0.19804872385E+02 -0.15163284201E+03  0.23104239221E+03  0.17118346744E+03 0.  0.
        -24    2    3    3    0    0  0.75474414629E+02  0.16218211076E+02 -0.12138461873E+03  0.16283574354E+03  0.76300957234E+02 0.  0.
          6    2    1    2  501    0 -0.26306952119E+02  0.19804872385E+02  0.36317961537E+02  0.17780629444E+03  0.17091458485E+03 0.  0.
         24    2    5    5    0    0  0.34391708667E+00  0.76021822134E+02  0.36311348902E+02  0.11541475405E+03  0.78883557694E+02 0.  0.
          5    1    5    5  501    0 -0.26650869206E+02 -0.56216949750E+02  0.66126353797E-02  0.62391540391E+02  0.47000000000E+01 0. -1.
        -11    1    6    6    0    0  0.30200665352E+02  0.35021402295E+02 -0.93372593293E+01  0.47177995063E+02  0.00000000000E+00 0.  1.
         12    1    6    6    0    0 -0.29856748265E+02  0.41000419839E+02  0.45648608231E+02  0.68236758989E+02  0.00000000000E+00 0. -1.
         -5    1    3    3    0  503 -0.49167462510E+02 -0.36023083461E+02 -0.30248223272E+02  0.68206648670E+02  0.47000000000E+01 0.  1.
         13    1    4    4    0    0  0.64563837976E+02 -0.21808878114E+02 -0.86262719495E+02  0.10993349405E+03  0.00000000000E+00 0. -1.
        -14    1    4    4    0    0  0.10910576653E+02  0.38027089191E+02 -0.35121899239E+02  0.52902249493E+02  0.00000000000E+00 0.  1.
</event>
<event>
12    1  0.8526130E-002  0.1809381E+03  0.7818608E-02  0.1167131E+00
         21   -1    0    0  501  502  0.00000000000E+00  0.00000000000E+00  0.17178698287E+04  0.17178698287E+04  0.00000000000E+00 0.  1.
         21   -1    0    0  502  503 -0.00000000000E+00 -0.00000000000E+00 -0.18976794665E+02  0.18976794665E+02  0.00000000000E+00 0.  1.
         -6    2    1    2    0  503 -0.50951456563E+02 -0.21896970408E+02  0.81853545442E+03  0.83808744128E+03  0.17121548074E+03 0.  0.
        -24    2    3    3    0    0 -0.62016667896E+02  0.32775036386E+02  0.68226262384E+03  0.69076520405E+03  0.82182778753E+02 0.  0.
          6    2    1    2  501    0  0.50951456563E+02  0.21896970408E+02  0.88035757962E+03  0.89875918209E+03  0.17222970465E+03 0.  0.
         24    2    5    5    0    0 -0.50690419463E+01  0.47582142077E+00  0.73890883691E+03  0.74504841899E+03  0.95315034464E+02 0.  0.
          5    1    5    5  501    0  0.56020498509E+02  0.21421148988E+02  0.14144874271E+03  0.15371076310E+03  0.47000000000E+01 0. -1.
        -13    1    6    6    0    0 -0.29461399582E+02 -0.25292778550E+02  0.14588480179E+03  0.15096381720E+03  0.00000000000E+00 0.  1.
         14    1    6    6    0    0  0.24392357636E+02  0.25768599971E+02  0.59302403512E+03  0.59408460179E+03  0.00000000000E+00 0. -1.
         -5    1    3    3    0  503  0.11065211333E+02 -0.54672006795E+02  0.13627283058E+03  0.14732223723E+03  0.47000000000E+01 0.  1.
         11    1    4    4    0    0 -0.38105966275E+02 -0.11493204041E+02  0.50310455595E+03  0.50467648313E+03  0.00000000000E+00 0. -1.
        -12    1    4    4    0    0 -0.23910701621E+02  0.44268240427E+02  0.17915806789E+03  0.18608872092E+03  0.00000000000E+00 0.  1.
</event>
<event>
12    1  0.8526130E-002  0.1799701E+03  0.7818608E-02  0.1168026E+00
         21   -1    0    0  501  502  0.00000000000E+00  0.00000000000E+00  0.51673450041E+03  0.51673450041E+03  0.00000000000E+00 0.  1.
         21   -1    0    0  502  503 -0.00000000000E+00 -0.00000000000E+00 -0.96120418537E+02  0.96120418537E+02  0.00000000000E+00 0.  1.
         -6    2    1    2    0  503  0.42394937734E+02 -0.35015703046E+02  0.29122372703E+02  0.18231109763E+03  0.17136450485E+03 0.  0.
        -24    2    3    3    0    0  0.77469672497E+02  0.15689401686E+02 -0.45328327165E+01  0.11191218062E+03  0.79095398833E+02 0.  0.
          6    2    1    2  501    0 -0.42394937734E+02  0.35015703046E+02  0.39149170917E+03  0.43054382131E+03  0.17052505247E+03 0.  0.
         24    2    5    5    0    0 -0.70625785945E+02  0.13615257507E+02  0.37696041816E+03  0.39196651868E+03  0.79782316519E+02 0.  0.
          5    1    5    5  501    0  0.28230848211E+02  0.21400445539E+02  0.14531291005E+02  0.38577302631E+02  0.47000000000E+01 0. -1.
        -11    1    6    6    0    0 -0.51620163979E+02 -0.21115685941E+02  0.30286262003E+03  0.30795499693E+03  0.00000000000E+00 0.  1.
         12    1    6    6    0    0 -0.19005621965E+02  0.34730943448E+02  0.74097798126E+02  0.84011521747E+02  0.00000000000E+00 0. -1.
         -5    1    3    3    0  503 -0.35074734763E+02 -0.50705104732E+02  0.33655205419E+02  0.70398917012E+02  0.47000000000E+01 0.  1.
         11    1    4    4    0    0  0.76225546175E+01  0.36762287836E+02 -0.96863964849E+01  0.38773643403E+02  0.00000000000E+00 0. -1.
        -12    1    4    4    0    0  0.69847117880E+02 -0.21072886150E+02  0.51535637684E+01  0.73138537217E+02  0.00000000000E+00 0.  1.
</event>
<event>
12    1  0.8526130E-002  0.1904786E+03  0.7818608E-02  0.1159024E+00
         21   -1    0    0  503  502  0.00000000000E+00  0.00000000000E+00  0.17768524355E+03  0.17768524355E+03  0.00000000000E+00 0. -1.
         21   -1    0    0  501  503 -0.00000000000E+00 -0.00000000000E+00 -0.23458527770E+03  0.23458527770E+03  0.00000000000E+00 0. -1.
          6    2    1    2  501    0 -0.38626492225E+02  0.61560548948E+02 -0.10840128759E+03  0.21916416515E+03  0.17606926207E+03 0.  0.
         24    2    3    3    0    0 -0.65422417826E+02  0.65970720482E+02 -0.13414595559E+03  0.18145012039E+03  0.79352253092E+02 0.  0.
         -6    2    1    2    0  502  0.38626492225E+02 -0.61560548948E+02  0.51501253445E+02  0.19310635610E+03  0.17133586482E+03 0.  0.
        -24    2    5    5    0    0  0.34642936995E+02 -0.10269774307E+03  0.98595806368E+01  0.13424842234E+03  0.78603231838E+02 0.  0.
          5    1    3    3  501    0  0.26795925601E+02 -0.44101715337E+01  0.25744668003E+02  0.37714044763E+02  0.47000000000E+01 0. -1.
        -11    1    4    4    0    0  0.39004518527E+01  0.42482896577E+02 -0.23274356048E+02  0.48597383425E+02  0.00000000000E+00 0.  1.
         12    1    4    4    0    0 -0.69322869679E+02  0.23487823905E+02 -0.11087159955E+03  0.13285273696E+03  0.00000000000E+00 0. -1.
         -5    1    5    5    0  502  0.39835552299E+01  0.41137194121E+02  0.41641672809E+02  0.58857933762E+02  0.47000000000E+01 0.  1.
         13    1    6    6    0    0  0.43411199798E+02 -0.34496514240E+02  0.29403588680E+02  0.62762351692E+02  0.00000000000E+00 0. -1.
        -14    1    6    6    0    0 -0.87682628027E+01 -0.68201228829E+02 -0.19544008044E+02  0.71486070649E+02  0.00000000000E+00 0.  1.
</event>
<event>
12    1  0.8526130E-002  0.1890777E+03  0.7818608E-02  0.1160266E+00
         21   -1    0    0  503  502  0.00000000000E+00  0.00000000000E+00  0.16150349765E+03  0.16150349765E+03  0.00000000000E+00 0.  1.
         21   -1    0    0  501  503 -0.00000000000E+00 -0.00000000000E+00 -0.22180557568E+03  0.22180557568E+03  0.00000000000E+00 0.  1.
          6    2    1    2  501    0 -0.68463615441E+02 -0.65713148695E+01 -0.59617794518E+02  0.19423011810E+03  0.17158265803E+03 0.  0.
         24    2    3    3    0    0 -0.10557705271E+03 -0.34407336139E+02 -0.33060306332E+02  0.14056782701E+03  0.79598689048E+02 0.  0.
         -6    2    1    2    0  502  0.68463615441E+02  0.65713148695E+01 -0.68428351596E+00  0.18907895523E+03  0.17612476898E+03 0.  0.
        -24    2    5    5    0    0  0.81054080423E+02  0.63732896349E+02  0.33523762469E+01  0.13022021903E+03  0.79463331084E+02 0.  0.
          5    1    3    3  501    0  0.37113437267E+02  0.27836021269E+02 -0.26557488186E+02  0.53662291087E+02  0.47000000000E+01 0. -1.
        -11    1    4    4    0    0 -0.30731344926E+02 -0.14013368203E+02 -0.50788019888E+02  0.60993548950E+02  0.00000000000E+00 0.  1.
         12    1    4    4    0    0 -0.74845707782E+02 -0.20393967936E+02  0.17727713556E+02  0.79574278065E+02  0.00000000000E+00 0. -1.
         -5    1    5    5    0  502 -0.12590464981E+02 -0.57161581480E+02 -0.40366597628E+01  0.58858736206E+02  0.47000000000E+01 0.  1.
         11    1    6    6    0    0  0.57408844457E+02  0.60378534615E+02 -0.30559908995E+02  0.88742610407E+02  0.00000000000E+00 0. -1.
        -12    1    6    6    0    0  0.23645235966E+02  0.33543617347E+01  0.33912285242E+02  0.41477608621E+02  0.00000000000E+00 0.  1.
</event>
<event>
12    1  0.8526130E-002  0.3064760E+03  0.7818608E-02  0.1082119E+00
         21   -1    0    0  503  502  0.00000000000E+00  0.00000000000E+00  0.32602578468E+03  0.32602578468E+03  0.00000000000E+00 0. -1.
         21   -1    0    0  501  503 -0.00000000000E+00 -0.00000000000E+00 -0.28937661831E+03  0.28937661831E+03  0.00000000000E+00 0.  1.
          6    2    1    2  501    0 -0.23745384893E+03  0.89147114384E+02 -0.61453462884E+01  0.30653762033E+03  0.17203490640E+03 0.  0.
         24    2    3    3    0    0 -0.72775749749E+02  0.63364255110E+02 -0.48037014470E+02  0.13460555803E+03  0.80621107138E+02 0.  0.
         -6    2    1    2    0  502  0.23745384893E+03 -0.89147114384E+02  0.42794512660E+02  0.30886478266E+03  0.17098112550E+03 0.  0.
        -24    2    5    5    0    0  0.84019271294E+02 -0.93855263003E+02  0.41565593545E+02  0.15528113600E+03  0.80724743967E+02 0.  0.
          5    1    3    3  501    0 -0.16467809918E+03  0.25782859274E+02  0.41891668181E+02  0.17193206230E+03  0.47000000000E+01 0. -1.
        -11    1    4    4    0    0 -0.84189809646E+02  0.64119691210E+02 -0.56882718628E+02  0.12014533918E+03  0.00000000000E+00 0.  1.
         12    1    4    4    0    0  0.11414059896E+02 -0.75543610069E+00  0.88457041582E+01  0.14460218846E+02  0.00000000000E+00 0. -1.
         -5    1    5    5    0  502  0.15343457764E+03  0.47081486188E+01  0.12289191143E+01  0.15358364666E+03  0.47000000000E+01 0.  1.
         11    1    6    6    0    0  0.22504660551E+02  0.11839533942E+02  0.16881390336E+02  0.30522379497E+02  0.00000000000E+00 0. -1.
        -12    1    6    6    0    0  0.61514610743E+02 -0.10569479694E+03  0.24684203209E+02  0.12475875650E+03  0.00000000000E+00 0.  1.
</event>
<event>
12    1  0.8526130E-002  0.2103836E+03  0.7818608E-02  0.1141367E+00
         21   -1    0    0  503  502  0.00000000000E+00  0.00000000000E+00  0.74924076055E+02  0.74924076055E+02  0.00000000000E+00 0.  1.
         21   -1    0    0  501  503 -0.00000000000E+00 -0.00000000000E+00 -0.63736038649E+03  0.63736038649E+03  0.00000000000E+00 0. -1.
          6    2    1    2  501    0  0.10022913091E+03  0.64305832698E+02 -0.37872405036E+03  0.43297914908E+03  0.17279443977E+03 0.  0.
         24    2    3    3    0    0  0.14666073745E+02  0.83513632119E+02 -0.16447817966E+03  0.20143356087E+03  0.79578812448E+02 0.  0.
         -6    2    1    2    0  502 -0.10022913091E+03 -0.64305832698E+02 -0.18371226008E+03  0.27930531347E+03  0.17343628463E+03 0.  0.
        -24    2    5    5    0    0 -0.60843008403E+02 -0.10105913157E+03 -0.17167316844E+03  0.22390584279E+03  0.82142132475E+02 0.  0.
          5    1    3    3  501    0  0.85563057163E+02 -0.19207799422E+02 -0.21424587070E+03  0.23154558821E+03  0.47000000000E+01 0. -1.
        -13    1    4    4    0    0  0.12018006352E+02 -0.10830972215E+02 -0.65543744419E+01  0.17455722847E+02  0.00000000000E+00 0.  1.
         14    1    4    4    0    0  0.26480673931E+01  0.94344604335E+02 -0.15792380522E+03  0.18397783802E+03  0.00000000000E+00 0. -1.
         -5    1    5    5    0  502 -0.39386122504E+02  0.36753298872E+02 -0.12039091636E+02  0.55399470677E+02  0.47000000000E+01 0.  1.
         11    1    6    6    0    0 -0.50351026892E+02 -0.92101375931E+01 -0.65423099704E+02  0.83067650252E+02  0.00000000000E+00 0. -1.
        -12    1    6    6    0    0 -0.10491981511E+02 -0.91848993976E+02 -0.10625006874E+03  0.14083819254E+03  0.00000000000E+00 0.  1.
</event>
<event>
12    1  0.8526130E-002  0.1866169E+03  0.7818608E-02  0.1161699E+00
         21   -1    0    0  503  502  0.00000000000E+00  0.00000000000E+00  0.13649797763E+04  0.13649797763E+04  0.00000000000E+00 0. -1.
         21   -1    0    0  501  503 -0.00000000000E+00 -0.00000000000E+00 -0.40606622497E+02  0.40606622497E+02  0.00000000000E+00 0.  1.
          6    2    1    2  501    0  0.60201989733E+02 -0.29213966732E+02  0.23318717981E+03  0.29866725500E+03  0.17420715531E+03 0.  0.
         24    2    3    3    0    0  0.94371276541E+02 -0.55320234026E+02  0.21037626386E+03  0.24976423628E+03  0.78471238054E+02 0.  0.
         -6    2    1    2    0  502 -0.60201989733E+02  0.29213966732E+02  0.10911859740E+04  0.11069191438E+04  0.17350915148E+03 0.  0.
        -24    2    5    5    0    0 -0.97989214815E+02  0.54626462348E+02  0.82610455410E+03  0.83791371916E+03  0.84051947280E+02 0.  0.
          5    1    3    3  501    0 -0.34169286808E+02  0.26106267294E+02  0.22810915951E+02  0.48903018716E+02  0.47000000000E+01 0. -1.
        -13    1    4    4    0    0  0.47012176590E+02 -0.65804875358E+02  0.95980784628E+02  0.12550990951E+03  0.00000000000E+00 0.  1.
         14    1    4    4    0    0  0.47359099951E+02  0.10484641332E+02  0.11439547923E+03  0.12425432677E+03  0.00000000000E+00 0. -1.
         -5    1    5    5    0  502  0.37787225082E+02 -0.25412495617E+02  0.26508141990E+03  0.26900542465E+03  0.47000000000E+01 0.  1.
         11    1    6    6    0    0 -0.14187089693E+02  0.30310972099E+02  0.47318238628E+03  0.47436441607E+03  0.00000000000E+00 0. -1.
        -12    1    6    6    0    0 -0.83802125122E+02  0.24315490249E+02  0.35292216781E+03  0.36354930309E+03  0.00000000000E+00 0.  1.
</event>
<event>
12    1  0.8526130E-002  0.1927342E+03  0.7818608E-02  0.1156162E+00
         21   -1    0    0  501  502  0.00000000000E+00  0.00000000000E+00  0.72768991374E+03  0.72768991374E+03  0.00000000000E+00 0.  1.
         21   -1    0    0  502  503 -0.00000000000E+00 -0.00000000000E+00 -0.51083107244E+02  0.51083107244E+02  0.00000000000E+00 0.  1.
         -6    2    1    2    0  503 -0.86129550181E+02  0.39619734122E+01  0.31405514372E+03  0.36847943594E+03  0.17237303956E+03 0.  0.
        -24    2    3    3    0    0 -0.14566969599E+01  0.26053643533E+02  0.23824673996E+03  0.25260649673E+03  0.79797360731E+02 0.  0.
          6    2    1    2  501    0  0.86129550181E+02 -0.39619734122E+01  0.36255166277E+03  0.41029358504E+03  0.17164824817E+03 0.  0.
         24    2    5    5    0    0  0.11421857695E+03  0.23942673968E+02  0.21038824680E+03  0.25299305125E+03  0.78250460912E+02 0.  0.
          5    1    5    5  501    0 -0.28089026768E+02 -0.27904647380E+02  0.15216341597E+03  0.15730053379E+03  0.47000000000E+01 0. -1.
        -13    1    6    6    0    0  0.74736807835E+02 -0.10149475526E+02  0.17326110695E+03  0.18896564100E+03  0.00000000000E+00 0.  1.
         14    1    6    6    0    0  0.39481769114E+02  0.34092149494E+02  0.37127139851E+02  0.64027410247E+02  0.00000000000E+00 0. -1.
         -5    1    3    3    0  503 -0.84672853221E+02 -0.22091670120E+02  0.75808403762E+02  0.11587293921E+03  0.47000000000E+01 0.  1.
         11    1    4    4    0    0  0.32121447752E+01  0.38767307151E+02  0.47573795279E+02  0.61453136413E+02  0.00000000000E+00 0. -1.
        -12    1    4    4    0    0 -0.46688417350E+01 -0.12713663619E+02  0.19067294468E+03  0.19115336031E+03  0.00000000000E+00 0.  1.
</event>
<event>
12    1  0.8526130E-002  0.1735944E+03  0.7818608E-02  0.1174717E+00
         21   -1    0    0  501  502  0.00000000000E+00  0.00000000000E+00  0.35419841808E+02  0.35419841808E+02  0.00000000000E+00 0.  1.
         21   -1    0    0  502  503 -0.00000000000E+00 -0.00000000000E+00 -0.11228504208E+04  0.11228504208E+04  0.00000000000E+00 0.  1.
         -6    2    1    2    0  503  0.12702492442E+02 -0.80223984724E+01 -0.83702158908E+03  0.85483340780E+03  0.17294306091E+03 0.  0.
        -24    2    3    3    0    0 -0.46522547568E+02 -0.22665626987E+02 -0.30901064082E+03  0.32328878974E+03  0.79686807905E+02 0.  0.
          6    2    1    2  501    0 -0.12702492442E+02  0.80223984724E+01 -0.25040898991E+03  0.30343685480E+03  0.17071482195E+03 0.  0.
         24    2    5    5    0    0 -0.22113919058E+01 -0.45696682893E+02 -0.22455151068E+03  0.24272028272E+03  0.79979232387E+02 0.  0.
          5    1    5    5  501    0 -0.10491100536E+02  0.53719081366E+02 -0.25857479225E+02  0.60716572080E+02  0.47000000000E+01 0. -1.
        -11    1    6    6    0    0  0.37443021444E+02 -0.10796182305E+02 -0.10584346190E+03  0.11278907675E+03  0.00000000000E+00 0.  1.
         12    1    6    6    0    0 -0.39654413350E+02 -0.34900500589E+02 -0.11870804878E+03  0.12993120597E+03  0.00000000000E+00 0. -1.
         -5    1    3    3    0  503  0.59225040010E+02  0.14643228515E+02 -0.52801094826E+03  0.53154461806E+03  0.47000000000E+01 0.  1.
         13    1    4    4    0    0 -0.11355201618E+02 -0.48641084395E+02 -0.19155216746E+03  0.19795739075E+03  0.00000000000E+00 0. -1.
        -14    1    4    4    0    0 -0.35167345950E+02  0.25975457408E+02 -0.11745847336E+03  0.12533139899E+03  0.00000000000E+00 0.  1.
</event>
<event>
12    1  0.8526130E-002  0.1806979E+03  0.7818608E-02  0.1167256E+00
         21   -1    0    0  503  502  0.00000000000E+00  0.00000000000E+00  0.24745593970E+03  0.24745593970E+03  0.00000000000E+00 0. -1.
         21   -1    0    0  501  503 -0.00000000000E+00 -0.00000000000E+00 -0.25694053190E+03  0.25694053190E+03  0.00000000000E+00 0. -1.
          6    2    1    2  501    0 -0.53528702268E+02 -0.70218475565E+01 -0.18091429383E+03  0.25569845397E+03  0.17244445292E+03 0.  0.
         24    2    3    3    0    0 -0.11709586240E+02 -0.68304608196E+02 -0.15193596459E+03  0.17590967793E+03  0.55290537554E+02 0.  0.
         -6    2    1    2    0  502  0.53528702268E+02  0.70218475565E+01  0.17142970163E+03  0.24869801762E+03  0.17189512227E+03 0.  0.
        -24    2    5    5    0    0  0.35731199116E+02 -0.59694376807E+02  0.74664254593E+02  0.12972975525E+03  0.80093203655E+02 0.  0.
          5    1    3    3  501    0 -0.41819116028E+02  0.61282760639E+02 -0.28978329236E+02  0.79788776042E+02  0.47000000000E+01 0. -1.
        -13    1    4    4    0    0 -0.16705203975E+02 -0.39778626480E+02 -0.13636836673E+03  0.14303053663E+03  0.00000000000E+00 0.  1.
         14    1    4    4    0    0  0.49956177346E+01 -0.28525981716E+02 -0.15567597860E+02  0.32879141299E+02  0.00000000000E+00 0. -1.
         -5    1    5    5    0  502  0.17797503152E+02  0.66716224364E+02  0.96765447033E+02  0.11896826237E+03  0.47000000000E+01 0.  1.
         13    1    6    6    0    0  0.96091361812E+01 -0.51759361054E+02  0.85459060951E+02  0.10037239687E+03  0.00000000000E+00 0. -1.
        -14    1    6    6    0    0  0.26122062935E+02 -0.79350157536E+01 -0.10794806358E+02  0.29357358384E+02  0.00000000000E+00 0.  1.
</event>
<event>
12    1  0.8526130E-002  0.2628062E+03  0.7818608E-02  0.1105581E+00
         21   -1    0    0  501  502  0.00000000000E+00  0.00000000000E+00  0.35182270216E+03  0.35182270216E+03  0.00000000000E+00 0.  1.
         21   -1    0    0  502  503 -0.00000000000E+00 -0.00000000000E+00 -0.33638605816E+03  0.33638605816E+03  0.00000000000E+00 0. -1.
         -6    2    1    2    0  503  0.16024955894E+03  0.11607745850E+03 -0.21477191303E+03  0.33940252082E+03  0.17295432635E+03 0.  0.
        -24    2    3    3    0    0  0.10449746150E+03  0.14460005997E+03 -0.17302241864E+03  0.26399068193E+03  0.89024861652E+02 0.  0.
          6    2    1    2  501    0 -0.16024955894E+03 -0.11607745850E+03  0.23020855702E+03  0.34880623949E+03  0.17180196585E+03 0.  0.
         24    2    5    5    0    0 -0.95142887685E+02 -0.34622606819E+02  0.20248836875E+03  0.24080498791E+03  0.82064661981E+02 0.  0.
          5    1    5    5  501    0 -0.65106671250E+02 -0.81454851686E+02  0.27720188276E+02  0.10800125158E+03  0.47000000000E+01 0. -1.
        -13    1    6    6    0    0 -0.88888090375E+02 -0.57178825612E+02  0.17736153629E+03  0.20646458598E+03  0.00000000000E+00 0.  1.
         14    1    6    6    0    0 -0.62547973100E+01  0.22556218793E+02  0.25126832463E+02  0.34340401938E+02  0.00000000000E+00 0. -1.
         -5    1    3    3    0  503  0.55752097440E+02 -0.28522601466E+02 -0.41749494392E+02  0.75411838894E+02  0.47000000000E+01 0.  1.
         13    1    4    4    0    0  0.96037750899E+02  0.84564412416E+02 -0.15446863904E+03  0.20058651473E+03  0.00000000000E+00 0. -1.
        -14    1    4    4    0    0  0.84597105957E+01  0.60035647555E+02 -0.18553779595E+02  0.63404167197E+02  0.00000000000E+00 0.  1.
</event>
<event>
12    1  0.8526130E-002  0.1732051E+03  0.7818608E-02  0.1174607E+00
         21   -1    0    0  503  502  0.00000000000E+00  0.00000000000E+00  0.25639031623E+04  0.25639031623E+04  0.00000000000E+00 0.  1.
         21   -1    0    0  501  503 -0.00000000000E+00 -0.00000000000E+00 -0.20168078512E+02  0.20168078512E+02  0.00000000000E+00 0.  1.
          6    2    1    2  501    0 -0.17036120588E+01  0.22928869112E+02  0.43339508285E+03  0.46663530920E+03  0.17143097334E+03 0.  0.
         24    2    3    3    0    0  0.58649416189E+02 -0.17255651992E+02  0.27760306261E+03  0.29473264102E+03  0.77886826676E+02 0.  0.
         -6    2    1    2    0  502  0.17036120588E+01 -0.22928869112E+02  0.21103400009E+04  0.21174359316E+04  0.17167227380E+03 0.  0.
        -24    2    5    5    0    0 -0.23354296063E+02  0.35577772348E+02  0.16793162932E+04  0.16817130237E+04  0.79020759427E+02 0.  0.
          5    1    3    3  501    0 -0.60353028248E+02  0.40184521104E+02  0.15579202024E+03  0.17190266817E+03  0.47000000000E+01 0. -1.
        -13    1    4    4    0    0 -0.62791439982E+01  0.22568544690E+01 -0.20488488600E+01  0.69798870404E+01  0.00000000000E+00 0.  1.
         14    1    4    4    0    0  0.64928560188E+02 -0.19512506461E+02  0.27965191147E+03  0.28775275398E+03  0.00000000000E+00 0. -1.
         -5    1    5    5    0  502  0.25057908122E+02 -0.58506641459E+02  0.43102370774E+03  0.43572290792E+03  0.47000000000E+01 0.  1.
         11    1    6    6    0    0 -0.32806333380E+02  0.37309675750E+02  0.52246498651E+03  0.52482180742E+03  0.00000000000E+00 0. -1.
        -12    1    6    6    0    0  0.94520373170E+01 -0.17319034028E+01  0.11568513067E+04  0.11568912163E+04  0.00000000000E+00 0.  1.
</event>
<event>
12    1  0.8526130E-002  0.2421331E+03  0.7818608E-02  0.1118880E+00
         21   -1    0    0  501  502  0.00000000000E+00  0.00000000000E+00  0.23604461081E+03  0.23604461081E+03  0.00000000000E+00 0. -1.
         21   -1    0    0  502  503 -0.00000000000E+00 -0.00000000000E+00 -0.28881602471E+03  0.28881602471E+03  0.00000000000E+00 0. -1.
         -6    2    1    2    0  503 -0.10236561758E+03 -0.13779318589E+03  0.75628010048E+02  0.25078970935E+03  0.16646381190E+03 0.  0.
        -24    2    3    3    0    0 -0.29648421742E+02 -0.14216154674E+03  0.41718527697E+02  0.17029861580E+03  0.78563660218E+02 0.  0.
          6    2    1    2  501    0  0.10236561758E+03  0.13779318589E+03 -0.12839942395E+03  0.27407092616E+03  0.17077112975E+03 0.  0.
         24    2    5    5    0    0  0.98602990535E+02  0.51550932456E+02 -0.12834174993E+03  0.18761876039E+03  0.79681529204E+02 0.  0.
          5    1    5    5  501    0  0.37626270488E+01  0.86242253434E+02 -0.57674013779E-01  0.86452165768E+02  0.47000000000E+01 0. -1.
        -11    1    6    6    0    0  0.40554654193E+02 -0.13289517466E+02 -0.72771040872E+02  0.84361813878E+02  0.00000000000E+00 0.  1.
         12    1    6    6    0    0  0.58048336342E+02  0.64840449922E+02 -0.55570709060E+02  0.10325694651E+03  0.00000000000E+00 0. -1.
         -5    1    3    3    0  503 -0.72717195841E+02  0.43683608544E+01  0.33909482351E+02  0.80491093550E+02  0.47000000000E+01 0.  1.
         13    1    4    4    0    0  0.28130047534E+01 -0.43656444157E+02 -0.21593050105E+02  0.48785837340E+02  0.00000000000E+00 0. -1.
        -14    1    4    4    0    0 -0.32461426496E+02 -0.98505102588E+02  0.63311577803E+02  0.12151277846E+03  0.00000000000E+00 0.  1.
</event>
<event>
12    1  0.8526130E-002  0.2217820E+03  0.7818608E-02  0.1133406E+00
         21   -1    0    0  503  502  0.00000000000E+00  0.00000000000E+00  0.12045676604E+03  0.12045676604E+03  0.00000000000E+00 0.  1.
         21   -1    0    0  501  503 -0.00000000000E+00 -0.00000000000E+00 -0.41114514864E+03  0.41114514864E+03  0.00000000000E+00 0.  1.
          6    2    1    2  501    0 -0.12844047309E+03  0.31601766276E+02 -0.18755586942E+03  0.28701331753E+03  0.17234794319E+03 0.  0.
         24    2    3    3    0    0 -0.37010248163E+02  0.72623535264E+02 -0.10244041813E+03  0.15544963861E+03  0.83824904016E+02 0.  0.
         -6    2    1    2    0  502  0.12844047309E+03 -0.31601766276E+02 -0.10313251317E+03  0.24458859715E+03  0.17802145888E+03 0.  0.
        -24    2    5    5    0    0  0.84792049880E+02 -0.74479837048E+02 -0.17895425325E+02  0.13955924436E+03  0.80122397545E+02 0.  0.
          5    1    3    3  501    0 -0.91430224929E+02 -0.41021768987E+02 -0.85115451293E+02  0.13156367892E+03  0.47000000000E+01 0. -1.
        -13    1    4    4    0    0 -0.29269448435E+01 -0.18906542736E+02 -0.19450983097E+02  0.27283055323E+02  0.00000000000E+00 0.  1.
         14    1    4    4    0    0 -0.34083303319E+02  0.91530077999E+02 -0.82989435034E+02  0.12816658329E+03  0.00000000000E+00 0. -1.
         -5    1    5    5    0  502  0.43648423212E+02  0.42878070772E+02 -0.85237087850E+02  0.10502935279E+03  0.47000000000E+01 0.  1.
         13    1    6    6    0    0  0.45960614361E+02 -0.62120925081E+02 -0.46117455963E+02  0.89990039170E+02  0.00000000000E+00 0. -1.
        -14    1    6    6    0    0  0.38831435519E+02 -0.12358911967E+02  0.28222030639E+02  0.49569205186E+02  0.00000000000E+00 0.  1.
</event>
<event>
12    1  0.8526130E-002  0.1904254E+03  0.7818608E-02  0.1159085E+00
         21   -1    0    0  501  502  0.00000000000E+00  0.00000000000E+00  0.16144786615E+03  0.16144786615E+03  0.00000000000E+00 0. -1.
         21   -1    0    0  502  503 -0.00000000000E+00 -0.00000000000E+00 -0.24984011382E+03  0.24984011382E+03  0.00000000000E+00 0.  1.
         -6    2    1    2    0  503 -0.54940695253E+02  0.47621627917E+02  0.27102605561E+02  0.19234444712E+03  0.17599868087E+03 0.  0.
        -24    2    3    3    0    0 -0.63524597627E+02  0.81629976517E+02  0.60342241325E+02  0.14379329327E+03  0.79602120137E+02 0.  0.
          6    2    1    2  501    0  0.54940695253E+02 -0.47621627917E+02 -0.11549485324E+03  0.21894353285E+03  0.17120429321E+03 0.  0.
         24    2    5    5    0    0 -0.30410499425E+02 -0.60642355062E+01 -0.81780000549E+02  0.11809401828E+03  0.79351466506E+02 0.  0.
          5    1    5    5  501    0  0.85351194679E+02 -0.41557392411E+02 -0.33714852690E+02  0.10084951457E+03  0.47000000000E+01 0. -1.
        -11    1    6    6    0    0 -0.20243231641E+02 -0.13354175199E+01  0.12050208261E+02  0.23596171010E+02  0.00000000000E+00 0.  1.
         12    1    6    6    0    0 -0.10167267784E+02 -0.47288179863E+01 -0.93830208810E+02  0.94497847272E+02  0.00000000000E+00 0. -1.
         -5    1    3    3    0  503  0.85839023738E+01 -0.34008348600E+02 -0.33239635765E+02  0.48551153850E+02  0.47000000000E+01 0.  1.
         11    1    4    4    0    0 -0.58344965178E+02  0.34515367268E+02  0.67724902518E+02  0.95823316371E+02  0.00000000000E+00 0. -1.
        -12    1    4    4    0    0 -0.51796324489E+01  0.47114609249E+02 -0.73826611928E+01  0.47969976895E+02  0.00000000000E+00 0.  1.
</event>
<event>
12    1  0.8526130E-002  0.2098504E+03  0.7818608E-02  0.1141780E+00
         21   -1    0    0  501  502  0.00000000000E+00  0.00000000000E+00  0.63688623577E+02  0.63688623577E+02  0.00000000000E+00 0. -1.
         21   -1    0    0  502  503 -0.00000000000E+00 -0.00000000000E+00 -0.69329330799E+03  0.69329330799E+03  0.00000000000E+00 0.  1.
         -6    2    1    2    0  503 -0.10207257643E+03 -0.62717339546E+02 -0.28782649324E+03  0.35592145160E+03  0.17170822333E+03 0.  0.
        -24    2    3    3    0    0 -0.86451917167E+02  0.22999846477E+00 -0.90609597744E+02  0.14826075183E+03  0.79354675031E+02 0.  0.
          6    2    1    2  501    0  0.10207257643E+03  0.62717339546E+02 -0.34177819118E+03  0.40106047997E+03  0.17229306746E+03 0.  0.
         24    2    5    5    0    0  0.31895800609E+02  0.71010248001E+02 -0.29729677963E+03  0.31742891794E+03  0.79472922113E+02 0.  0.
          5    1    5    5  501    0  0.70176775816E+02 -0.82929084548E+01 -0.44481411548E+02  0.83631562032E+02  0.47000000000E+01 0. -1.
        -13    1    6    6    0    0  0.49958009047E+02  0.37347237691E+02 -0.24405250598E+03  0.25189728960E+03  0.00000000000E+00 0.  1.
         14    1    6    6    0    0 -0.18062208438E+02  0.33663010310E+02 -0.53244273643E+02  0.65531628337E+02  0.00000000000E+00 0. -1.
         -5    1    3    3    0  503 -0.15620659258E+02 -0.62947338011E+02 -0.19721689549E+03  0.20766069976E+03  0.47000000000E+01 0.  1.
         11    1    4    4    0    0 -0.44846508431E+02  0.21351378980E+02 -0.88581863526E+02  0.10155706400E+03  0.00000000000E+00 0. -1.
        -12    1    4    4    0    0 -0.41605408736E+02 -0.21121380515E+02 -0.20277342184E+01  0.46703687831E+02  0.00000000000E+00 0.  1.
</event>
<event>
12    1  0.8526130E-002  0.1977809E+03  0.7818608E-02  0.1151729E+00
         21   -1    0    0  501  502  0.00000000000E+00  0.00000000000E+00  0.48591118890E+03  0.48591118890E+03  0.00000000000E+00 0. -1.
         21   -1    0    0  502  503 -0.00000000000E+00 -0.00000000000E+00 -0.87450917157E+02  0.87450917157E+02  0.00000000000E+00 0. -1.
         -6    2    1    2    0  503  0.33846558432E+02  0.92501089942E+02  0.28095642177E+03  0.34330902279E+03  0.17094599450E+03 0.  0.
        -24    2    3    3    0    0  0.23110364109E+02  0.12927464864E+03  0.19799468894E+03  0.25180875174E+03  0.83424977619E+02 0.  0.
          6    2    1    2  501    0 -0.33846558432E+02 -0.92501089942E+02  0.11750384997E+03  0.23005308327E+03  0.17150867385E+03 0.  0.
         24    2    5    5    0    0 -0.42763302452E+02 -0.99347641361E+02  0.24825373099E+02  0.13657702395E+03  0.79613632259E+02 0.  0.
          5    1    5    5  501    0  0.89167440205E+01  0.68465514196E+01  0.92678476875E+02  0.93476059321E+02  0.47000000000E+01 0. -1.
        -13    1    6    6    0    0 -0.43509464826E+02 -0.32572841476E+02  0.40743405158E+02  0.67927082928E+02  0.00000000000E+00 0.  1.
         14    1    6    6    0    0  0.74616237441E+00 -0.66774799885E+02 -0.15918032058E+02  0.68649941024E+02  0.00000000000E+00 0. -1.
         -5    1    3    3    0  503  0.10736194322E+02 -0.36773558703E+02  0.82961732828E+02  0.91500271049E+02  0.47000000000E+01 0.  1.
         11    1    4    4    0    0 -0.19089143572E+02  0.10798274002E+02  0.65740225750E+02  0.69302059172E+02  0.00000000000E+00 0. -1.
        -12    1    4    4    0    0  0.42199507682E+02  0.11847637464E+03  0.13225446319E+03  0.18250669257E+03  0.00000000000E+00 0.  1.
</event>
<event>
12    1  0.8526130E-002  0.2237674E+03  0.7818608E-02  0.1131400E+00
         21   -1    0    0  503  502  0.00000000000E+00  0.00000000000E+00  0.24568488419E+03  0.24568488419E+03  0.00000000000E+00 0.  1.
         21   -1    0    0  501  503 -0.00000000000E+00 -0.00000000000E+00 -0.29767480403E+03  0.29767480403E+03  0.00000000000E+00 0.  1.
          6    2    1    2  501    0 -0.13671535699E+03 -0.32562986596E+02 -0.17967948768E+03  0.28572337468E+03  0.17205142143E+03 0.  0.
         24    2    3    3    0    0 -0.38683779694E+02  0.41075019880E+02 -0.10011478100E+03  0.13948596944E+03  0.79055513564E+02 0.  0.
         -6    2    1    2    0  502  0.13671535699E+03  0.32562986596E+02  0.12768956784E+03  0.25763631353E+03  0.17412756066E+03 0.  0.
        -24    2    5    5    0    0  0.19212200514E+02 -0.14214224265E+02  0.96876703243E+02  0.12738032763E+03  0.79180170601E+02 0.  0.
          5    1    3    3  501    0 -0.98031577297E+02 -0.73638006477E+02 -0.79564706672E+02  0.14623740525E+03  0.47000000000E+01 0. -1.
        -13    1    4    4    0    0 -0.52910424920E+02  0.16448653061E+02 -0.28241886752E+02  0.62190637720E+02  0.00000000000E+00 0.  1.
         14    1    4    4    0    0  0.14226645226E+02  0.24626366820E+02 -0.71872894253E+02  0.77295331718E+02  0.00000000000E+00 0. -1.
         -5    1    5    5    0  502  0.11750315648E+03  0.46777210861E+02  0.30812864598E+02  0.13025598590E+03  0.47000000000E+01 0.  1.
         11    1    6    6    0    0  0.46584039231E+01 -0.66537140731E+01 -0.13519908970E+02  0.15772145594E+02  0.00000000000E+00 0. -1.
        -12    1    6    6    0    0  0.14553796590E+02 -0.75605101919E+01  0.11039661221E+03  0.11160818204E+03  0.00000000000E+00 0.  1.
</event>
<event>
12    1  0.8526130E-002  0.1858754E+03  0.7818608E-02  0.1162733E+00
         21   -1    0    0  501  502  0.00000000000E+00  0.00000000000E+00  0.58225095290E+03  0.58225095290E+03  0.00000000000E+00 0. -1.
         21   -1    0    0  502  503 -0.00000000000E+00 -0.00000000000E+00 -0.82868691480E+02  0.82868691480E+02  0.00000000000E+00 0. -1.
         -6    2    1    2    0  503  0.17916251922E+02  0.67064387686E+02  0.68922681625E+02  0.19624321791E+03  0.17012477877E+03 0.  0.
        -24    2    3    3    0    0 -0.31738617566E+02  0.81720931553E+00  0.76715943097E+02  0.11295384505E+03  0.76584773361E+02 0.  0.
          6    2    1    2  501    0 -0.17916251922E+02 -0.67064387686E+02  0.43045957979E+03  0.46887642647E+03  0.17242688099E+03 0.  0.
         24    2    5    5    0    0 -0.37725713149E+02  0.23181702701E+02  0.24981790301E+03  0.26592254753E+03  0.79656737642E+02 0.  0.
          5    1    5    5  501    0  0.19809461227E+02 -0.90246090387E+02  0.18064167679E+03  0.20295387894E+03  0.47000000000E+01 0. -1.
        -11    1    6    6    0    0 -0.18630588637E+02  0.20129765179E+02  0.16928430711E+02  0.32231631132E+02  0.00000000000E+00 0.  1.
         12    1    6    6    0    0 -0.19095124512E+02  0.30519375220E+01  0.23288947229E+03  0.23369091640E+03  0.00000000000E+00 0. -1.
         -5    1    3    3    0  503  0.49654869488E+02  0.66247178370E+02 -0.77932614717E+01  0.83289372853E+02  0.47000000000E+01 0.  1.
         13    1    4    4    0    0 -0.55433891509E+02 -0.35279596441E+01  0.37810175255E+02  0.67193542694E+02  0.00000000000E+00 0. -1.
        -14    1    4    4    0    0  0.23695273943E+02  0.43451689597E+01  0.38905767842E+02  0.45760302358E+02  0.00000000000E+00 0.  1.
</event>
<event>
12    1  0.8526130E-002  0.1852999E+03  0.7818608E-02  0.1163196E+00
         21   -1    0    0  501  502  0.00000000000E+00  0.00000000000E+00  0.20079550600E+03  0.20079550600E+03  0.00000000000E+00 0. -1.
         21   -1    0    0  502  503 -0.00000000000E+00 -0.00000000000E+00 -0.56125027938E+03  0.56125027938E+03  0.00000000000E+00 0. -1.
         -6    2    1    2    0  503  0.29363726086E+02 -0.60281489809E+02 -0.49889391611E+03  0.53219469777E+03  0.17274249732E+03 0.  0.
        -24    2    3    3    0    0 -0.21955044788E+02 -0.84979863234E+02 -0.40796978994E+03  0.42480329861E+03  0.79466293849E+02 0.  0.
          6    2    1    2  501    0 -0.29363726086E+02  0.60281489809E+02  0.13843914273E+03  0.22985108761E+03  0.17079238804E+03 0.  0.
         24    2    5    5    0    0  0.23693336395E+02  0.70876948701E+02  0.35733655708E+02  0.11367095724E+03  0.77841353553E+02 0.  0.
          5    1    5    5  501    0 -0.53057062482E+02 -0.10595458892E+02  0.10270548702E+03  0.11618013037E+03  0.47000000000E+01 0. -1.
        -11    1    6    6    0    0 -0.12200636117E+01  0.50542571170E+02 -0.15763260571E+02  0.52957723134E+02  0.00000000000E+00 0.  1.
         12    1    6    6    0    0  0.24913400007E+02  0.20334377531E+02  0.51496916279E+02  0.60713234107E+02  0.00000000000E+00 0. -1.
         -5    1    3    3    0  503  0.51318770874E+02  0.24698373425E+02 -0.90924126165E+02  0.10739139916E+03  0.47000000000E+01 0.  1.
         13    1    4    4    0    0 -0.44761611020E+02 -0.23482439462E+02 -0.21955079640E+03  0.22529442733E+03  0.00000000000E+00 0. -1.
        -14    1    4    4    0    0  0.22806566232E+02 -0.61497423772E+02 -0.18841899354E+03  0.19950887129E+03  0.00000000000E+00 0.  1.
</event>
<event>
12    1  0.8526130E-002  0.2097045E+03  0.7818608E-02  0.1141971E+00
         21   -1    0    0  501  502  0.00000000000E+00  0.00000000000E+00  0.42632062729E+03  0.42632062729E+03  0.00000000000E+00 0. -1.
         21   -1    0    0  502  503 -0.00000000000E+00 -0.00000000000E+00 -0.16915786586E+03  0.16915786586E+03  0.00000000000E+00 0.  1.
         -6    2    1    2    0  503 -0.11590172409E+03 -0.29491804174E+02 -0.57838895982E+02  0.21753465276E+03  0.17225855887E+03 0.  0.
        -24    2    3    3    0    0 -0.94535569176E+02 -0.72695186696E+02 -0.14888599298E+01  0.14323484522E+03  0.79324902606E+02 0.  0.
          6    2    1    2  501    0  0.11590172409E+03  0.29491804174E+02  0.31500165741E+03  0.37794384039E+03  0.17120901308E+03 0.  0.
         24    2    5    5    0    0  0.11347556776E+03 -0.31166172701E+02  0.25759672943E+03  0.29426175062E+03  0.79911626582E+02 0.  0.
          5    1    5    5  501    0  0.24261563296E+01  0.60657976874E+02  0.57404927973E+02  0.83682089772E+02  0.47000000000E+01 0. -1.
        -11    1    6    6    0    0  0.13885067978E+02 -0.30008698913E+02  0.25689520910E+02  0.41872050437E+02  0.00000000000E+00 0.  1.
         12    1    6    6    0    0  0.99590499779E+02 -0.11574737873E+01  0.23190720853E+03  0.25238970018E+03  0.00000000000E+00 0. -1.
         -5    1    3    3    0  503 -0.21366154911E+02  0.43203382523E+02 -0.56350036052E+02  0.74299807538E+02  0.47000000000E+01 0.  1.
         11    1    4    4    0    0 -0.93684881478E+02 -0.41735427444E+02 -0.23524814337E+02  0.10522414082E+03  0.00000000000E+00 0. -1.
        -12    1    4    4    0    0 -0.85068769774E+00 -0.30959759252E+02  0.22035954407E+02  0.38010704402E+02  0.00000000000E+00 0.  1.
</event>
<event>
12    1  0.8526130E-002  0.2052312E+03  0.7818608E-02  0.1145553E+00
         21   -1    0    0  501  502  0.00000000000E+00  0.00000000000E+00  0.13222390643E+04  0.13222390643E+04  0.00000000000E+00 0. -1.
         21   -1    0    0  502  503 -0.00000000000E+00 -0.00000000000E+00 -0.31752560306E+02  0.31752560306E+02  0.00000000000E+00 0. -1.
         -6    2    1    2    0  503  0.10769103205E+03 -0.37616150895E+02  0.63198562086E+03  0.66447397824E+03  0.17060923068E+03 0.  0.
        -24    2    3    3    0    0  0.96214474099E+02  0.32152665844E+02  0.30534947526E+03  0.33023953839E+03  0.74356114245E+02 0.  0.
          6    2    1    2  501    0 -0.10769103205E+03  0.37616150895E+02  0.65850088313E+03  0.68951764636E+03  0.16970220496E+03 0.  0.
         24    2    5    5    0    0 -0.18175045849E+02  0.28339161768E+02  0.15358287592E+03  0.17662052381E+03  0.80459115547E+02 0.  0.
          5    1    5    5  501    0 -0.89515986203E+02  0.92769891268E+01  0.50491800721E+03  0.51289712255E+03  0.47000000000E+01 0. -1.
        -11    1    6    6    0    0  0.14816682992E+02  0.26980325222E+02  0.13554314527E+03  0.13899430303E+03  0.00000000000E+00 0.  1.
         12    1    6    6    0    0 -0.32991728841E+02  0.13588365462E+01  0.18039730646E+02  0.37626220783E+02  0.00000000000E+00 0. -1.
         -5    1    3    3    0  503  0.11476557953E+02 -0.69768816739E+02  0.32663614560E+03  0.33423443986E+03  0.47000000000E+01 0.  1.
         11    1    4    4    0    0  0.37114616836E+02  0.62611963497E+01  0.22026054664E+03  0.22345336374E+03  0.00000000000E+00 0. -1.
        -12    1    4    4    0    0  0.59099857263E+02  0.25891469494E+02  0.85088928620E+02  0.10678617464E+03  0.00000000000E+00 0.  1.
</event>
<event>
12    1  0.8526130E-002  0.2530297E+03  0.7818608E-02  0.1111636E+00
         21   -1    0    0  503  502  0.00000000000E+00  0.00000000000E+00  0.23564052675E+03  0.23564052675E+03  0.00000000000E+00 0.  1.
         21   -1    0    0  501  503 -0.00000000000E+00 -0.00000000000E+00 -0.45340367975E+03  0.45340367975E+03  0.00000000000E+00 0. -1.
          6    2    1    2  501    0  0.25254784210E+02 -0.18223696969E+03 -0.32812234035E+03  0.41435284571E+03  0.17371209878E+03 0.  0.
         24    2    3    3    0    0 -0.39270700682E+01 -0.12492647308E+02 -0.11363081947E+03  0.13922847723E+03  0.79379579386E+02 0.  0.
         -6    2    1    2    0  502 -0.25254784210E+02  0.18223696969E+03  0.11035918734E+03  0.27469136079E+03  0.17154613437E+03 0.  0.
        -24    2    5    5    0    0 -0.73052263367E+02  0.12999481736E+03  0.11368758650E+03  0.20364905132E+03  0.79453024223E+02 0.  0.
          5    1    3    3  501    0  0.29181854278E+02 -0.16974432238E+03 -0.21449152088E+03  0.27512436847E+03  0.47000000000E+01 0. -1.
        -11    1    4    4    0    0  0.24868437096E+02  0.19930725889E+02 -0.24813555089E+02  0.40390413642E+02  0.00000000000E+00 0.  1.
         12    1    4    4    0    0 -0.28795507164E+02 -0.32423373198E+02 -0.88817264381E+02  0.98838063591E+02  0.00000000000E+00 0. -1.
         -5    1    5    5    0  502  0.47797479157E+02  0.52242152329E+02 -0.33283991567E+01  0.71042309469E+02  0.47000000000E+01 0.  1.
         13    1    6    6    0    0 -0.70964372129E+02  0.76005191206E+02  0.38116784724E+02  0.11075026176E+03  0.00000000000E+00 0. -1.
        -14    1    6    6    0    0 -0.20878912380E+01  0.53989626153E+02  0.75570801775E+02  0.92898789566E+02  0.00000000000E+00 0.  1.
</event>
<event>
12    1  0.8526130E-002  0.3101678E+03  0.7818608E-02  0.1080348E+00
         21   -1    0    0  501  502  0.00000000000E+00  0.00000000000E+00  0.10648642119E+04  0.10648642119E+04  0.00000000000E+00 0.  1.
         21   -1    0    0  502  503 -0.00000000000E+00 -0.00000000000E+00 -0.90144570525E+02  0.90144570525E+02  0.00000000000E+00 0.  1.
         -6    2    1    2    0  503  0.12592368766E+03 -0.22476423696E+03  0.48541117655E+03  0.57567568588E+03  0.17147229415E+03 0.  0.
        -24    2    3    3    0    0  0.10646553252E+02 -0.35037409286E+02  0.14916363981E+03  0.17272459353E+03  0.79012813042E+02 0.  0.
          6    2    1    2  501    0 -0.12592368766E+03  0.22476423696E+03  0.48930846485E+03  0.57933309658E+03  0.17270878868E+03 0.  0.
         24    2    5    5    0    0 -0.15150744070E+03  0.15150431277E+03  0.32307009113E+03  0.39581516337E+03  0.79920575536E+02 0.  0.
          5    1    5    5  501    0  0.25583753047E+02  0.73259924186E+02  0.16623837372E+03  0.18351793321E+03  0.47000000000E+01 0. -1.
        -13    1    6    6    0    0 -0.43555762616E+02  0.52133305822E+02  0.17335152848E+03  0.18618737460E+03  0.00000000000E+00 0.  1.
         14    1    6    6    0    0 -0.10795167809E+03  0.99371006948E+02  0.14971856265E+03  0.20962778877E+03  0.00000000000E+00 0. -1.
         -5    1    3    3    0  503  0.11527713440E+03 -0.18972682767E+03  0.33624753675E+03  0.40295109235E+03  0.47000000000E+01 0.  1.
         13    1    4    4    0    0  0.16050186528E+02  0.17722918179E+02  0.90656435549E+02  0.93756597756E+02  0.00000000000E+00 0. -1.
        -14    1    4    4    0    0 -0.54036332756E+01 -0.52760327466E+02  0.58507204258E+02  0.78967995777E+02  0.00000000000E+00 0.  1.
</event>
<event>
12    1  0.8526130E-002  0.2263242E+03  0.7818608E-02  0.1129359E+00
         21   -1    0    0  503  502  0.00000000000E+00  0.00000000000E+00  0.86858049897E+02  0.86858049897E+02  0.00000000000E+00 0.  1.
         21   -1    0    0  501  503 -0.00000000000E+00 -0.00000000000E+00 -0.60073421097E+03  0.60073421097E+03  0.00000000000E+00 0.  1.
          6    2    1    2  501    0  0.14607078804E+03  0.17938517789E+02 -0.20697841452E+03  0.30626712395E+03  0.17117541177E+03 0.  0.
         24    2    3    3    0    0  0.79254453536E+02 -0.42796780662E+02 -0.16914710904E+03  0.20825438647E+03  0.81524917328E+02 0.  0.
         -6    2    1    2    0  502 -0.14607078804E+03 -0.17938517789E+02 -0.30689774655E+03  0.38132513692E+03  0.17194233821E+03 0.  0.
        -24    2    5    5    0    0 -0.55941275513E+02 -0.72008037446E+02 -0.16037872274E+03  0.20094565826E+03  0.79644454302E+02 0.  0.
          5    1    3    3  501    0  0.66816334504E+02  0.60735298451E+02 -0.37831305481E+02  0.98012737482E+02  0.47000000000E+01 0. -1.
        -13    1    4    4    0    0  0.28115590138E+02  0.23372673918E+02 -0.66152352190E+02  0.75583741606E+02  0.00000000000E+00 0.  1.
         14    1    4    4    0    0  0.51138863397E+02 -0.66169454579E+02 -0.10299475685E+03  0.13267064486E+03  0.00000000000E+00 0. -1.
         -5    1    5    5    0  502 -0.90129512526E+02  0.54069519657E+02 -0.14651902381E+03  0.18037947866E+03  0.47000000000E+01 0.  1.
         11    1    6    6    0    0  0.15474623704E+02  0.28215527948E+01 -0.10784510874E+02  0.19071728126E+02  0.00000000000E+00 0. -1.
        -12    1    6    6    0    0 -0.71415899217E+02 -0.74829590241E+02 -0.14959421187E+03  0.18187393013E+03  0.00000000000E+00 0.  1.
</event>
<event>
12    1  0.8526130E-002  0.1773574E+03  0.7818608E-02  0.1170474E+00
         21   -1    0    0  503  502  0.00000000000E+00  0.00000000000E+00  0.33883944687E+03  0.33883944687E+03  0.00000000000E+00 0. -1.
         21   -1    0    0  501  503 -0.00000000000E+00 -0.00000000000E+00 -0.22078573742E+03  0.22078573742E+03  0.00000000000E+00 0.  1.
          6    2    1    2  501    0 -0.65146811323E+01 -0.40968796445E+02 -0.15411700675E+03  0.23496321656E+03  0.17243775113E+03 0.  0.
         24    2    3    3    0    0 -0.54040459924E+02 -0.20479080714E+02 -0.15313441891E+03  0.18298645657E+03  0.81817656866E+02 0.  0.
         -6    2    1    2    0  502  0.65146811323E+01  0.40968796445E+02  0.27217071620E+03  0.32466196773E+03  0.17206862347E+03 0.  0.
        -24    2    5    5    0    0  0.22559541943E+02  0.90613561868E+02  0.21061576530E+03  0.24383411194E+03  0.79851881781E+02 0.  0.
          5    1    3    3  501    0  0.47525778791E+02 -0.20489715731E+02 -0.98258783763E+00  0.51976759993E+02  0.47000000000E+01 0. -1.
        -13    1    4    4    0    0  0.20860540389E+01  0.12321042338E+02 -0.94869751519E+02  0.95689233768E+02  0.00000000000E+00 0.  1.
         14    1    4    4    0    0 -0.56126513963E+02 -0.32800123052E+02 -0.58264667395E+02  0.87297222799E+02  0.00000000000E+00 0. -1.
         -5    1    5    5    0  502 -0.16044860810E+02 -0.49644765422E+02  0.61554950898E+02  0.80827855795E+02  0.47000000000E+01 0.  1.
         13    1    6    6    0    0 -0.46554860380E+00  0.25463457221E+02  0.14928815235E+03  0.15144489698E+03  0.00000000000E+00 0. -1.
        -14    1    6    6    0    0  0.23025090546E+02  0.65150104646E+02  0.61327612949E+02  0.92389214956E+02  0.00000000000E+00 0.  1.
</event>
<event>
12    1  0.8526130E-002  0.2134869E+03  0.7818608E-02  0.1139370E+00
         21   -1    0    0  501  502  0.00000000000E+00  0.00000000000E+00  0.67693806312E+03  0.67693806312E+03  0.00000000000E+00 0.  1.
         21   -1    0    0  502  503 -0.00000000000E+00 -0.00000000000E+00 -0.81839244224E+02  0.81839244224E+02  0.00000000000E+00 0. -1.
         -6    2    1    2    0  503 -0.11456663374E+03 -0.50457210891E+02  0.13155239473E+03  0.24843240168E+03  0.16953224457E+03 0.  0.
        -24    2    3    3    0    0 -0.64819932635E+02 -0.40515384864E+02  0.19615227057E+01  0.10918636659E+03  0.77940329744E+02 0.  0.
          6    2    1    2  501    0  0.11456663374E+03  0.50457210891E+02  0.46354642417E+03  0.51034490567E+03  0.17293117615E+03 0.  0.
         24    2    5    5    0    0  0.15831116828E+02  0.75266996130E+02  0.26649115756E+03  0.28849564189E+03  0.79350194471E+02 0.  0.
          5    1    5    5  501    0  0.98735516910E+02 -0.24809785240E+02  0.19705526661E+03  0.22184926378E+03  0.47000000000E+01 0. -1.
        -13    1    6    6    0    0 -0.96778932356E+01  0.42441166864E+02  0.22706876586E+03  0.23120367361E+03  0.00000000000E+00 0.  1.
         14    1    6    6    0    0  0.25509010064E+02  0.32825829266E+02  0.39422391704E+02  0.57291968278E+02  0.00000000000E+00 0. -1.
         -5    1    3    3    0  503 -0.49746701104E+02 -0.99418260263E+01  0.12959087202E+03  0.13924603509E+03  0.47000000000E+01 0.  1.
         11    1    4    4    0    0 -0.36106959799E+02  0.19626352888E+02  0.93114783889E+01  0.42137986466E+02  0.00000000000E+00 0. -1.
        -12    1    4    4    0    0 -0.28712972836E+02 -0.60141737752E+02 -0.73499556832E+01  0.67048380125E+02  0.00000000000E+00 0.  1.
</event>
<event>
12    1  0.8526130E-002  0.2023666E+03  0.7818608E-02  0.1147850E+00
         21   -1    0    0  503  502  0.00000000000E+00  0.00000000000E+00  0.68697914903E+02  0.68697914903E+02  0.00000000000E+00 0. -1.
         21   -1    0    0  501  503 -0.00000000000E+00 -0.00000000000E+00 -0.10267455828E+04  0.10267455828E+04  0.00000000000E+00 0. -1.
          6    2    1    2  501    0 -0.93462167081E+02  0.50651058829E+02 -0.83458040552E+03  0.85876462689E+03  0.17219618082E+03 0.  0.
         24    2    3    3    0    0 -0.63267890408E+02  0.90828193010E+02 -0.73061010182E+03  0.74318863239E+03  0.79282001894E+02 0.  0.
         -6    2    1    2    0  502  0.93462167081E+02 -0.50651058829E+02 -0.12346726237E+03  0.23667887080E+03  0.17167415814E+03 0.  0.
        -24    2    5    5    0    0 -0.25096541365E+02 -0.55009243012E+02 -0.46248163626E+02  0.95045399023E+02  0.56911176682E+02 0.  0.
          5    1    3    3  501    0 -0.30194276672E+02 -0.40177134181E+02 -0.10397030370E+03  0.11557599451E+03  0.47000000000E+01 0. -1.
        -13    1    4    4    0    0 -0.17328029802E+02  0.77005064414E+02 -0.57382005789E+03  0.57922318617E+03  0.00000000000E+00 0.  1.
         14    1    4    4    0    0 -0.45939860606E+02  0.13823128596E+02 -0.15679004393E+03  0.16396544622E+03  0.00000000000E+00 0. -1.
         -5    1    5    5    0  502  0.11855870845E+03  0.43581841833E+01 -0.77219098742E+02  0.14163347178E+03  0.47000000000E+01 0.  1.
         11    1    6    6    0    0 -0.51429990746E+01 -0.42763951207E+02 -0.55169354748E+02  0.69991882855E+02  0.00000000000E+00 0. -1.
        -12    1    6    6    0    0 -0.19953542291E+02 -0.12245291805E+02  0.89211911214E+01  0.25053516168E+02  0.00000000000E+00 0.  1.
</event>
<event>
12    1  0.8526130E-002  0.1817716E+03  0.7818608E-02  0.1166630E+00
         21   -1    0    0  503  502  0.00000000000E+00  0.00000000000E+00  0.36730588482E+03  0.36730588482E+03  0.00000000000E+00 0.  1.
         21   -1    0    0  501  503 -0.00000000000E+00 -0.00000000000E+00 -0.20557867745E+03  0.20557867745E+03  0.00000000000E+00 0.  1.
          6    2    1    2  501    0  0.43110188556E+02  0.20403933643E+02 -0.13474929667E+03  0.22627040861E+03  0.17540272516E+03 0.  0.
         24    2    3    3    0    0  0.49118834871E+02  0.64262180161E+02 -0.15060812639E+03  0.17901321764E+03  0.53109665961E+02 0.  0.
         -6    2    1    2    0  502 -0.43110188556E+02 -0.20403933643E+02  0.29647650405E+03  0.34661415366E+03  0.17311338827E+03 0.  0.
        -24    2    5    5    0    0  0.53379481867E+01  0.47203588463E+02  0.10855519639E+03  0.14105514298E+03  0.76522220583E+02 0.  0.
          5    1    3    3  501    0 -0.60086463146E+01 -0.43858246518E+02  0.15858829716E+02  0.47257190967E+02  0.47000000000E+01 0. -1.
        -13    1    4    4    0    0  0.24953272874E+01  0.16878892777E+01 -0.57284892846E+02  0.57364053003E+02  0.00000000000E+00 0.  1.
         14    1    4    4    0    0  0.46623507584E+02  0.62574290883E+02 -0.93323233543E+02  0.12164916464E+03  0.00000000000E+00 0. -1.
         -5    1    5    5    0  502 -0.48448136743E+02 -0.67607522106E+02  0.18792130765E+03  0.20555901068E+03  0.47000000000E+01 0.  1.
         11    1    6    6    0    0 -0.18761252441E+02  0.42587043056E+02  0.10674863649E+03  0.11645132984E+03  0.00000000000E+00 0. -1.
        -12    1    6    6    0    0  0.24099200627E+02  0.46165454069E+01  0.18065599034E+01  0.24603813141E+02  0.00000000000E+00 0.  1.
</event>
<event>
12    1  0.8526130E-002  0.2340294E+03  0.7818608E-02  0.1124870E+00
         21   -1    0    0  501  502  0.00000000000E+00  0.00000000000E+00  0.39474667799E+03  0.39474667799E+03  0.00000000000E+00 0. -1.
         21   -1    0    0  502  503 -0.00000000000E+00 -0.00000000000E+00 -0.17173792211E+03  0.17173792211E+03  0.00000000000E+00 0. -1.
         -6    2    1    2    0  503 -0.21548133524E+02 -0.14743907531E+03  0.24317528440E+03  0.33749661852E+03  0.18046369601E+03 0.  0.
        -24    2    3    3    0    0 -0.48278055113E+02 -0.82566296408E+02  0.23602581596E+03  0.26681302035E+03  0.79580387799E+02 0.  0.
          6    2    1    2  501    0  0.21548133524E+02  0.14743907531E+03 -0.20166528519E+02  0.22898798158E+03  0.17270264575E+03 0.  0.
         24    2    5    5    0    0 -0.53499910236E+02  0.72520142722E+02  0.28293782166E+01  0.12037878741E+03  0.79759861970E+02 0.  0.
          5    1    5    5  501    0  0.75048043760E+02  0.74918932588E+02 -0.22995906736E+02  0.10860919417E+03  0.47000000000E+01 0. -1.
        -13    1    6    6    0    0 -0.18361999499E+02 -0.79137061384E+01  0.22837113585E+02  0.30353311637E+02  0.00000000000E+00 0.  1.
         14    1    6    6    0    0 -0.35137910737E+02  0.80433848860E+02 -0.20007735369E+02  0.90025475772E+02  0.00000000000E+00 0. -1.
         -5    1    3    3    0  503  0.26729921588E+02 -0.64872778903E+02  0.71494684477E+01  0.70683598166E+02  0.47000000000E+01 0.  1.
         13    1    4    4    0    0 -0.18359201253E+02 -0.26437736855E+02  0.17744895367E+03  0.18034451852E+03  0.00000000000E+00 0. -1.
        -14    1    4    4    0    0 -0.29918853860E+02 -0.56128559552E+02  0.58576862284E+02  0.86468501830E+02  0.00000000000E+00 0.  1.
</event>
<event>
12    1  0.8526130E-002  0.2294775E+03  0.7818608E-02  0.1127120E+00
         21   -1    0    0  503  502  0.00000000000E+00  0.00000000000E+00  0.14584941805E+03  0.14584941805E+03  0.00000000000E+00 0.  1.
         21   -1    0    0  501  503 -0.00000000000E+00 -0.00000000000E+00 -0.36197003686E+03  0.36197003686E+03  0.00000000000E+00 0.  1.
          6    2    1    2  501    0  0.12745496643E+03 -0.79160695006E+02 -0.89753308859E+02  0.24640527498E+03  0.17363386475E+03 0.  0.
         24    2    3    3    0    0  0.68065527482E+02 -0.91820916488E+02 -0.11486116403E+03  0.18052750136E+03  0.79580745220E+02 0.  0.
         -6    2    1    2    0  502 -0.12745496643E+03  0.79160695006E+02 -0.12636730996E+03  0.26141417992E+03  0.17279320686E+03 0.  0.
        -24    2    5    5    0    0 -0.22316257081E+02 -0.15311893850E+02 -0.69813557773E+02  0.10909991554E+03  0.79349790793E+02 0.  0.
          5    1    3    3  501    0  0.59389438945E+02  0.12660221482E+02  0.25107855170E+02  0.65877773623E+02  0.47000000000E+01 0. -1.
        -11    1    4    4    0    0  0.64308518534E+02 -0.56919909690E+02 -0.11725691576E+03  0.14534320063E+03  0.00000000000E+00 0.  1.
         12    1    4    4    0    0  0.37570089480E+01 -0.34901006798E+02  0.23957517323E+01  0.35184300733E+02  0.00000000000E+00 0. -1.
         -5    1    5    5    0  502 -0.10513870935E+03  0.94472588855E+02 -0.56553752183E+02  0.15231426438E+03  0.47000000000E+01 0.  1.
         11    1    6    6    0    0 -0.23229803418E+01 -0.39657036691E+01  0.17870716676E+02  0.18452250751E+02  0.00000000000E+00 0. -1.
        -12    1    6    6    0    0 -0.19993276739E+02 -0.11346190180E+02 -0.87684274449E+02  0.90647664791E+02  0.00000000000E+00 0.  1.
</event>
<event>
12    1  0.8526130E-002  0.2039989E+03  0.7818608E-02  0.1146602E+00
         21   -1    0    0  501  502  0.00000000000E+00  0.00000000000E+00  0.11282727414E+03  0.11282727414E+03  0.00000000000E+00 0.  1.
         21   -1    0    0  502  503 -0.00000000000E+00 -0.00000000000E+00 -0.46985832159E+03  0.46985832159E+03  0.00000000000E+00 0. -1.
         -6    2    1    2    0  503  0.10677780815E+03 -0.29311678464E+02 -0.42621072935E+02  0.20840372749E+03  0.17133266755E+03 0.  0.
        -24    2    3    3    0    0  0.12748749817E+03  0.17730162033E+02 -0.37572542146E+02  0.15654426663E+03  0.80789793009E+02 0.  0.
          6    2    1    2  501    0 -0.10677780815E+03  0.29311678464E+02 -0.31440997451E+03  0.37428186824E+03  0.17021342489E+03 0.  0.
         24    2    5    5    0    0 -0.18315553854E+02  0.30323768760E+02 -0.25058396353E+03  0.26509192164E+03  0.78907627464E+02 0.  0.
          5    1    5    5  501    0 -0.88462254292E+02 -0.10120902956E+01 -0.63826010977E+02  0.10918994660E+03  0.47000000000E+01 0. -1.
        -13    1    6    6    0    0 -0.23139485452E+01 -0.18005479354E+01  0.56453947287E+01  0.63613530306E+01  0.00000000000E+00 0.  1.
         14    1    6    6    0    0 -0.16001605309E+02  0.32124316695E+02 -0.25622935826E+03  0.25873056861E+03  0.00000000000E+00 0. -1.
         -5    1    3    3    0  503 -0.20709690026E+02 -0.47041840497E+02 -0.50485307886E+01  0.51859460867E+02  0.47000000000E+01 0.  1.
         11    1    4    4    0    0  0.41069085518E+02  0.25107612570E+02 -0.49440782402E+02  0.69003282232E+02  0.00000000000E+00 0. -1.
        -12    1    4    4    0    0  0.86418412654E+02 -0.73774505366E+01  0.11868240256E+02  0.87540984395E+02  0.00000000000E+00 0.  1.
</event>
<event>
12    1  0.8526130E-002  0.1775978E+03  0.7818608E-02  0.1170363E+00
         21   -1    0    0  501  502  0.00000000000E+00  0.00000000000E+00  0.36604452683E+03  0.36604452683E+03  0.00000000000E+00 0.  1.
         21   -1    0    0  502  503 -0.00000000000E+00 -0.00000000000E+00 -0.10245377891E+03  0.10245377891E+03  0.00000000000E+00 0.  1.
         -6    2    1    2    0  503 -0.43483591792E+02  0.89542828258E+01  0.36924784395E+02  0.18054268265E+03  0.17105910855E+03 0.  0.
        -24    2    3    3    0    0 -0.36545439601E+02  0.47121952833E+02  0.78748026788E+02  0.12330473550E+03  0.73802157683E+02 0.  0.
          6    2    1    2  501    0  0.43483591792E+02 -0.89542828258E+01  0.22666596353E+03  0.28795562309E+03  0.17195923910E+03 0.  0.
         24    2    5    5    0    0  0.35576681648E+02 -0.69979862400E+02  0.16961896203E+03  0.20391342553E+03  0.81530432440E+02 0.  0.
          5    1    5    5  501    0  0.79069101440E+01  0.61025579574E+02  0.57047001501E+02  0.84042197560E+02  0.47000000000E+01 0. -1.
        -11    1    6    6    0    0  0.36794230861E+02  0.26482643074E+01  0.34504934133E+02  0.50511574991E+02  0.00000000000E+00 0.  1.
         12    1    6    6    0    0 -0.12175492137E+01 -0.72628126708E+02  0.13511402790E+03  0.15340185054E+03  0.00000000000E+00 0. -1.
         -5    1    3    3    0  503 -0.69381521910E+01 -0.38167670007E+02 -0.41823242393E+02  0.57237947149E+02  0.47000000000E+01 0.  1.
         13    1    4    4    0    0  0.19302828612E+02  0.61525064112E+01  0.37678745337E+02  0.42780139992E+02  0.00000000000E+00 0. -1.
        -14    1    4    4    0    0 -0.55848268212E+02  0.40969446422E+02  0.41069281451E+02  0.80524595506E+02  0.00000000000E+00 0.  1.
</event>
<event>
12    1  0.8526130E-002  0.6064769E+03  0.7818608E-02  0.9892455E-01
         21   -1    0    0  501  502  0.00000000000E+00  0.00000000000E+00  0.85474055437E+03  0.85474055437E+03  0.00000000000E+00 0. -1.
         21   -1    0    0  502  503 -0.00000000000E+00 -0.00000000000E+00 -0.49343156416E+03  0.49343156416E+03  0.00000000000E+00 0.  1.
         -6    2    1    2    0  503 -0.43962115561E+03  0.37948552831E+03 -0.61562842427E+02  0.60882454397E+03  0.17205032726E+03 0.  0.
        -24    2    3    3    0    0 -0.39637725015E+03  0.37151313132E+03 -0.22567049100E+02  0.54986390989E+03  0.81878669489E+02 0.  0.
          6    2    1    2  501    0  0.43962115561E+03 -0.37948552831E+03  0.42287183263E+03  0.73934757456E+03  0.17475188843E+03 0.  0.
         24    2    5    5    0    0  0.32379445082E+03 -0.33659154656E+03  0.38387942107E+03  0.60973963741E+03  0.79260960783E+02 0.  0.
          5    1    5    5  501    0  0.11582670479E+03 -0.42893981754E+02  0.38992411560E+02  0.12960793715E+03  0.47000000000E+01 0. -1.
        -13    1    6    6    0    0  0.61348535103E+02 -0.46852531992E+02  0.31292245786E+02  0.83294700670E+02  0.00000000000E+00 0.  1.
         14    1    6    6    0    0  0.26244591572E+03 -0.28973901457E+03  0.35258717529E+03  0.52644493674E+03  0.00000000000E+00 0. -1.
         -5    1    3    3    0  503 -0.43243905466E+02  0.79723969933E+01 -0.38995793328E+02  0.58960634080E+02  0.47000000000E+01 0.  1.
         13    1    4    4    0    0 -0.12964378345E+03  0.10379615283E+03  0.28538304761E+02  0.16850990110E+03  0.00000000000E+00 0. -1.
        -14    1    4    4    0    0 -0.26673346670E+03  0.26771697850E+03 -0.51105353860E+02  0.38135400879E+03  0.00000000000E+00 0.  1.
</event>
<event>
12    1  0.8526130E-002  0.2142197E+03  0.7818608E-02  0.1138603E+00
         21   -1    0    0  501  502  0.00000000000E+00  0.00000000000E+00  0.14838909055E+04  0.14838909055E+04  0.00000000000E+00 0. -1.
         21   -1    0    0  502  503 -0.00000000000E+00 -0.00000000000E+00 -0.30686332311E+02  0.30686332311E+02  0.00000000000E+00 0. -1.
         -6    2    1    2    0  503  0.25018822374E+02 -0.12443544801E+03  0.74341513303E+03  0.77366410396E+03  0.17256872124E+03 0.  0.
        -24    2    3    3    0    0  0.43432286491E+02 -0.84313817251E+02  0.69708713667E+03  0.70949889406E+03  0.91994680677E+02 0.  0.
          6    2    1    2  501    0 -0.25018822374E+02  0.12443544801E+03  0.70978944019E+03  0.74091313388E+03  0.17041449572E+03 0.  0.
         24    2    5    5    0    0 -0.40038573441E+02  0.73375146959E+02  0.65449357516E+03  0.66402054675E+03  0.74662219574E+02 0.  0.
          5    1    5    5  501    0  0.15019751067E+02  0.51060301048E+02  0.55295865034E+02  0.76892587127E+02  0.47000000000E+01 0. -1.
        -11    1    6    6    0    0 -0.38044788714E+02  0.50505717839E+01  0.14627708215E+03  0.15122797025E+03  0.00000000000E+00 0.  1.
         12    1    6    6    0    0 -0.19937847269E+01  0.68324575175E+02  0.50821649301E+03  0.51279257651E+03  0.00000000000E+00 0. -1.
         -5    1    3    3    0  503 -0.18413464117E+02 -0.40121630756E+02  0.46327996358E+02  0.64165209903E+02  0.47000000000E+01 0.  1.
         11    1    4    4    0    0 -0.29128197075E+02 -0.25868722483E+02  0.20706055185E+03  0.21069341423E+03  0.00000000000E+00 0. -1.
        -12    1    4    4    0    0  0.72560483566E+02 -0.58445094768E+02  0.49002658482E+03  0.49880547983E+03  0.00000000000E+00 0.  1.
</event>
<event>
12    1  0.8526130E-002  0.1928257E+03  0.7818608E-02  0.1157325E+00
         21   -1    0    0  503  502  0.00000000000E+00  0.00000000000E+00  0.66167946622E+03  0.66167946622E+03  0.00000000000E+00 0. -1.
         21   -1    0    0  501  503 -0.00000000000E+00 -0.00000000000E+00 -0.11318621037E+03  0.11318621037E+03  0.00000000000E+00 0. -1.
          6    2    1    2  501    0  0.48974431116E+02 -0.65508636192E+02 -0.27825075074E+01  0.19284580412E+03  0.17461925867E+03 0.  0.
         24    2    3    3    0    0  0.60332124622E+02 -0.12989698832E+02  0.52787647430E+02  0.11540312788E+03  0.81991759748E+02 0.  0.
         -6    2    1    2    0  502 -0.48974431116E+02  0.65508636192E+02  0.55127576336E+03  0.58201987247E+03  0.16778643675E+03 0.  0.
        -24    2    5    5    0    0  0.31489350919E+02  0.42787068035E+02  0.38339767687E+03  0.39441435068E+03  0.75806259543E+02 0.  0.
          5    1    3    3  501    0 -0.11357693506E+02 -0.52518937361E+02 -0.55570154938E+02  0.77442676239E+02  0.47000000000E+01 0. -1.
        -13    1    4    4    0    0  0.20777230206E+02 -0.45080122122E+02  0.37540067009E+02  0.62234775943E+02  0.00000000000E+00 0.  1.
         14    1    4    4    0    0  0.39554894416E+02  0.32090423290E+02  0.15247580421E+02  0.53168351939E+02  0.00000000000E+00 0. -1.
         -5    1    5    5    0  502 -0.80463782035E+02  0.22721568157E+02  0.16787808649E+03  0.18760552178E+03  0.47000000000E+01 0.  1.
         11    1    6    6    0    0  0.11449025493E+02  0.12295108835E+02  0.32579269942E+03  0.32622558588E+03  0.00000000000E+00 0. -1.
        -12    1    6    6    0    0  0.20040325426E+02  0.30491959201E+02  0.57604977447E+02  0.68188764806E+02  0.00000000000E+00 0.  1.
</event>
<event>
12    1  0.8526130E-002  0.2250649E+03  0.7818608E-02  0.1130228E+00
         21   -1    0    0  503  502  0.00000000000E+00  0.00000000000E+00  0.76740337045E+03  0.76740337045E+03  0.00000000000E+00 0. -1.
         21   -1    0    0  501  503 -0.00000000000E+00 -0.00000000000E+00 -0.21790837210E+03  0.21790837210E+03  0.00000000000E+00 0.  1.
          6    2    1    2  501    0 -0.28453790873E+02 -0.14219548405E+03 -0.13678980562E+03  0.26306452149E+03  0.17164590774E+03 0.  0.
         24    2    3    3    0    0 -0.12242495669E+02 -0.69596869921E+02 -0.15371502710E+03  0.18663208081E+03  0.78801148628E+02 0.  0.
         -6    2    1    2    0  502  0.28453790873E+02  0.14219548405E+03  0.68628480397E+03  0.72224722107E+03  0.17211926761E+03 0.  0.
        -24    2    5    5    0    0 -0.38240573464E+01  0.13826179126E+03  0.35799545021E+03  0.39231795105E+03  0.81373742739E+02 0.  0.
          5    1    3    3  501    0 -0.16211295204E+02 -0.72598614133E+02  0.16925221482E+02  0.76432440681E+02  0.47000000000E+01 0. -1.
        -13    1    4    4    0    0 -0.40051490481E+02 -0.62802507851E+02 -0.90315021272E+02  0.11706869757E+03  0.00000000000E+00 0.  1.
         14    1    4    4    0    0  0.27808994811E+02 -0.67943620691E+01 -0.63400005832E+02  0.69563383240E+02  0.00000000000E+00 0. -1.
         -5    1    5    5    0  502  0.32277848219E+02  0.39336927961E+01  0.32828935375E+03  0.32992927001E+03  0.47000000000E+01 0.  1.
         11    1    6    6    0    0  0.28277401335E+02  0.10408048254E+03  0.19650802309E+03  0.22416012449E+03  0.00000000000E+00 0. -1.
        -12    1    6    6    0    0 -0.32101458681E+02  0.34181308715E+02  0.16148742712E+03  0.16815782656E+03  0.00000000000E+00 0.  1.
</event>
<event>
12    1  0.8526130E-002  0.2067512E+03  0.7818608E-02  0.1144447E+00
         21   -1    0    0  501  502  0.00000000000E+00  0.00000000000E+00  0.38156018803E+03  0.38156018803E+03  0.00000000000E+00 0. -1.
         21   -1    0    0  502  503 -0.00000000000E+00 -0.00000000000E+00 -0.13576100241E+03  0.13576100241E+03  0.00000000000E+00 0. -1.
         -6    2    1    2    0  503  0.10513746915E+03 -0.44587103611E+02  0.12712968335E+02  0.20575218567E+03  0.17067643398E+03 0.  0.
        -24    2    3    3    0    0  0.83146183474E+02 -0.95237426180E+02  0.10909761412E+02  0.15030479279E+03  0.80554656414E+02 0.  0.
          6    2    1    2  501    0 -0.10513746915E+03  0.44587103611E+02  0.23308621729E+03  0.31156900477E+03  0.17234895652E+03 0.  0.
         24    2    5    5    0    0 -0.12748626405E+03  0.37051521122E+01  0.21256811489E+03  0.26044283615E+03  0.79867338496E+02 0.  0.
          5    1    5    5  501    0  0.22348794902E+02  0.40881951499E+02  0.20518102399E+02  0.51126168622E+02  0.47000000000E+01 0. -1.
        -13    1    6    6    0    0 -0.20097197466E+02 -0.31500340371E+02  0.57108553612E+02  0.68246286970E+02  0.00000000000E+00 0.  1.
         14    1    6    6    0    0 -0.10738906658E+03  0.35205492483E+02  0.15545956128E+03  0.19219654918E+03  0.00000000000E+00 0. -1.
         -5    1    3    3    0  503  0.21991285672E+02  0.50650322570E+02  0.18032069231E+01  0.55447392879E+02  0.47000000000E+01 0.  1.
         13    1    4    4    0    0  0.75661947865E+02 -0.41958733711E+02 -0.19240267756E+02  0.88630996794E+02  0.00000000000E+00 0. -1.
        -14    1    4    4    0    0  0.74842356097E+01 -0.53278692470E+02  0.30150029168E+02  0.61673795998E+02  0.00000000000E+00 0.  1.
</event>
<event>
12    1  0.8526130E-002  0.2025495E+03  0.7818608E-02  0.1149506E+00
         21   -1    0    0  503  502  0.00000000000E+00  0.00000000000E+00  0.45911803067E+02  0.45911803067E+02  0.00000000000E+00 0.  1.
         21   -1    0    0  501  503 -0.00000000000E+00 -0.00000000000E+00 -0.85809483713E+03  0.85809483713E+03  0.00000000000E+00 0. -1.
          6    2    1    2  501    0 -0.66803597956E+02 -0.62098819686E+02 -0.38629578502E+03  0.43617743040E+03  0.18085168832E+03 0.  0.
         24    2    3    3    0    0  0.36575229419E+02 -0.33011999224E+02 -0.20229294806E+03  0.22307567283E+03  0.80079831881E+02 0.  0.
         -6    2    1    2    0  502  0.66803597956E+02  0.62098819686E+02 -0.42588724905E+03  0.46782920979E+03  0.17077832569E+03 0.  0.
        -24    2    5    5    0    0  0.10651702474E+03  0.72149232997E+02 -0.32133813261E+03  0.35544248984E+03  0.80807052480E+02 0.  0.
          5    1    3    3  501    0 -0.10337882737E+03 -0.29086820462E+02 -0.18400283696E+03  0.21310175758E+03  0.47000000000E+01 0. -1.
        -11    1    4    4    0    0  0.38712983378E+02 -0.40615994383E+02 -0.66312463664E+02  0.86865971006E+02  0.00000000000E+00 0.  1.
         12    1    4    4    0    0 -0.21377539592E+01  0.76039951589E+01 -0.13598048439E+03  0.13620970182E+03  0.00000000000E+00 0. -1.
         -5    1    5    5    0  502 -0.39713426781E+02 -0.10050413311E+02 -0.10454911643E+03  0.11238671995E+03  0.47000000000E+01 0.  1.
         11    1    6    6    0    0  0.78809723887E+02  0.39344635986E+02 -0.28773872176E+03  0.30091949914E+03  0.00000000000E+00 0. -1.
        -12    1    6    6    0    0  0.27707300850E+02  0.32804597011E+02 -0.33599410851E+02  0.54522990701E+02  0.00000000000E+00 0.  1.
</event>
<event>
12    1  0.8526130E-002  0.2196525E+03  0.7818608E-02  0.1134159E+00
         21   -1    0    0  501  502  0.00000000000E+00  0.00000000000E+00  0.10279432408E+04  0.10279432408E+04  0.00000000000E+00 0.  1.
         21   -1    0    0  502  503 -0.00000000000E+00 -0.00000000000E+00 -0.20319120571E+03  0.20319120571E+03  0.00000000000E+00 0.  1.
         -6    2    1    2    0  503 -0.11629795410E+03 -0.68483695062E+02 -0.12748644521E+03  0.25389070884E+03  0.17318333553E+03 0.  0.
        -24    2    3    3    0    0 -0.29223663311E+02 -0.68464524323E+02 -0.12600556654E+03  0.16667708900E+03  0.79764877042E+02 0.  0.
          6    2    1    2  501    0  0.11629795410E+03  0.68483695062E+02  0.95223848028E+03  0.97724373765E+03  0.17329734225E+03 0.  0.
         24    2    5    5    0    0  0.70312531385E+02  0.25280444458E+02  0.85055103948E+03  0.85747894490E+03  0.79057683057E+02 0.  0.
          5    1    5    5  501    0  0.45985422715E+02  0.43203250605E+02  0.10168744080E+03  0.11976479275E+03  0.47000000000E+01 0. -1.
        -13    1    6    6    0    0  0.62200970326E+02  0.45054424863E+01  0.29690956705E+03  0.30338844858E+03  0.00000000000E+00 0.  1.
         14    1    6    6    0    0  0.81115610590E+01  0.20775001972E+02  0.55364147243E+03  0.55409049633E+03  0.00000000000E+00 0. -1.
         -5    1    3    3    0  503 -0.87074290789E+02 -0.19170739616E-01 -0.14808786612E+01  0.87213619840E+02  0.47000000000E+01 0.  1.
         13    1    4    4    0    0 -0.11639611450E+02 -0.74419587119E+02 -0.54953653110E+02  0.93239795644E+02  0.00000000000E+00 0. -1.
        -14    1    4    4    0    0 -0.17584051861E+02  0.59550627964E+01 -0.71051913434E+02  0.73437293356E+02  0.00000000000E+00 0.  1.
</event>
<event>
12    1  0.8526130E-002  0.1907925E+03  0.7818608E-02  0.1158070E+00
         21   -1    0    0  503  502  0.00000000000E+00  0.00000000000E+00  0.55963262480E+02  0.55963262480E+02  0.00000000000E+00 0.  1.
         21   -1    0    0  501  503 -0.00000000000E+00 -0.00000000000E+00 -0.72866824789E+03  0.72866824789E+03  0.00000000000E+00 0.  1.
          6    2    1    2  501    0 -0.79608050633E+02  0.12320373300E+02 -0.46993382679E+03  0.50718791395E+03  0.17295243614E+03 0.  0.
         24    2    3    3    0    0 -0.10496010585E+03 -0.15276466636E+02 -0.43858442206E+03  0.45810443959E+03  0.79078366463E+02 0.  0.
         -6    2    1    2    0  502  0.79608050633E+02 -0.12320373300E+02 -0.20277115862E+03  0.27744359642E+03  0.17137553240E+03 0.  0.
        -24    2    5    5    0    0  0.10579190740E+03 -0.40327629352E+02 -0.19264524727E+03  0.23751084261E+03  0.80504432788E+02 0.  0.
          5    1    3    3  501    0  0.25352055216E+02  0.27596839936E+02 -0.31349404729E+02  0.49083474357E+02  0.47000000000E+01 0. -1.
        -11    1    4    4    0    0 -0.66873936379E+02  0.27489698515E+02 -0.28969161630E+03  0.29857836399E+03  0.00000000000E+00 0.  1.
         12    1    4    4    0    0 -0.38086169471E+02 -0.42766165152E+02 -0.14889280577E+03  0.15952607560E+03  0.00000000000E+00 0. -1.
         -5    1    5    5    0  502 -0.26183856767E+02  0.28007256053E+02 -0.10125911347E+02  0.39932753817E+02  0.47000000000E+01 0.  1.
         11    1    6    6    0    0  0.37768544549E+02  0.20661078384E+02 -0.92054940387E+02  0.10162408753E+03  0.00000000000E+00 0. -1.
        -12    1    6    6    0    0  0.68023362851E+02 -0.60988707737E+02 -0.10059030688E+03  0.13588675507E+03  0.00000000000E+00 0.  1.
</event>
<event>
12    1  0.8526130E-002  0.1748915E+03  0.7818608E-02  0.1173424E+00
         21   -1    0    0  503  502  0.00000000000E+00  0.00000000000E+00  0.87667245606E+02  0.87667245606E+02  0.00000000000E+00 0.  1.
         21   -1    0    0  501  503 -0.00000000000E+00 -0.00000000000E+00 -0.37348361191E+03  0.37348361191E+03  0.00000000000E+00 0.  1.
          6    2    1    2  501    0  0.32053915986E+02  0.41062256166E+01 -0.20821852657E+03  0.27192276219E+03  0.17187995570E+03 0.  0.
         24    2    3    3    0    0  0.81850179936E+02 -0.25417329281E+02 -0.14578054982E+03  0.18664733115E+03  0.78992182768E+02 0.  0.
         -6    2    1    2    0  502 -0.32053915986E+02 -0.41062256166E+01 -0.77597839732E+02  0.18922809532E+03  0.16953327906E+03 0.  0.
        -24    2    5    5    0    0  0.26336855733E+02  0.47905681535E+02 -0.58412017358E+02  0.10857509484E+03  0.73403018697E+02 0.  0.
          5    1    3    3  501    0 -0.49796263950E+02  0.29523554897E+02 -0.62437976749E+02  0.85275431032E+02  0.47000000000E+01 0. -1.
        -11    1    4    4    0    0  0.40460364121E+02  0.25677760886E+02 -0.41639766844E+02  0.63484318156E+02  0.00000000000E+00 0.  1.
         12    1    4    4    0    0  0.41389815815E+02 -0.51095090167E+02 -0.10414078297E+03  0.12316301300E+03  0.00000000000E+00 0. -1.
         -5    1    5    5    0  502 -0.58390771719E+02 -0.52011907152E+02 -0.19185822373E+02  0.80653000487E+02  0.47000000000E+01 0.  1.
         11    1    6    6    0    0 -0.22062765827E+02  0.28153071969E+02 -0.38724067879E+02  0.52715410748E+02  0.00000000000E+00 0. -1.
        -12    1    6    6    0    0  0.48399621560E+02  0.19752609566E+02 -0.19687949480E+02  0.55859684090E+02  0.00000000000E+00 0.  1.
</event>
<event>
12    1  0.8526130E-002  0.1835547E+03  0.7818608E-02  0.1164551E+00
         21   -1    0    0  503  502  0.00000000000E+00  0.00000000000E+00  0.49566273268E+03  0.49566273268E+03  0.00000000000E+00 0. -1.
         21   -1    0    0  501  503 -0.00000000000E+00 -0.00000000000E+00 -0.74640280008E+02  0.74640280008E+02  0.00000000000E+00 0.  1.
          6    2    1    2  501    0 -0.24270697884E+02  0.59162232146E+02  0.29684647214E+03  0.34869076587E+03  0.17140065838E+03 0.  0.
         24    2    3    3    0    0 -0.70812416877E+01 -0.19289200957E+02  0.63368143812E+02  0.10174072121E+03  0.76898865041E+02 0.  0.
         -6    2    1    2    0  502  0.24270697884E+02 -0.59162232146E+02  0.12417598053E+03  0.22161224681E+03  0.17205544836E+03 0.  0.
        -24    2    5    5    0    0 -0.30184307765E+02  0.24641798254E+02  0.47493410004E+02  0.95553650225E+02  0.73188560725E+02 0.  0.
          5    1    3    3  501    0 -0.17189456196E+02  0.78451433103E+02  0.23347832833E+03  0.24695004466E+03  0.47000000000E+01 0. -1.
        -11    1    4    4    0    0 -0.35446359640E+02  0.75735777159E+01  0.14168523419E+02  0.38917226867E+02  0.00000000000E+00 0.  1.
         12    1    4    4    0    0  0.28365117953E+02 -0.26862778673E+02  0.49199620393E+02  0.62823494342E+02  0.00000000000E+00 0. -1.
         -5    1    5    5    0  502  0.54455005649E+02 -0.83804030399E+02  0.76682570523E+02  0.12605859659E+03  0.47000000000E+01 0.  1.
         11    1    6    6    0    0 -0.22534315215E+02 -0.20123179177E+02  0.39031927561E+02  0.49358171274E+02  0.00000000000E+00 0. -1.
        -12    1    6    6    0    0 -0.76499925506E+01  0.44764977431E+02  0.84614824434E+01  0.46195478951E+02  0.00000000000E+00 0.  1.
</event>
<event>
12    1  0.8526130E-002  0.2118224E+03  0.7818608E-02  0.1140819E+00
         21   -1    0    0  503  502  0.00000000000E+00  0.00000000000E+00  0.21069425838E+03  0.21069425838E+03  0.00000000000E+00 0.  1.
         21   -1    0    0  501  503 -0.00000000000E+00 -0.00000000000E+00 -0.23770206842E+03  0.23770206842E+03  0.00000000000E+00 0.  1.
          6    2    1    2  501    0 -0.61422273526E+02  0.10275549579E+03 -0.90868006330E+02  0.23049016234E+03  0.17474934267E+03 0.  0.
         24    2    3    3    0    0 -0.10108596366E+03  0.71375232918E+02 -0.10152806194E+03  0.17858971920E+03  0.79205710146E+02 0.  0.
         -6    2    1    2    0  502  0.61422273526E+02 -0.10275549579E+03  0.63860196297E+02  0.21790616446E+03  0.17050977754E+03 0.  0.
        -24    2    5    5    0    0  0.45785430600E+02 -0.57332101372E+02  0.10810435832E+03  0.15242768334E+03  0.78513507491E+02 0.  0.
          5    1    3    3  501    0  0.39663690135E+02  0.31380262873E+02  0.10660055607E+02  0.51900443144E+02  0.47000000000E+01 0. -1.
        -11    1    4    4    0    0 -0.24383418038E+02  0.55029664784E+02 -0.15446607055E+02  0.62140266744E+02  0.00000000000E+00 0.  1.
         12    1    4    4    0    0 -0.76702545623E+02  0.16345568134E+02 -0.86081454882E+02  0.11644945246E+03  0.00000000000E+00 0. -1.
         -5    1    5    5    0  502  0.15636842926E+02 -0.45423394418E+02 -0.44244162018E+02  0.65478481121E+02  0.47000000000E+01 0.  1.
         13    1    6    6    0    0  0.38224575848E+02 -0.28027475945E+01  0.94848844437E+01  0.39483371510E+02  0.00000000000E+00 0. -1.
        -14    1    6    6    0    0  0.75608547519E+01 -0.54529353778E+02  0.98619473871E+02  0.11294431183E+03  0.00000000000E+00 0.  1.
</event>
<event>
12    1  0.8526130E-002  0.1927795E+03  0.7818608E-02  0.1156689E+00
         21   -1    0    0  501  502  0.00000000000E+00  0.00000000000E+00  0.88689978209E+02  0.88689978209E+02  0.00000000000E+00 0. -1.
         21   -1    0    0  502  503 -0.00000000000E+00 -0.00000000000E+00 -0.14152573329E+04  0.14152573329E+04  0.00000000000E+00 0. -1.
         -6    2    1    2    0  503  0.44925554802E+02  0.66123332308E+02 -0.12979694356E+04  0.13122075289E+04  0.17542332404E+03 0.  0.
        -24    2    3    3    0    0  0.46735905513E+02  0.57771466219E+02 -0.41321109131E+03  0.42739543087E+03  0.80010381674E+02 0.  0.
          6    2    1    2  501    0 -0.44925554802E+02 -0.66123332308E+02 -0.28597919179E+02  0.19173978229E+03  0.17191772038E+03 0.  0.
         24    2    5    5    0    0 -0.69492881472E+01  0.29305528491E+02 -0.25006065206E+02  0.88861914323E+02  0.79774870192E+02 0.  0.
          5    1    5    5  501    0 -0.37976266655E+02 -0.95428860799E+02 -0.35918539734E+01  0.10287786797E+03  0.47000000000E+01 0. -1.
        -13    1    6    6    0    0 -0.24656424462E+02  0.41341905601E+02 -0.40112346272E+02  0.62658540914E+02  0.00000000000E+00 0.  1.
         14    1    6    6    0    0  0.17707136314E+02 -0.12036377110E+02  0.15106281066E+02  0.26203373410E+02  0.00000000000E+00 0. -1.
         -5    1    3    3    0  503 -0.18103507109E+01  0.83518660890E+01 -0.88475834424E+03  0.88481209799E+03  0.47000000000E+01 0.  1.
         13    1    4    4    0    0  0.53017367925E+02  0.15237947387E+02 -0.32033796718E+03  0.32505299500E+03  0.00000000000E+00 0. -1.
        -14    1    4    4    0    0 -0.62814624121E+01  0.42533518832E+02 -0.92873124128E+02  0.10234243587E+03  0.00000000000E+00 0.  1.
</event>
<event>
12    1  0.8526130E-002  0.2210414E+03  0.7818608E-02  0.1133185E+00
         21   -1    0    0  503  502  0.00000000000E+00  0.00000000000E+00  0.41562637741E+03  0.41562637741E+03  0.00000000000E+00 0.  1.
         21   -1    0    0  501  503 -0.00000000000E+00 -0.00000000000E+00 -0.17264199681E+03  0.17264199681E+03  0.00000000000E+00 0.  1.
          6    2    1    2  501    0 -0.37305004010E+02 -0.13273520370E+03 -0.44905451425E+02  0.22555666750E+03  0.17276866921E+03 0.  0.
         24    2    3    3    0    0  0.87834159970E+01 -0.64830509392E+02 -0.85311668150E+02  0.13396003919E+03  0.79919134337E+02 0.  0.
         -6    2    1    2    0  502  0.37305004010E+02  0.13273520370E+03  0.28788983203E+03  0.36271170671E+03  0.17224671020E+03 0.  0.
        -24    2    5    5    0    0 -0.17273251864E+02 -0.16455286308E+01  0.11041086111E+03  0.13345673435E+03  0.72931945658E+02 0.  0.
          5    1    3    3  501    0 -0.46088420007E+02 -0.67904694306E+02  0.40406216724E+02  0.91596628309E+02  0.47000000000E+01 0. -1.
        -11    1    4    4    0    0  0.44103029067E+02 -0.27994295903E+02 -0.44154218168E+02  0.68398485057E+02  0.00000000000E+00 0.  1.
         12    1    4    4    0    0 -0.35319613070E+02 -0.36836213489E+02 -0.41157449982E+02  0.65561554135E+02  0.00000000000E+00 0. -1.
         -5    1    5    5    0  502  0.54578255874E+02  0.13438073233E+03  0.17747897092E+03  0.22925497236E+03  0.47000000000E+01 0.  1.
         11    1    6    6    0    0  0.15037803322E+02  0.14855004788E+01 -0.30737521501E+01  0.15420447228E+02  0.00000000000E+00 0. -1.
        -12    1    6    6    0    0 -0.32311055186E+02 -0.31310291096E+01  0.11348461326E+03  0.11803628712E+03  0.00000000000E+00 0.  1.
</event>
<event>
12    1  0.8526130E-002  0.1956021E+03  0.7818608E-02  0.1153531E+00
         21   -1    0    0  501  502  0.00000000000E+00  0.00000000000E+00  0.18724757789E+03  0.18724757789E+03  0.00000000000E+00 0. -1.
         21   -1    0    0  502  503 -0.00000000000E+00 -0.00000000000E+00 -0.23822269455E+03  0.23822269455E+03  0.00000000000E+00 0. -1.
         -6    2    1    2    0  503  0.24094401027E+02 -0.99499078648E+02 -0.10589304293E+03  0.22242645944E+03  0.16667209277E+03 0.  0.
        -24    2    3    3    0    0 -0.16501113901E+02 -0.10330986787E+03 -0.28396535191E+02  0.13473200889E+03  0.80007096247E+02 0.  0.
          6    2    1    2  501    0 -0.24094401027E+02  0.99499078648E+02  0.54917926271E+02  0.20304381299E+03  0.16652388584E+03 0.  0.
         24    2    5    5    0    0  0.31090131675E+01  0.12340768108E+03  0.13695673206E+02  0.14797103240E+03  0.80428435598E+02 0.  0.
          5    1    5    5  501    0 -0.27203414194E+02 -0.23908602434E+02  0.41222253065E+02  0.55072780590E+02  0.47000000000E+01 0. -1.
        -11    1    6    6    0    0  0.38328953500E+02  0.83698377478E+02 -0.36532837308E+01  0.92129656196E+02  0.00000000000E+00 0.  1.
         12    1    6    6    0    0 -0.35219940333E+02  0.39709303604E+02  0.17348956937E+02  0.55841376206E+02  0.00000000000E+00 0. -1.
         -5    1    3    3    0  503  0.40595514927E+02  0.38107892217E+01 -0.77496507735E+02  0.87694450553E+02  0.47000000000E+01 0.  1.
         13    1    4    4    0    0  0.12334165954E+02 -0.48600343109E+02 -0.48443937360E+02  0.69720442246E+02  0.00000000000E+00 0. -1.
        -14    1    4    4    0    0 -0.28835279855E+02 -0.54709524761E+02  0.20047402169E+02  0.65011566645E+02  0.00000000000E+00 0.  1.
</event>
<event>
12    1  0.8526130E-002  0.2034728E+03  0.7818608E-02  0.1147153E+00
         21   -1    0    0  503  502  0.00000000000E+00  0.00000000000E+00  0.10221498705E+04  0.10221498705E+04  0.00000000000E+00 0. -1.
         21   -1    0    0  501  503 -0.00000000000E+00 -0.00000000000E+00 -0.42557390653E+02  0.42557390653E+02  0.00000000000E+00 0.  1.
          6    2    1    2  501    0  0.10507267241E+03  0.20517522787E+02  0.61666665942E+03  0.64936811025E+03  0.17303161141E+03 0.  0.
         24    2    3    3    0    0  0.26538400235E+01 -0.30939454333E+02  0.15437872487E+03  0.17305974149E+03  0.71781548690E+02 0.  0.
         -6    2    1    2    0  502 -0.10507267241E+03 -0.20517522787E+02  0.36292582045E+03  0.41533915092E+03  0.17126068991E+03 0.  0.
        -24    2    5    5    0    0 -0.67284142942E+02 -0.16700369506E+02  0.36095190960E+03  0.37701774773E+03  0.83964533159E+02 0.  0.
          5    1    3    3  501    0  0.10241883238E+03  0.51456977120E+02  0.46228793455E+03  0.47630836876E+03  0.47000000000E+01 0. -1.
        -11    1    4    4    0    0  0.36870430904E+02 -0.16751910951E+02  0.69267159454E+02  0.80237114694E+02  0.00000000000E+00 0.  1.
         12    1    4    4    0    0 -0.34216590880E+02 -0.14187543382E+02  0.85111565413E+02  0.92822626798E+02  0.00000000000E+00 0. -1.
         -5    1    5    5    0  502 -0.37788529466E+02 -0.38171532814E+01  0.19739108527E+01  0.38321403190E+02  0.47000000000E+01 0.  1.
         11    1    6    6    0    0 -0.60913901006E+02 -0.13721194994E+02  0.11411576777E+03  0.13008144749E+03  0.00000000000E+00 0. -1.
        -12    1    6    6    0    0 -0.63702419358E+01 -0.29791745125E+01  0.24683614183E+03  0.24693630024E+03  0.00000000000E+00 0.  1.
</event>
<event>
12    1  0.8526130E-002  0.1847902E+03  0.7818608E-02  0.1163585E+00
         21   -1    0    0  501  502  0.00000000000E+00  0.00000000000E+00  0.10887334196E+03  0.10887334196E+03  0.00000000000E+00 0. -1.
         21   -1    0    0  502  503 -0.00000000000E+00 -0.00000000000E+00 -0.32278064804E+03  0.32278064804E+03  0.00000000000E+00 0. -1.
         -6    2    1    2    0  503 -0.68188920885E+01 -0.63425834499E+02 -0.14823681703E+03  0.23689988143E+03  0.17343029183E+03 0.  0.
        -24    2    3    3    0    0  0.22759032921E+02 -0.19151078444E+01 -0.11502058791E+02  0.84004795654E+02  0.80017917487E+02 0.  0.
          6    2    1    2  501    0  0.68188920885E+01  0.63425834499E+02 -0.65670489053E+02  0.19475410858E+03  0.17189303623E+03 0.  0.
         24    2    5    5    0    0 -0.57972561066E+02  0.50371316303E+02 -0.16707448108E+02  0.11236586775E+03  0.80304807273E+02 0.  0.
          5    1    5    5  501    0  0.64791453154E+02  0.13054518197E+02 -0.48963040945E+02  0.82388240822E+02  0.47000000000E+01 0. -1.
        -11    1    6    6    0    0  0.17396945203E+02 -0.22131530453E+00  0.66625674449E+01  0.18630418348E+02  0.00000000000E+00 0.  1.
         12    1    6    6    0    0 -0.75369506269E+02  0.50592631607E+02 -0.23370015553E+02  0.93735449405E+02  0.00000000000E+00 0. -1.
         -5    1    3    3    0  503 -0.29577925009E+02 -0.61510726655E+02 -0.13673475824E+03  0.15289508577E+03  0.47000000000E+01 0.  1.
         13    1    4    4    0    0 -0.81561945453E+01 -0.35899265458E+02 -0.75223670159E+00  0.36821822741E+02  0.00000000000E+00 0. -1.
        -14    1    4    4    0    0  0.30915227466E+02  0.33984157614E+02 -0.10749822089E+02  0.47182972913E+02  0.00000000000E+00 0.  1.
</event>
<event>
12    1  0.8526130E-002  0.2171605E+03  0.7818608E-02  0.1136110E+00
         21   -1    0    0  503  502  0.00000000000E+00  0.00000000000E+00  0.12236887089E+03  0.12236887089E+03  0.00000000000E+00 0.  1.
         21   -1    0    0  501  503 -0.00000000000E+00 -0.00000000000E+00 -0.40521935976E+03  0.40521935976E+03  0.00000000000E+00 0. -1.
          6    2    1    2  501    0  0.46798681845E+02 -0.12241537279E+03 -0.81654686344E+02  0.23155035258E+03  0.17254691495E+03 0.  0.
         24    2    3    3    0    0 -0.12169907352E+02 -0.56764484322E+02  0.13930227217E+02  0.10137393625E+03  0.81928690911E+02 0.  0.
         -6    2    1    2    0  502 -0.46798681845E+02  0.12241537279E+03 -0.20119580253E+03  0.29603787808E+03  0.17315609774E+03 0.  0.
        -24    2    5    5    0    0 -0.43274745208E+02  0.19368214482E+01 -0.11673310991E+03  0.14878457283E+03  0.81447991456E+02 0.  0.
          5    1    3    3  501    0  0.58968589196E+02 -0.65650888467E+02 -0.95584913561E+02  0.13017641633E+03  0.47000000000E+01 0. -1.
        -13    1    4    4    0    0  0.20935668809E+02 -0.60347119228E+02 -0.31439231378E+01  0.63952805101E+02  0.00000000000E+00 0.  1.
         14    1    4    4    0    0 -0.33105576161E+02  0.35826349067E+01  0.17074150355E+02  0.37421131145E+02  0.00000000000E+00 0. -1.
         -5    1    5    5    0  502 -0.35239366364E+01  0.12047855134E+03 -0.84462692615E+02  0.14725330525E+03  0.47000000000E+01 0.  1.
         11    1    6    6    0    0 -0.48316867959E+01  0.38670663770E+02 -0.45841090181E+02  0.60167856724E+02  0.00000000000E+00 0. -1.
        -12    1    6    6    0    0 -0.38443058412E+02 -0.36733842322E+02 -0.70892019730E+02  0.88616716105E+02  0.00000000000E+00 0.  1.
</event>
<event>
12    1  0.8526130E-002  0.2164438E+03  0.7818608E-02  0.1139463E+00
         21   -1    0    0  501  502  0.00000000000E+00  0.00000000000E+00  0.52032529425E+03  0.52032529425E+03  0.00000000000E+00 0. -1.
         21   -1    0    0  502  503 -0.00000000000E+00 -0.00000000000E+00 -0.84052000745E+02  0.84052000745E+02  0.00000000000E+00 0.  1.
         -6    2    1    2    0  503 -0.12760036623E+03  0.98587459031E+01  0.21478070092E+03  0.29468895871E+03  0.15598648841E+03 0.  0.
        -24    2    3    3    0    0 -0.11928239192E+03  0.53315104434E+02  0.12587133050E+03  0.19526758303E+03  0.72215287566E+02 0.  0.
          6    2    1    2  501    0  0.12760036623E+03 -0.98587459031E+01  0.22149259259E+03  0.30968833628E+03  0.17455328335E+03 0.  0.
         24    2    5    5    0    0  0.16007398033E+03 -0.24640390635E+02  0.18817549119E+03  0.26064598847E+03  0.79344109990E+02 0.  0.
          5    1    5    5  501    0 -0.32473614105E+02  0.14781644732E+02  0.33317101398E+02  0.49042347819E+02  0.47000000000E+01 0. -1.
        -13    1    6    6    0    0  0.99663628046E+02 -0.36976392429E+02  0.69782545466E+02  0.12716011955E+03  0.00000000000E+00 0.  1.
         14    1    6    6    0    0  0.60410352285E+02  0.12336001795E+02  0.11839294572E+03  0.13348586892E+03  0.00000000000E+00 0. -1.
         -5    1    3    3    0  503 -0.83179743046E+01 -0.43456358531E+02  0.88909370418E+02  0.99421375677E+02  0.47000000000E+01 0.  1.
         11    1    4    4    0    0 -0.77536819926E+02  0.74334644270E+01  0.10304040905E+03  0.12916865229E+03  0.00000000000E+00 0. -1.
        -12    1    4    4    0    0 -0.41745571995E+02  0.45881640007E+02  0.22830921452E+02  0.66098930742E+02  0.00000000000E+00 0.  1.
</event>
<event>
12    1  0.8526130E-002  0.1977691E+03  0.7818608E-02  0.1151729E+00
         21   -1    0    0  503  502  0.00000000000E+00  0.00000000000E+00  0.33990057549E+02  0.33990057549E+02  0.00000000000E+00 0.  1.
         21   -1    0    0  501  503 -0.00000000000E+00 -0.00000000000E+00 -0.15016891941E+04  0.15016891941E+04  0.00000000000E+00 0.  1.
          6    2    1    2  501    0  0.70658436434E+02 -0.67005377960E+02 -0.11057883098E+04  0.11232570737E+04  0.17162847172E+03 0.  0.
         24    2    3    3    0    0  0.51602080663E+02  0.21656863322E+02 -0.40075752613E+03  0.41240221258E+03  0.79606505558E+02 0.  0.
         -6    2    1    2    0  502 -0.70658436434E+02  0.67005377960E+02 -0.36191082672E+03  0.41242217788E+03  0.17213445615E+03 0.  0.
        -24    2    5    5    0    0 -0.11340896508E+03  0.51166564664E+02 -0.30799487559E+03  0.34165851847E+03  0.79938033217E+02 0.  0.
          5    1    3    3  501    0  0.19056355771E+02 -0.88662241282E+02 -0.70503078367E+03  0.71085486117E+03  0.47000000000E+01 0. -1.
        -11    1    4    4    0    0  0.11831095193E+02 -0.15273362696E+00 -0.31641885507E+03  0.31664000060E+03  0.00000000000E+00 0.  1.
         12    1    4    4    0    0  0.39770985470E+02  0.21809596949E+02 -0.84338671067E+02  0.95762211971E+02  0.00000000000E+00 0. -1.
         -5    1    5    5    0  502  0.42750528647E+02  0.15838813296E+02 -0.53915951132E+02  0.70763659407E+02  0.47000000000E+01 0.  1.
         13    1    6    6    0    0  0.28355447939E+01 -0.11897723580E+01 -0.82971707562E+02  0.83028670520E+02  0.00000000000E+00 0. -1.
        -14    1    6    6    0    0 -0.11624450987E+03  0.52356337022E+02 -0.22502316803E+03  0.25862984795E+03  0.00000000000E+00 0.  1.
</event>
<event>
12    1  0.8526130E-002  0.2321451E+03  0.7818608E-02  0.1125463E+00
         21   -1    0    0  501  502  0.00000000000E+00  0.00000000000E+00  0.78581595457E+02  0.78581595457E+02  0.00000000000E+00 0. -1.
         21   -1    0    0  502  503 -0.00000000000E+00 -0.00000000000E+00 -0.69201853387E+03  0.69201853387E+03  0.00000000000E+00 0.  1.
         -6    2    1    2    0  503 -0.18430747867E+02 -0.15389174332E+03 -0.35802155000E+03  0.42669750425E+03  0.17282641216E+03 0.  0.
        -24    2    3    3    0    0 -0.52873015404E+02 -0.14851720461E+03 -0.20293003939E+03  0.26766724888E+03  0.74914881131E+02 0.  0.
          6    2    1    2  501    0  0.18430747867E+02  0.15389174332E+03 -0.25541538841E+03  0.34390262507E+03  0.17032214703E+03 0.  0.
         24    2    5    5    0    0  0.65712961841E+02  0.13439609904E+03 -0.23198204918E+03  0.28744999633E+03  0.80195538899E+02 0.  0.
          5    1    5    5  501    0 -0.47282213974E+02  0.19495644271E+02 -0.23433339229E+02  0.56452628736E+02  0.47000000000E+01 0. -1.
        -11    1    6    6    0    0  0.69312672064E+02  0.51206501466E+02 -0.12646893318E+03  0.15303837219E+03  0.00000000000E+00 0.  1.
         12    1    6    6    0    0 -0.35997102232E+01  0.83189597579E+02 -0.10551311600E+03  0.13441162415E+03  0.00000000000E+00 0. -1.
         -5    1    3    3    0  503  0.34442267537E+02 -0.53745387095E+01 -0.15509151061E+03  0.15903025537E+03  0.47000000000E+01 0.  1.
         11    1    4    4    0    0 -0.21893371206E+02 -0.11205691894E+03 -0.91213990027E+02  0.14613714368E+03  0.00000000000E+00 0. -1.
        -12    1    4    4    0    0 -0.30979644199E+02 -0.36460285663E+02 -0.11171604936E+03  0.12153010520E+03  0.00000000000E+00 0.  1.
</event>
<event>
12    1  0.8526130E-002  0.1762123E+03  0.7818608E-02  0.1171940E+00
         21   -1    0    0  501  502  0.00000000000E+00  0.00000000000E+00  0.68008277677E+02  0.68008277677E+02  0.00000000000E+00 0.  1.
         21   -1    0    0  502  503 -0.00000000000E+00 -0.00000000000E+00 -0.45663048809E+03  0.45663048809E+03  0.00000000000E+00 0.  1.
         -6    2    1    2    0  503 -0.16603054968E+02  0.21722072093E+02 -0.22097192008E+03  0.28262936930E+03  0.17407831881E+03 0.  0.
        -24    2    3    3    0    0 -0.79083107724E+01  0.82074432083E+02 -0.12672963242E+03  0.17028300881E+03  0.78339961551E+02 0.  0.
          6    2    1    2  501    0  0.16603054968E+02 -0.21722072093E+02 -0.16765029034E+03  0.24200939646E+03  0.17237870598E+03 0.  0.
         24    2    5    5    0    0 -0.46095395160E+02  0.25360133346E+02 -0.89332582145E+02  0.13108787856E+03  0.80223437065E+02 0.  0.
          5    1    5    5  501    0  0.62698450128E+02 -0.47082205440E+02 -0.78317708191E+02  0.11092151790E+03  0.47000000000E+01 0. -1.
        -13    1    6    6    0    0 -0.14762884583E+02 -0.12049591804E+02 -0.78924670324E+02  0.81192604402E+02  0.00000000000E+00 0.  1.
         14    1    6    6    0    0 -0.31332510578E+02  0.37409725150E+02 -0.10407911821E+02  0.49895274159E+02  0.00000000000E+00 0. -1.
         -5    1    3    3    0  503 -0.86947441954E+01 -0.60352359990E+02 -0.94242287661E+02  0.11234636049E+03  0.47000000000E+01 0.  1.
         13    1    4    4    0    0  0.33708142421E+02  0.52326856704E+02 -0.76040668479E+02  0.98267604330E+02  0.00000000000E+00 0. -1.
        -14    1    4    4    0    0 -0.41616453193E+02  0.29747575379E+02 -0.50688963937E+02  0.72015404480E+02  0.00000000000E+00 0.  1.
</event>
<event>
12    1  0.8526130E-002  0.2074577E+03  0.7818608E-02  0.1144003E+00
         21   -1    0    0  501  502  0.00000000000E+00  0.00000000000E+00  0.10479989110E+04  0.10479989110E+04  0.00000000000E+00 0.  1.
         21   -1    0    0  502  503 -0.00000000000E+00 -0.00000000000E+00 -0.84289027828E+02  0.84289027828E+02  0.00000000000E+00 0.  1.
         -6    2    1    2    0  503  0.83580511872E+02 -0.77793882015E+02  0.75721872151E+02  0.22084497312E+03  0.17320828556E+03 0.  0.
        -24    2    3    3    0    0  0.29232662579E+02  0.11916888998E+02 -0.64503722165E+01  0.87518010718E+02  0.81370965912E+02 0.  0.
          6    2    1    2  501    0 -0.83580511872E+02  0.77793882015E+02  0.88798801103E+03  0.91144296572E+03  0.17078636357E+03 0.  0.
         24    2    5    5    0    0 -0.22558162357E+02  0.95947513193E+02  0.41118472478E+03  0.43038502197E+03  0.80271995534E+02 0.  0.
          5    1    5    5  501    0 -0.61022349516E+02 -0.18153631178E+02  0.47680328624E+03  0.48105794374E+03  0.47000000000E+01 0. -1.
        -13    1    6    6    0    0 -0.85752225970E+01  0.42362135594E+02  0.32552992667E+03  0.32838668995E+03  0.00000000000E+00 0.  1.
         14    1    6    6    0    0 -0.13982939759E+02  0.53585377600E+02  0.85654798110E+02  0.10199833203E+03  0.00000000000E+00 0. -1.
         -5    1    3    3    0  503  0.54347849294E+02 -0.89710771013E+02  0.82172244367E+02  0.13332696240E+03  0.47000000000E+01 0.  1.
         11    1    4    4    0    0  0.39181752382E+00  0.31329485499E+02  0.25426141391E+02  0.40350698242E+02  0.00000000000E+00 0. -1.
        -12    1    4    4    0    0  0.28840845055E+02 -0.19412596501E+02 -0.31876513608E+02  0.47167312476E+02  0.00000000000E+00 0.  1.
</event>
<event>
12    1  0.8526130E-002  0.2535921E+03  0.7818608E-02  0.1111872E+00
         21   -1    0    0  503  502  0.00000000000E+00  0.00000000000E+00  0.54344736138E+02  0.54344736138E+02  0.00000000000E+00 0. -1.
         21   -1    0    0  501  503 -0.00000000000E+00 -0.00000000000E+00 -0.14883981621E+04  0.14883981621E+04  0.00000000000E+00 0. -1.
          6    2    1    2  501    0  0.18005314800E+03  0.47074188752E+02 -0.10855829441E+04  0.11148090799E+04  0.17226096688E+03 0.  0.
         24    2    3    3    0    0  0.12737163312E+03  0.86589469968E+02 -0.91047648165E+03  0.92766965953E+03  0.88782342457E+02 0.  0.
         -6    2    1    2    0  502 -0.18005314800E+03 -0.47074188752E+02 -0.34847048183E+03  0.42793381833E+03  0.16450094472E+03 0.  0.
        -24    2    5    5    0    0 -0.14088315389E+03  0.26228674325E+02 -0.25054420005E+03  0.29940660395E+03  0.79598441573E+02 0.  0.
          5    1    3    3  501    0  0.52681514872E+02 -0.39515281216E+02 -0.17510646246E+03  0.18713942037E+03  0.47000000000E+01 0. -1.
        -11    1    4    4    0    0  0.59131141352E+01  0.11977198941E+02 -0.31823556805E+03  0.31851576882E+03  0.00000000000E+00 0.  1.
         12    1    4    4    0    0  0.12145851899E+03  0.74612271027E+02 -0.59224091360E+03  0.60915389071E+03  0.00000000000E+00 0. -1.
         -5    1    5    5    0  502 -0.39169994103E+02 -0.73302863077E+02 -0.97926281781E+02  0.12852721438E+03  0.47000000000E+01 0.  1.
         11    1    6    6    0    0 -0.12055042812E+03  0.39501936541E+02 -0.15232993489E+03  0.19823525866E+03  0.00000000000E+00 0. -1.
        -12    1    6    6    0    0 -0.20332725770E+02 -0.13273262216E+02 -0.98214265159E+02  0.10117134529E+03  0.00000000000E+00 0.  1.
</event>
<event>
12    1  0.8526130E-002  0.2231927E+03  0.7818608E-02  0.1132133E+00
         21   -1    0    0  501  502  0.00000000000E+00  0.00000000000E+00  0.10839183433E+04  0.10839183433E+04  0.00000000000E+00 0. -1.
         21   -1    0    0  502  503 -0.00000000000E+00 -0.00000000000E+00 -0.48453847549E+02  0.48453847549E+02  0.00000000000E+00 0. -1.
         -6    2    1    2    0  503 -0.13237931139E+03 -0.49329914086E+02  0.36925551417E+03  0.42977030482E+03  0.16850862784E+03 0.  0.
        -24    2    3    3    0    0 -0.35374881903E+02 -0.16201451525E+02  0.28143008173E+03  0.29470457655E+03  0.78320030859E+02 0.  0.
          6    2    1    2  501    0  0.13237931139E+03  0.49329914086E+02  0.66620898160E+03  0.70260188604E+03  0.17279259415E+03 0.  0.
         24    2    5    5    0    0  0.15153139129E+03  0.24981004104E+02  0.63521074311E+03  0.65852635574E+03  0.81107705747E+02 0.  0.
          5    1    5    5  501    0 -0.19152079895E+02  0.24348909983E+02  0.30998238489E+02  0.44075530299E+02  0.47000000000E+01 0. -1.
        -13    1    6    6    0    0  0.11298690444E+03  0.43188229643E+02  0.55123617734E+03  0.56435147467E+03  0.00000000000E+00 0.  1.
         14    1    6    6    0    0  0.38544486850E+02 -0.18207225540E+02  0.83974565768E+02  0.94174881069E+02  0.00000000000E+00 0. -1.
         -5    1    3    3    0  503 -0.97004429491E+02 -0.33128462561E+02  0.87825432435E+02  0.13506572828E+03  0.47000000000E+01 0.  1.
         13    1    4    4    0    0  0.23370074216E+02  0.62478818228E+01  0.90907408336E+02  0.94071001304E+02  0.00000000000E+00 0. -1.
        -14    1    4    4    0    0 -0.58744956119E+02 -0.22449333347E+02  0.19052267340E+03  0.20063357524E+03  0.00000000000E+00 0.  1.
</event>
<event>
12    1  0.8526130E-002  0.3482347E+03  0.7818608E-02  0.1063415E+00
         21   -1    0    0  503  502  0.00000000000E+00  0.00000000000E+00  0.27938566606E+03  0.27938566606E+03  0.00000000000E+00 0.  1.
         21   -1    0    0  501  503 -0.00000000000E+00 -0.00000000000E+00 -0.43852688249E+03  0.43852688249E+03  0.00000000000E+00 0. -1.
          6    2    1    2  501    0 -0.21065195147E+03 -0.21715704056E+03 -0.11915471410E+03  0.36738962056E+03  0.17101421720E+03 0.  0.
         24    2    3    3    0    0 -0.14837595975E+03 -0.73428991685E+02 -0.27473125491E+02  0.18583066356E+03  0.79818673524E+02 0.  0.
         -6    2    1    2    0  502  0.21065195147E+03  0.21715704056E+03 -0.39986502318E+02  0.35052292799E+03  0.17244122987E+03 0.  0.
        -24    2    5    5    0    0  0.16235258477E+03  0.93312984572E+02 -0.70127592657E+02  0.21413834546E+03  0.76626867812E+02 0.  0.
          5    1    3    3  501    0 -0.62275991718E+02 -0.14372804887E+03 -0.91681588614E+02  0.18155895700E+03  0.47000000000E+01 0. -1.
        -11    1    4    4    0    0 -0.71026783480E+02 -0.77962906207E+02 -0.70436206489E+01  0.10570066844E+03  0.00000000000E+00 0.  1.
         12    1    4    4    0    0 -0.77349176269E+02  0.45339145229E+01 -0.20429504842E+02  0.80129995124E+02  0.00000000000E+00 0. -1.
         -5    1    5    5    0  502  0.48299366692E+02  0.12384405599E+03  0.30141090338E+02  0.13638458253E+03  0.47000000000E+01 0.  1.
         11    1    6    6    0    0  0.66188465422E+02  0.77274799419E+02 -0.17149620029E+02  0.10318147628E+03  0.00000000000E+00 0. -1.
        -12    1    6    6    0    0  0.96164119353E+02  0.16038185153E+02 -0.52977972628E+02  0.11095686918E+03  0.00000000000E+00 0.  1.
</event>
<event>
12    1  0.8526130E-002  0.1828609E+03  0.7818608E-02  0.1165493E+00
         21   -1    0    0  503  502  0.00000000000E+00  0.00000000000E+00  0.10218341269E+03  0.10218341269E+03  0.00000000000E+00 0.  1.
         21   -1    0    0  501  503 -0.00000000000E+00 -0.00000000000E+00 -0.48322904062E+03  0.48322904062E+03  0.00000000000E+00 0.  1.
          6    2    1    2  501    0  0.55261269500E+02 -0.13387540001E+02 -0.35790292720E+03  0.40109290470E+03  0.17189525524E+03 0.  0.
         24    2    3    3    0    0  0.34752955676E+02  0.27576056431E+02 -0.33850330471E+03  0.35112248824E+03  0.82062827371E+02 0.  0.
         -6    2    1    2    0  502 -0.55261269500E+02  0.13387540001E+02 -0.23142700728E+02  0.18431954861E+03  0.17379607955E+03 0.  0.
        -24    2    5    5    0    0  0.22257707948E+02  0.33727835807E+01 -0.56837318747E+02  0.99073407964E+02  0.77963312725E+02 0.  0.
          5    1    3    3  501    0  0.20508313825E+02 -0.40963596431E+02 -0.19399622493E+02  0.49970416462E+02  0.47000000000E+01 0. -1.
        -13    1    4    4    0    0  0.55781100600E+02  0.13011246912E+02 -0.29619564147E+03  0.30168308166E+03  0.00000000000E+00 0.  1.
         14    1    4    4    0    0 -0.21028144925E+02  0.14564809518E+02 -0.42307663232E+02  0.49439406585E+02  0.00000000000E+00 0. -1.
         -5    1    5    5    0  502 -0.77518977449E+02  0.10014756420E+02  0.33694618019E+02  0.85246140642E+02  0.47000000000E+01 0.  1.
         11    1    6    6    0    0  0.37349052346E+02 -0.27763197617E+02 -0.33377086649E+02  0.57269335304E+02  0.00000000000E+00 0. -1.
        -12    1    6    6    0    0 -0.15091344397E+02  0.31135981197E+02 -0.23460232098E+02  0.41804072660E+02  0.00000000000E+00 0.  1.
</event>
<event>
12    1  0.8526130E-002  0.1844734E+03  0.7818608E-02  0.1163872E+00
         21   -1    0    0  503  502  0.00000000000E+00  0.00000000000E+00  0.12967057299E+03  0.12967057299E+03  0.00000000000E+00 0. -1.
         21   -1    0    0  501  503 -0.00000000000E+00 -0.00000000000E+00 -0.27178473462E+03  0.27178473462E+03  0.00000000000E+00 0. -1.
          6    2    1    2  501    0  0.13862722718E+02  0.57085659273E+02 -0.29806199924E+02  0.18548423793E+03  0.17339274896E+03 0.  0.
         24    2    3    3    0    0  0.34040692376E+02  0.28427697962E+02 -0.81704174237E+02  0.12268360940E+03  0.80054938502E+02 0.  0.
         -6    2    1    2    0  502 -0.13862722718E+02 -0.57085659273E+02 -0.11230796171E+03  0.21597106969E+03  0.17486988621E+03 0.  0.
        -24    2    5    5    0    0 -0.77529448271E+02 -0.38729353893E+02 -0.71196838416E+02  0.13785179967E+03  0.80145808812E+02 0.  0.
          5    1    3    3  501    0 -0.20177969658E+02  0.28657961311E+02  0.51897974313E+02  0.62800628530E+02  0.47000000000E+01 0. -1.
        -13    1    4    4    0    0 -0.19192068792E+02 -0.12433372638E+02 -0.11614701736E+02  0.25648110186E+02  0.00000000000E+00 0.  1.
         14    1    4    4    0    0  0.53232761168E+02  0.40861070599E+02 -0.70089472500E+02  0.97035499213E+02  0.00000000000E+00 0. -1.
         -5    1    5    5    0  502  0.63666725553E+02 -0.18356305380E+02 -0.41111123290E+02  0.78119270017E+02  0.47000000000E+01 0.  1.
         13    1    6    6    0    0  0.12311408207E+01 -0.28132911657E+02 -0.46980993882E+02  0.54773992114E+02  0.00000000000E+00 0. -1.
        -14    1    6    6    0    0 -0.78760589092E+02 -0.10596442237E+02 -0.24215844534E+02  0.83077807558E+02  0.00000000000E+00 0.  1.
</event>
<event>
12    1  0.8526130E-002  0.1805372E+03  0.7818608E-02  0.1167779E+00
         21   -1    0    0  501  502  0.00000000000E+00  0.00000000000E+00  0.20199694154E+02  0.20199694154E+02  0.00000000000E+00 0.  1.
         21   -1    0    0  502  503 -0.00000000000E+00 -0.00000000000E+00 -0.16276557409E+04  0.16276557409E+04  0.00000000000E+00 0.  1.
         -6    2    1    2    0  503 -0.43620092486E+02  0.29672039631E+02 -0.68320902667E+03  0.70614092154E+03  0.17052062795E+03 0.  0.
        -24    2    3    3    0    0 -0.91119516558E+02  0.35243316972E+02 -0.41999782892E+03  0.43857885577E+03  0.80052350044E+02 0.  0.
          6    2    1    2  501    0  0.43620092486E+02 -0.29672039631E+02 -0.92424702004E+03  0.94171451347E+03  0.17265725708E+03 0.  0.
         24    2    5    5    0    0 -0.32180392270E+01  0.11870478643E+02 -0.22777696602E+03  0.24242042830E+03  0.82061280568E+02 0.  0.
          5    1    5    5  501    0  0.46838131713E+02 -0.41542518274E+02 -0.69647005401E+03  0.69929408516E+03  0.47000000000E+01 0. -1.
        -11    1    6    6    0    0  0.34787976368E+02  0.18321746085E+01 -0.16274028582E+03  0.16642704345E+03  0.00000000000E+00 0.  1.
         12    1    6    6    0    0 -0.38006015595E+02  0.10038304035E+02 -0.65036680208E+02  0.75993384855E+02  0.00000000000E+00 0. -1.
         -5    1    3    3    0  503  0.47499424072E+02 -0.55712773406E+01 -0.26321119775E+03  0.26756206577E+03  0.47000000000E+01 0.  1.
         13    1    4    4    0    0 -0.31249980505E+02  0.15119050496E+02 -0.38304982915E+02  0.51695441632E+02  0.00000000000E+00 0. -1.
        -14    1    4    4    0    0 -0.59869536053E+02  0.20124266476E+02 -0.38169284600E+03  0.38688341414E+03  0.00000000000E+00 0.  1.
</event>
<event>
12    1  0.8526130E-002  0.2205607E+03  0.7818608E-02  0.1133610E+00
         21   -1    0    0  501  502  0.00000000000E+00  0.00000000000E+00  0.68557123775E+03  0.68557123775E+03  0.00000000000E+00 0. -1.
         21   -1    0    0  502  503 -0.00000000000E+00 -0.00000000000E+00 -0.77376765193E+02  0.77376765193E+02  0.00000000000E+00 0.  1.
         -6    2    1    2    0  503 -0.92787274821E+02 -0.10189204262E+03  0.41656245625E+03  0.47135052587E+03  0.17220793119E+03 0.  0.
        -24    2    3    3    0    0 -0.11149072670E+03 -0.10125947113E+03  0.41880159612E+03  0.45192572197E+03  0.78475592602E+02 0.  0.
          6    2    1    2  501    0  0.92787274821E+02  0.10189204262E+03  0.19163201631E+03  0.29159747707E+03  0.17121563083E+03 0.  0.
         24    2    5    5    0    0  0.30971560404E+02  0.97438475357E+02  0.18896462603E+03  0.22938637050E+03  0.80355354787E+02 0.  0.
          5    1    5    5  501    0  0.61815714416E+02  0.44535672637E+01  0.26673902732E+01  0.62211106573E+02  0.47000000000E+01 0. -1.
        -11    1    6    6    0    0  0.13564191955E+02  0.52130643597E+02  0.26899968367E+02  0.60209630487E+02  0.00000000000E+00 0.  1.
         12    1    6    6    0    0  0.17407368449E+02  0.45307831760E+02  0.16206465767E+03  0.16917674001E+03  0.00000000000E+00 0. -1.
         -5    1    3    3    0  503  0.18703451883E+02 -0.63257149016E+00 -0.22391398744E+01  0.19424803896E+02  0.47000000000E+01 0.  1.
         13    1    4    4    0    0  0.11512557047E+02 -0.52416503697E+01  0.19791157363E+02  0.23488375383E+02  0.00000000000E+00 0. -1.
        -14    1    4    4    0    0 -0.12300328375E+03 -0.96017820761E+02  0.39901043876E+03  0.42843734659E+03  0.00000000000E+00 0.  1.
</event>
<event>
12    1  0.8526130E-002  0.1745903E+03  0.7818608E-02  0.1173655E+00
         21   -1    0    0  503  502  0.00000000000E+00  0.00000000000E+00  0.65761801870E+02  0.65761801870E+02  0.00000000000E+00 0. -1.
         21   -1    0    0  501  503 -0.00000000000E+00 -0.00000000000E+00 -0.69634454602E+03  0.69634454602E+03  0.00000000000E+00 0. -1.
          6    2    1    2  501    0 -0.27385352040E+02 -0.45253005789E+01 -0.53934843154E+03  0.56690253816E+03  0.17236972272E+03 0.  0.
         24    2    3    3    0    0 -0.66723942015E+02 -0.32324804639E+02 -0.46454473316E+03  0.47780696937E+03  0.83670266108E+02 0.  0.
         -6    2    1    2    0  502  0.27385352040E+02  0.45253005789E+01 -0.91234312610E+02  0.19520380974E+03  0.17032437197E+03 0.  0.
        -24    2    5    5    0    0 -0.93048601998E+01  0.30008151472E+02  0.81041053878E+01  0.86181983233E+02  0.79841017852E+02 0.  0.
          5    1    3    3  501    0  0.39338589975E+02  0.27799504060E+02 -0.74803698379E+02  0.89095568792E+02  0.47000000000E+01 0. -1.
        -13    1    4    4    0    0 -0.23968280358E+02  0.21884861230E+02 -0.68633893193E+02  0.75921254660E+02  0.00000000000E+00 0.  1.
         14    1    4    4    0    0 -0.42755661657E+02 -0.54209665869E+02 -0.39591083997E+03  0.40188571471E+03  0.00000000000E+00 0. -1.
         -5    1    5    5    0  502  0.36690212240E+02 -0.25482850894E+02 -0.99338417998E+02  0.10902182650E+03  0.47000000000E+01 0.  1.
         11    1    6    6    0    0 -0.44711184091E+02  0.19576504885E+02  0.64549285514E+01  0.49234090110E+02  0.00000000000E+00 0. -1.
        -12    1    6    6    0    0  0.35406323891E+02  0.10431646587E+02  0.16491768364E+01  0.36947893123E+02  0.00000000000E+00 0.  1.
</event>
<event>
12    1  0.8526130E-002  0.1918267E+03  0.7818608E-02  0.1157068E+00
         21   -1    0    0  503  502  0.00000000000E+00  0.00000000000E+00  0.40707600792E+03  0.40707600792E+03  0.00000000000E+00 0.  1.
         21   -1    0    0  501  503 -0.00000000000E+00 -0.00000000000E+00 -0.17601869152E+03  0.17601869152E+03  0.00000000000E+00 0.  1.
          6    2    1    2  501    0 -0.70129813859E+02  0.49616577606E+02 -0.88253634455E+02  0.21115441964E+03  0.17151527447E+03 0.  0.
         24    2    3    3    0    0 -0.18975962577E+02 -0.17491330902E+02 -0.94625808350E+02  0.12640253185E+03  0.79734074514E+02 0.  0.
         -6    2    1    2    0  502  0.70129813859E+02 -0.49616577606E+02  0.31931095086E+03  0.37194027980E+03  0.17029413623E+03 0.  0.
        -24    2    5    5    0    0  0.10121899697E+03  0.42534571503E+01  0.22283844083E+03  0.25705967594E+03  0.78481392955E+02 0.  0.
          5    1    3    3  501    0 -0.51153851282E+02  0.67107908508E+02  0.63721738951E+01  0.84751887799E+02  0.47000000000E+01 0. -1.
        -13    1    4    4    0    0 -0.24978508067E+01  0.31681580315E+02 -0.39863090839E+02  0.50980661050E+02  0.00000000000E+00 0.  1.
         14    1    4    4    0    0 -0.16478111770E+02 -0.49172911217E+02 -0.54762717511E+02  0.75421870795E+02  0.00000000000E+00 0. -1.
         -5    1    5    5    0  502 -0.31089183109E+02 -0.53870034757E+02  0.96472510028E+02  0.11488060386E+03  0.47000000000E+01 0.  1.
         13    1    6    6    0    0 -0.72498761725E+01  0.14301081513E+02  0.13042645640E+02  0.20668629424E+02  0.00000000000E+00 0. -1.
        -14    1    6    6    0    0  0.10846887314E+03 -0.10047624363E+02  0.20979579519E+03  0.23639104652E+03  0.00000000000E+00 0.  1.
</event>
<event>
12    1  0.8526130E-002  0.2030252E+03  0.7818608E-02  0.1148218E+00
         21   -1    0    0  501  502  0.00000000000E+00  0.00000000000E+00  0.66225149959E+02  0.66225149959E+02  0.00000000000E+00 0. -1.
         21   -1    0    0  502  503 -0.00000000000E+00 -0.00000000000E+00 -0.68427179723E+03  0.68427179723E+03  0.00000000000E+00 0. -1.
         -6    2    1    2    0  503 -0.99474832913E+02 -0.80740573223E+01 -0.18684395670E+03  0.27591643895E+03  0.17680153943E+03 0.  0.
        -24    2    3    3    0    0 -0.11301458844E+03 -0.63315229020E+02 -0.14917305175E+03  0.20753443028E+03  0.63536013086E+02 0.  0.
          6    2    1    2  501    0  0.99474832913E+02  0.80740573223E+01 -0.43120269058E+03  0.47458050824E+03  0.17126139569E+03 0.  0.
         24    2    5    5    0    0  0.29881298308E+01  0.48030915654E+01 -0.30589991268E+03  0.31632988663E+03  0.80360699311E+02 0.  0.
          5    1    5    5  501    0  0.96486703082E+02  0.32709657568E+01 -0.12530277790E+03  0.15825062161E+03  0.47000000000E+01 0. -1.
        -11    1    6    6    0    0 -0.34166676566E+02  0.78812375620E+00 -0.74926005740E+02  0.82352226824E+02  0.00000000000E+00 0.  1.
         12    1    6    6    0    0  0.37154806397E+02  0.40149678092E+01 -0.23097390694E+03  0.23397765981E+03  0.00000000000E+00 0. -1.
         -5    1    3    3    0  503  0.13539755526E+02  0.55241171697E+02 -0.37670904949E+02  0.68382008671E+02  0.47000000000E+01 0.  1.
         13    1    4    4    0    0 -0.27551143481E+02  0.42830321431E+01 -0.62031250353E+02  0.68009454429E+02  0.00000000000E+00 0. -1.
        -14    1    4    4    0    0 -0.85463444957E+02 -0.67598261163E+02 -0.87141801394E+02  0.13952497585E+03  0.00000000000E+00 0.  1.
</event>
<event>
12    1  0.8526130E-002  0.2314969E+03  0.7818608E-02  0.1125735E+00
         21   -1    0    0  503  502  0.00000000000E+00  0.00000000000E+00  0.13098911771E+04  0.13098911771E+04  0.00000000000E+00 0. -1.
         21   -1    0    0  501  503 -0.00000000000E+00 -0.00000000000E+00 -0.53906469948E+02  0.53906469948E+02  0.00000000000E+00 0.  1.
          6    2    1    2  501    0  0.34100285315E+02 -0.15220808014E+03  0.29217780529E+03  0.37277159562E+03  0.17105748588E+03 0.  0.
         24    2    3    3    0    0  0.86551958635E+02 -0.92663293285E+02  0.19438076825E+03  0.24674338398E+03  0.83789539946E+02 0.  0.
         -6    2    1    2    0  502 -0.34100285315E+02  0.15220808014E+03  0.96380690185E+03  0.99102605142E+03  0.16993752211E+03 0.  0.
        -24    2    5    5    0    0 -0.33263947412E+02  0.15678330182E+03  0.96713866209E+03  0.98362181340E+03  0.80418817175E+02 0.  0.
          5    1    3    3  501    0 -0.52451673320E+02 -0.59544786855E+02  0.97797037041E+02  0.12602821164E+03  0.47000000000E+01 0. -1.
        -13    1    4    4    0    0  0.90703128548E+02 -0.49314180268E+02  0.16346238614E+03  0.19333622937E+03  0.00000000000E+00 0.  1.
         14    1    4    4    0    0 -0.41511699133E+01 -0.43349113017E+02  0.30918382114E+02  0.53407154610E+02  0.00000000000E+00 0. -1.
         -5    1    5    5    0  502 -0.83633790283E+00 -0.45752216778E+01 -0.33317602351E+01  0.74042380265E+01  0.47000000000E+01 0.  1.
         13    1    6    6    0    0  0.66408815621E+01  0.12595467140E+03  0.60663549269E+03  0.61960899086E+03  0.00000000000E+00 0. -1.
        -14    1    6    6    0    0 -0.39904828974E+02  0.30828630417E+02  0.36050316940E+03  0.36401282254E+03  0.00000000000E+00 0.  1.
</event>
<event>
12    1  0.8526130E-002  0.1828605E+03  0.7818608E-02  0.1165316E+00
         21   -1    0    0  503  502  0.00000000000E+00  0.00000000000E+00  0.34041795289E+03  0.34041795289E+03  0.00000000000E+00 0. -1.
         21   -1    0    0  501  503 -0.00000000000E+00 -0.00000000000E+00 -0.10066029037E+03  0.10066029037E+03  0.00000000000E+00 0.  1.
          6    2    1    2  501    0  0.56056323560E+02 -0.27080781676E+02  0.81436195363E+02  0.19920296743E+03  0.17080482479E+03 0.  0.
         24    2    3    3    0    0 -0.19347319071E+02  0.29389199218E+02  0.34193445107E+02  0.93711093264E+02  0.79840675890E+02 0.  0.
         -6    2    1    2    0  502 -0.56056323560E+02  0.27080781676E+02  0.15832146716E+03  0.24187527582E+03  0.17193685453E+03 0.  0.
        -24    2    5    5    0    0 -0.47224777850E+01 -0.39021953793E+02  0.12154548322E+03  0.15033676834E+03  0.79264271577E+02 0.  0.
          5    1    3    3  501    0  0.75403642631E+02 -0.56469980894E+02  0.47242750256E+02  0.10549187417E+03  0.47000000000E+01 0. -1.
        -11    1    4    4    0    0  0.20696216771E+02  0.39234300059E+02  0.86180077100E+01  0.45187761027E+02  0.00000000000E+00 0.  1.
         12    1    4    4    0    0 -0.40043535842E+02 -0.98451008409E+01  0.25575437397E+02  0.48523332237E+02  0.00000000000E+00 0. -1.
         -5    1    5    5    0  502 -0.51333845775E+02  0.66102735468E+02  0.36775983937E+02  0.91538507487E+02  0.47000000000E+01 0.  1.
         13    1    6    6    0    0  0.21109347045E+02 -0.11637253912E+02  0.10747898304E+03  0.11014881754E+03  0.00000000000E+00 0. -1.
        -14    1    6    6    0    0 -0.25831824830E+02 -0.27384699881E+02  0.14066500180E+02  0.40187950793E+02  0.00000000000E+00 0.  1.
</event>
<event>
12    1  0.8526130E-002  0.2607658E+03  0.7818608E-02  0.1107228E+00
         21   -1    0    0  503  502  0.00000000000E+00  0.00000000000E+00  0.42282171339E+03  0.42282171339E+03  0.00000000000E+00 0. -1.
         21   -1    0    0  501  503 -0.00000000000E+00 -0.00000000000E+00 -0.33848959639E+03  0.33848959639E+03  0.00000000000E+00 0. -1.
          6    2    1    2  501    0  0.19147426187E+03  0.20949077626E+02 -0.23546587163E+03  0.34867398154E+03  0.17037638300E+03 0.  0.
         24    2    3    3    0    0  0.37085381232E+02  0.31639913279E+02 -0.10755840694E+03  0.14784412829E+03  0.88953166059E+02 0.  0.
         -6    2    1    2    0  502 -0.19147426187E+03 -0.20949077626E+02  0.31979798863E+03  0.41263732825E+03  0.17577700168E+03 0.  0.
        -24    2    5    5    0    0 -0.32516995199E+02  0.26035454092E+01  0.51382434401E+02  0.99761732474E+02  0.79045020563E+02 0.  0.
          5    1    3    3  501    0  0.15438888064E+03 -0.10690835653E+02 -0.12790746469E+03  0.20082985325E+03  0.47000000000E+01 0. -1.
        -11    1    4    4    0    0  0.43286745440E+02  0.17032912072E+01 -0.84619809658E+01  0.44138969784E+02  0.00000000000E+00 0.  1.
         12    1    4    4    0    0 -0.62013642075E+01  0.29936622071E+02 -0.99096425978E+02  0.10370515851E+03  0.00000000000E+00 0. -1.
         -5    1    5    5    0  502 -0.15895726667E+03 -0.23552623035E+02  0.26841555423E+03  0.31287559577E+03  0.47000000000E+01 0.  1.
         11    1    6    6    0    0 -0.15050221233E+02 -0.28640043596E+02  0.54973479575E+02  0.63787496525E+02  0.00000000000E+00 0. -1.
        -12    1    6    6    0    0 -0.17466773966E+02  0.31243589005E+02 -0.35910451739E+01  0.35974235949E+02  0.00000000000E+00 0.  1.
</event>
<event>
12    1  0.8526130E-002  0.2117107E+03  0.7818608E-02  0.1141936E+00
         21   -1    0    0  501  502  0.00000000000E+00  0.00000000000E+00  0.19162482850E+03  0.19162482850E+03  0.00000000000E+00 0.  1.
         21   -1    0    0  502  503 -0.00000000000E+00 -0.00000000000E+00 -0.31714797710E+03  0.31714797710E+03  0.00000000000E+00 0.  1.
         -6    2    1    2    0  503 -0.88274563968E+02 -0.66068575640E+02 -0.19929708934E+03  0.28457646574E+03  0.17060767774E+03 0.  0.
        -24    2    3    3    0    0 -0.34386913536E+02 -0.90366593499E+02 -0.16555811485E+03  0.21635124357E+03  0.10024864167E+03 0.  0.
          6    2    1    2  501    0  0.88274563968E+02  0.66068575640E+02  0.73773940751E+02  0.22419633986E+03  0.18073170485E+03 0.  0.
         24    2    5    5    0    0  0.82778868094E+02 -0.53532275449E+01  0.97177643415E+02  0.14869071131E+03  0.76055474507E+02 0.  0.
          5    1    5    5  501    0  0.54956958737E+01  0.71421803185E+02 -0.23403702664E+02  0.75505628544E+02  0.47000000000E+01 0. -1.
        -11    1    6    6    0    0  0.14160519593E+02 -0.21330167615E+01  0.75222727951E+02  0.76573682659E+02  0.00000000000E+00 0.  1.
         12    1    6    6    0    0  0.68618348502E+02 -0.32202107835E+01  0.21954915464E+02  0.72117028652E+02  0.00000000000E+00 0. -1.
         -5    1    3    3    0  503 -0.53887650433E+02  0.24298017859E+02 -0.33738974496E+02  0.68225222177E+02  0.47000000000E+01 0.  1.
         13    1    4    4    0    0  0.19898339724E+01 -0.76613612701E+02 -0.43232191552E+02  0.87992201227E+02  0.00000000000E+00 0. -1.
        -14    1    4    4    0    0 -0.36376747508E+02 -0.13752980798E+02 -0.12232592330E+03  0.12835904234E+03  0.00000000000E+00 0.  1.
</event>
<event>
12    1  0.8526130E-002  0.2084431E+03  0.7818608E-02  0.1143406E+00
         21   -1    0    0  501  502  0.00000000000E+00  0.00000000000E+00  0.89985268429E+02  0.89985268429E+02  0.00000000000E+00 0.  1.
         21   -1    0    0  502  503 -0.00000000000E+00 -0.00000000000E+00 -0.65442721950E+03  0.65442721950E+03  0.00000000000E+00 0.  1.
         -6    2    1    2    0  503  0.10995700845E+03 -0.41171990128E+02 -0.89327766275E+02  0.22677739792E+03  0.17222909714E+03 0.  0.
        -24    2    3    3    0    0  0.42652288846E+02 -0.85627986967E+02 -0.75427223423E+02  0.14479217957E+03  0.78256880435E+02 0.  0.
          6    2    1    2  501    0 -0.10995700845E+03  0.41171990128E+02 -0.47511418480E+03  0.51763509001E+03  0.16860285091E+03 0.  0.
         24    2    5    5    0    0 -0.26237926292E+02  0.61021634744E+02 -0.35402254043E+03  0.36901419832E+03  0.80171383621E+02 0.  0.
          5    1    5    5  501    0 -0.83719082163E+02 -0.19849644616E+02 -0.12109164437E+03  0.14862089169E+03  0.47000000000E+01 0. -1.
        -13    1    6    6    0    0 -0.54850399059E+02  0.43826355651E+02 -0.22204989501E+03  0.23288510386E+03  0.00000000000E+00 0.  1.
         14    1    6    6    0    0  0.28612472767E+02  0.17195279092E+02 -0.13197264542E+03  0.13612909446E+03  0.00000000000E+00 0. -1.
         -5    1    3    3    0  503  0.67304719608E+02  0.44455996839E+02 -0.13900542852E+02  0.81985218351E+02  0.47000000000E+01 0.  1.
         11    1    4    4    0    0 -0.17946729503E+01 -0.60515218295E+02 -0.93002321038E+01  0.61251994364E+02  0.00000000000E+00 0. -1.
        -12    1    4    4    0    0  0.44446961797E+02 -0.25112768671E+02 -0.66126991319E+02  0.83540185206E+02  0.00000000000E+00 0.  1.
</event>
<event>
12    1  0.8526130E-002  0.2095568E+03  0.7818608E-02  0.1142270E+00
         21   -1    0    0  501  502  0.00000000000E+00  0.00000000000E+00  0.56057188934E+02  0.56057188934E+02  0.00000000000E+00 0. -1.
         21   -1    0    0  502  503 -0.00000000000E+00 -0.00000000000E+00 -0.81080404236E+03  0.81080404236E+03  0.00000000000E+00 0. -1.
         -6    2    1    2    0  503  0.86616679189E+02  0.80698384055E+02 -0.28705965961E+03  0.35437183384E+03  0.17076729822E+03 0.  0.
        -24    2    3    3    0    0  0.10441593770E+03  0.10962202150E+03 -0.21990664954E+03  0.27897284732E+03  0.80915013369E+02 0.  0.
          6    2    1    2  501    0 -0.86616679189E+02 -0.80698384055E+02 -0.46768719381E+03  0.51248939745E+03  0.17291440929E+03 0.  0.
         24    2    5    5    0    0 -0.17393673365E+02 -0.91561119036E+02 -0.19263922835E+03  0.22861742481E+03  0.80436784090E+02 0.  0.
          5    1    5    5  501    0 -0.69223005824E+02  0.10862734981E+02 -0.27504796547E+03  0.28387197264E+03  0.47000000000E+01 0. -1.
        -11    1    6    6    0    0 -0.56848073779E+01 -0.18767186945E+02  0.27304223105E+01  0.19798473343E+02  0.00000000000E+00 0.  1.
         12    1    6    6    0    0 -0.11708865987E+02 -0.72793932091E+02 -0.19536965066E+03  0.20881895146E+03  0.00000000000E+00 0. -1.
         -5    1    3    3    0  503 -0.17799258512E+02 -0.28923637441E+02 -0.67153010072E+02  0.75398986520E+02  0.47000000000E+01 0.  1.
         11    1    4    4    0    0  0.96138058557E+02  0.47466254145E+02 -0.11905889612E+03  0.16022044917E+03  0.00000000000E+00 0. -1.
        -12    1    4    4    0    0  0.82778791439E+01  0.62155767351E+02 -0.10084775342E+03  0.11875239815E+03  0.00000000000E+00 0.  1.
</event>
<event>
12    1  0.8526130E-002  0.4032775E+03  0.7818608E-02  0.1042689E+00
         21   -1    0    0  501  502  0.00000000000E+00  0.00000000000E+00  0.95013764242E+02  0.95013764242E+02  0.00000000000E+00 0.  1.
         21   -1    0    0  502  503 -0.00000000000E+00 -0.00000000000E+00 -0.19214812483E+04  0.19214812483E+04  0.00000000000E+00 0. -1.
         -6    2    1    2    0  503  0.14428392852E+03 -0.33456549023E+03 -0.12474515600E+04  0.13108802340E+04  0.17181290384E+03 0.  0.
        -24    2    3    3    0    0  0.16113985994E+03 -0.21482742780E+03 -0.81465751639E+03  0.86148719861E+03  0.79852652891E+02 0.  0.
          6    2    1    2  501    0 -0.14428392852E+03  0.33456549023E+03 -0.57901592400E+03  0.70561477854E+03  0.17286079998E+03 0.  0.
         24    2    5    5    0    0 -0.15432081680E+03  0.27747671063E+03 -0.39779272478E+03  0.51528925262E+03  0.80471874183E+02 0.  0.
          5    1    5    5  501    0  0.10036888280E+02  0.57088779593E+02 -0.18122319922E+03  0.19032552592E+03  0.47000000000E+01 0. -1.
        -11    1    6    6    0    0 -0.12730074606E+03  0.26737173893E+03 -0.34133165798E+03  0.45188541409E+03  0.00000000000E+00 0.  1.
         12    1    6    6    0    0 -0.27020070739E+02  0.10104971698E+02 -0.56461066803E+02  0.63403838530E+02  0.00000000000E+00 0. -1.
         -5    1    3    3    0  503 -0.16855931422E+02 -0.11973806243E+03 -0.43279404366E+03  0.44939303537E+03  0.47000000000E+01 0.  1.
         13    1    4    4    0    0  0.14696363146E+02 -0.40040505341E+02 -0.23028149829E+03  0.23419819302E+03  0.00000000000E+00 0. -1.
        -14    1    4    4    0    0  0.14644349680E+03 -0.17478692246E+03 -0.58437601809E+03  0.62728900560E+03  0.00000000000E+00 0.  1.
</event>
<event>
12    1  0.8526130E-002  0.2420382E+03  0.7818608E-02  0.1118638E+00
         21   -1    0    0  501  502  0.00000000000E+00  0.00000000000E+00  0.46629905053E+02  0.46629905053E+02  0.00000000000E+00 0. -1.
         21   -1    0    0  502  503 -0.00000000000E+00 -0.00000000000E+00 -0.12721807350E+04  0.12721807350E+04  0.00000000000E+00 0.  1.
         -6    2    1    2    0  503 -0.15120127977E+03  0.74850334369E+02 -0.52458797458E+03  0.57723704208E+03  0.17188851071E+03 0.  0.
        -24    2    3    3    0    0 -0.10326058980E+03  0.11688918176E+03 -0.41414210900E+03  0.44962061027E+03  0.79493248211E+02 0.  0.
          6    2    1    2  501    0  0.15120127977E+03 -0.74850334369E+02 -0.70096285537E+03  0.74157359797E+03  0.17354560509E+03 0.  0.
         24    2    5    5    0    0  0.37789536751E+02 -0.83486956528E+02 -0.42042098932E+03  0.43881520700E+03  0.86063096842E+02 0.  0.
          5    1    5    5  501    0  0.11341174302E+03  0.86366221591E+01 -0.28054186605E+03  0.30275839097E+03  0.47000000000E+01 0. -1.
        -11    1    6    6    0    0  0.46613771677E+02 -0.78001955969E+02 -0.21869713183E+03  0.23682395216E+03  0.00000000000E+00 0.  1.
         12    1    6    6    0    0 -0.88242349259E+01 -0.54850005586E+01 -0.20172385749E+03  0.20199125485E+03  0.00000000000E+00 0. -1.
         -5    1    3    3    0  503 -0.47940689973E+02 -0.42038847390E+02 -0.11044586557E+03  0.12761643181E+03  0.47000000000E+01 0.  1.
         13    1    4    4    0    0 -0.75989385767E+02  0.26777716069E+02 -0.17707850758E+03  0.19454621732E+03  0.00000000000E+00 0. -1.
        -14    1    4    4    0    0 -0.27271204032E+02  0.90111465690E+02 -0.23706360142E+03  0.25507439295E+03  0.00000000000E+00 0.  1.
</event>
<event>
12    1  0.8526130E-002  0.1945993E+03  0.7818608E-02  0.1154708E+00
         21   -1    0    0  503  502  0.00000000000E+00  0.00000000000E+00  0.22255862080E+03  0.22255862080E+03  0.00000000000E+00 0. -1.
         21   -1    0    0  501  503 -0.00000000000E+00 -0.00000000000E+00 -0.42621319839E+03  0.42621319839E+03  0.00000000000E+00 0. -1.
          6    2    1    2  501    0  0.45779296973E+02 -0.77642348610E+02 -0.35405989630E+03  0.40401400280E+03  0.17246688368E+03 0.  0.
         24    2    3    3    0    0  0.83848371399E+02 -0.96217018760E+02 -0.29502528108E+03  0.33120295561E+03  0.79794844727E+02 0.  0.
         -6    2    1    2    0  502 -0.45779296973E+02  0.77642348610E+02  0.15040531870E+03  0.24475781639E+03  0.17076460542E+03 0.  0.
        -24    2    5    5    0    0 -0.61927929109E+02  0.73775133009E+00  0.12510792404E+03  0.16207079456E+03  0.82336730028E+02 0.  0.
          5    1    3    3  501    0 -0.38069074427E+02  0.18574670150E+02 -0.59034615219E+02  0.72811047190E+02  0.47000000000E+01 0. -1.
        -13    1    4    4    0    0  0.40526743914E+01  0.10129020812E+02 -0.61689723621E+02  0.62646973054E+02  0.00000000000E+00 0.  1.
         14    1    4    4    0    0  0.79795697008E+02 -0.10634603957E+03 -0.23333555746E+03  0.26855598256E+03  0.00000000000E+00 0. -1.
         -5    1    5    5    0  502  0.16148632136E+02  0.76904597280E+02  0.25297394661E+02  0.82687021831E+02  0.47000000000E+01 0.  1.
         13    1    6    6    0    0  0.29254340770E+01  0.27685057256E+02  0.60698229679E+02  0.66777957786E+02  0.00000000000E+00 0. -1.
        -14    1    6    6    0    0 -0.64853363186E+02 -0.26947305926E+02  0.64409694358E+02  0.95292836775E+02  0.00000000000E+00 0.  1.
</event>
<event>
12    1  0.8526130E-002  0.2051839E+03  0.7818608E-02  0.1146562E+00
         21   -1    0    0  501  502  0.00000000000E+00  0.00000000000E+00  0.20486903211E+03  0.20486903211E+03  0.00000000000E+00 0. -1.
         21   -1    0    0  502  503 -0.00000000000E+00 -0.00000000000E+00 -0.24539838034E+03  0.24539838034E+03  0.00000000000E+00 0. -1.
         -6    2    1    2    0  503  0.10409736797E+03  0.37200992348E+02 -0.11676862459E+03  0.23137737212E+03  0.16637427923E+03 0.  0.
        -24    2    3    3    0    0  0.62637740968E+02 -0.41375445089E+02 -0.73870151555E+02  0.13260730489E+03  0.80575951561E+02 0.  0.
          6    2    1    2  501    0 -0.10409736797E+03 -0.37200992348E+02  0.76239276362E+02  0.21889004033E+03  0.17285903693E+03 0.  0.
         24    2    5    5    0    0 -0.44196630745E+02 -0.85980567598E+02  0.53872897338E+02  0.13833018562E+03  0.82987655777E+02 0.  0.
          5    1    5    5  501    0 -0.59900737222E+02  0.48779575250E+02  0.22366379025E+02  0.80559854716E+02  0.47000000000E+01 0. -1.
        -11    1    6    6    0    0 -0.22284793395E+02  0.62796628287E+01  0.34493966607E+02  0.41543710886E+02  0.00000000000E+00 0.  1.
         12    1    6    6    0    0 -0.21911837350E+02 -0.92260230427E+02  0.19378930731E+02  0.96786474731E+02  0.00000000000E+00 0. -1.
         -5    1    3    3    0  503  0.41459626999E+02  0.78576437437E+02 -0.42898473036E+02  0.98770067227E+02  0.47000000000E+01 0.  1.
         13    1    4    4    0    0  0.66140529896E+02 -0.44730926631E+00 -0.30383093781E+02  0.72786689498E+02  0.00000000000E+00 0. -1.
        -14    1    4    4    0    0 -0.35027889272E+01 -0.40928135822E+02 -0.43487057774E+02  0.59820615393E+02  0.00000000000E+00 0.  1.
</event>
<event>
12    1  0.8526130E-002  0.1856914E+03  0.7818608E-02  0.1163390E+00
         21   -1    0    0  503  502  0.00000000000E+00  0.00000000000E+00  0.25757374892E+03  0.25757374892E+03  0.00000000000E+00 0.  1.
         21   -1    0    0  501  503 -0.00000000000E+00 -0.00000000000E+00 -0.13630047929E+03  0.13630047929E+03  0.00000000000E+00 0.  1.
          6    2    1    2  501    0  0.24191959326E+02  0.53964400081E+02  0.21991101699E+02  0.18698907709E+03  0.17602243898E+03 0.  0.
         24    2    3    3    0    0  0.60851465140E+02  0.57868869839E+02  0.62751258771E+02  0.13182890436E+03  0.79933926729E+02 0.  0.
         -6    2    1    2    0  502 -0.24191959326E+02 -0.53964400081E+02  0.99282167932E+02  0.20688515113E+03  0.17160160114E+03 0.  0.
        -24    2    5    5    0    0  0.80468998583E+01 -0.95258892542E+02  0.47901852151E+02  0.13335552445E+03  0.79687510042E+02 0.  0.
          5    1    3    3  501    0 -0.36659505813E+02 -0.39044697582E+01 -0.40760157072E+02  0.55160172726E+02  0.47000000000E+01 0. -1.
        -11    1    4    4    0    0  0.67064719551E+02  0.62043055446E+02  0.26950649435E+02  0.95254159188E+02  0.00000000000E+00 0.  1.
         12    1    4    4    0    0 -0.62132544118E+01 -0.41741856070E+01  0.35800609336E+02  0.36574745176E+02  0.00000000000E+00 0. -1.
         -5    1    5    5    0  502 -0.32238859184E+02  0.41294492460E+02  0.51380315781E+02  0.73529626674E+02  0.47000000000E+01 0.  1.
         13    1    6    6    0    0 -0.93193990996E+01  0.12146225128E+02  0.92870628934E+01  0.17906186686E+02  0.00000000000E+00 0. -1.
        -14    1    6    6    0    0  0.17366298958E+02 -0.10740511767E+03  0.38614789258E+02  0.11544933777E+03  0.00000000000E+00 0.  1.
</event>
<event>
12    1  0.8526130E-002  0.1782268E+03  0.7818608E-02  0.1169532E+00
         21   -1    0    0  503  502  0.00000000000E+00  0.00000000000E+00  0.83269948937E+02  0.83269948937E+02  0.00000000000E+00 0.  1.
         21   -1    0    0  501  503 -0.00000000000E+00 -0.00000000000E+00 -0.47646166792E+03  0.47646166792E+03  0.00000000000E+00 0.  1.
          6    2    1    2  501    0 -0.33966539428E+02 -0.34448139116E+02 -0.71622681175E+02  0.19207494169E+03  0.17153009846E+03 0.  0.
         24    2    3    3    0    0 -0.84802765207E+02 -0.70645563013E+01 -0.29040285204E+02  0.12017547782E+03  0.79733245017E+02 0.  0.
         -6    2    1    2    0  502  0.33966539428E+02  0.34448139116E+02 -0.32156903781E+03  0.36765667517E+03  0.17153537427E+03 0.  0.
        -24    2    5    5    0    0  0.67949853230E+02  0.40605397280E+02 -0.12808456821E+03  0.17105782619E+03  0.81173532898E+02 0.  0.
          5    1    3    3  501    0  0.50836225779E+02 -0.27383582814E+02 -0.42582395971E+02  0.71899463877E+02  0.47000000000E+01 0. -1.
        -11    1    4    4    0    0 -0.44225230181E+02  0.17749559603E+02 -0.49219081889E+02  0.68508655458E+02  0.00000000000E+00 0.  1.
         12    1    4    4    0    0 -0.40577535026E+02 -0.24814115904E+02  0.20178796685E+02  0.51666822357E+02  0.00000000000E+00 0. -1.
         -5    1    5    5    0  502 -0.33983313802E+02 -0.61572581639E+01 -0.19348446960E+03  0.19659884898E+03  0.47000000000E+01 0.  1.
         11    1    6    6    0    0 -0.77139277217E+01 -0.40492747571E+01  0.61238935876E+01  0.10649102292E+02  0.00000000000E+00 0. -1.
        -12    1    6    6    0    0  0.75663780952E+02  0.44654672037E+02 -0.13420846180E+03  0.16040872389E+03  0.00000000000E+00 0.  1.
</event>
<event>
12    1  0.8526130E-002  0.2502963E+03  0.7818608E-02  0.1113239E+00
         21   -1    0    0  501  502  0.00000000000E+00  0.00000000000E+00  0.33935270580E+03  0.33935270580E+03  0.00000000000E+00 0.  1.
         21   -1    0    0  502  503 -0.00000000000E+00 -0.00000000000E+00 -0.31900471176E+03  0.31900471176E+03  0.00000000000E+00 0.  1.
         -6    2    1    2    0  503 -0.17034454574E+03 -0.60693725226E+02 -0.20394457785E+03  0.32226906794E+03  0.17193885185E+03 0.  0.
        -24    2    3    3    0    0 -0.18821686367E+03 -0.82954799461E+02 -0.17889474495E+03  0.28399950690E+03  0.79657414145E+02 0.  0.
          6    2    1    2  501    0  0.17034454574E+03  0.60693725226E+02  0.22429257189E+03  0.33608834962E+03  0.17305267522E+03 0.  0.
         24    2    5    5    0    0  0.14559642121E+03 -0.76260779727E+01  0.10633188885E+03  0.19746339545E+03  0.80180091168E+02 0.  0.
          5    1    5    5  501    0  0.24748124530E+02  0.68319803199E+02  0.11796068304E+03  0.13862495417E+03  0.47000000000E+01 0. -1.
        -13    1    6    6    0    0  0.11344379900E+03  0.23600686669E+02  0.98250532330E+02  0.15191989681E+03  0.00000000000E+00 0.  1.
         14    1    6    6    0    0  0.32152622211E+02 -0.31226764642E+02  0.80813565213E+01  0.45543498639E+02  0.00000000000E+00 0. -1.
         -5    1    3    3    0  503  0.17872317926E+02  0.22261074235E+02 -0.25049832896E+02  0.38269561041E+02  0.47000000000E+01 0.  1.
         11    1    4    4    0    0 -0.72717111672E+02 -0.39343642565E+01 -0.27526864461E+02  0.77852333421E+02  0.00000000000E+00 0. -1.
        -12    1    4    4    0    0 -0.11549975199E+03 -0.79020435205E+02 -0.15136788049E+03  0.20614717348E+03  0.00000000000E+00 0.  1.
</event>
<event>
12    1  0.8526130E-002  0.1969140E+03  0.7818608E-02  0.1152433E+00
         21   -1    0    0  501  502  0.00000000000E+00  0.00000000000E+00  0.37891438924E+03  0.37891438924E+03  0.00000000000E+00 0. -1.
         21   -1    0    0  502  503 -0.00000000000E+00 -0.00000000000E+00 -0.10965367581E+03  0.10965367581E+03  0.00000000000E+00 0. -1.
         -6    2    1    2    0  503  0.81408964032E+02  0.51111369428E+02  0.70749847922E+02  0.20895815465E+03  0.17151728164E+03 0.  0.
        -24    2    3    3    0    0  0.13722071082E+02 -0.11577725655E+02 -0.13140335772E+02  0.84173976804E+02  0.81180360807E+02 0.  0.
          6    2    1    2  501    0 -0.81408964032E+02 -0.51111369428E+02  0.19851086550E+03  0.27960991040E+03  0.17185850797E+03 0.  0.
         24    2    5    5    0    0 -0.95094296098E+02  0.94875469649E+00  0.74608666319E+02  0.14443820552E+03  0.79070328432E+02 0.  0.
          5    1    5    5  501    0  0.13685332066E+02 -0.52060124125E+02  0.12390219918E+03  0.13517170488E+03  0.47000000000E+01 0. -1.
        -11    1    6    6    0    0  0.10684857934E+02  0.11469082283E+02  0.22229917245E+01  0.15831858062E+02  0.00000000000E+00 0.  1.
         12    1    6    6    0    0 -0.10577915403E+03 -0.10520327587E+02  0.72385674594E+02  0.12860634746E+03  0.00000000000E+00 0. -1.
         -5    1    3    3    0  503  0.67686892950E+02  0.62689095083E+02  0.83890183694E+02  0.12478417784E+03  0.47000000000E+01 0.  1.
         13    1    4    4    0    0  0.19820884474E+02  0.32754105232E+02 -0.81995540505E+01  0.39152669864E+02  0.00000000000E+00 0. -1.
        -14    1    4    4    0    0 -0.60988133922E+01 -0.44331830887E+02 -0.49407817216E+01  0.45021306940E+02  0.00000000000E+00 0.  1.
</event>
<event>
12    1  0.8526130E-002  0.2283988E+03  0.7818608E-02  0.1128084E+00
         21   -1    0    0  503  502  0.00000000000E+00  0.00000000000E+00  0.74848186675E+02  0.74848186675E+02  0.00000000000E+00 0. -1.
         21   -1    0    0  501  503 -0.00000000000E+00 -0.00000000000E+00 -0.10448293762E+04  0.10448293762E+04  0.00000000000E+00 0. -1.
          6    2    1    2  501    0  0.84333534031E+02 -0.12545838656E+03 -0.15825176842E+03  0.27642749557E+03  0.16886854764E+03 0.  0.
         24    2    3    3    0    0  0.16732737392E+02 -0.52275640380E+02 -0.14735588471E+03  0.17609608311E+03  0.79267563674E+02 0.  0.
         -6    2    1    2    0  502 -0.84333534031E+02  0.12545838656E+03 -0.81172942106E+03  0.84325006726E+03  0.17121352513E+03 0.  0.
        -24    2    5    5    0    0 -0.12156035312E+03  0.71649606209E+02 -0.59379495596E+03  0.61565669745E+03  0.80809243678E+02 0.  0.
          5    1    3    3  501    0  0.67600796639E+02 -0.73182746178E+02 -0.10895883705E+02  0.10033141246E+03  0.47000000000E+01 0. -1.
        -11    1    4    4    0    0 -0.17201325146E+01 -0.64223793288E+02 -0.13796556900E+03  0.15219117159E+03  0.00000000000E+00 0.  1.
         12    1    4    4    0    0  0.18452869907E+02  0.11948152908E+02 -0.93903157079E+01  0.23904911521E+02  0.00000000000E+00 0. -1.
         -5    1    5    5    0  502  0.37226819091E+02  0.53808780349E+02 -0.21793446510E+03  0.22759336981E+03  0.47000000000E+01 0.  1.
         13    1    6    6    0    0 -0.27074667826E+01  0.37127142970E+02 -0.17709835401E+03  0.18096845613E+03  0.00000000000E+00 0. -1.
        -14    1    6    6    0    0 -0.11885288634E+03  0.34522463239E+02 -0.41669660195E+03  0.43468824131E+03  0.00000000000E+00 0.  1.
</event>
<event>
12    1  0.8526130E-002  0.2072223E+03  0.7818608E-02  0.1145395E+00
         21   -1    0    0  503  502  0.00000000000E+00  0.00000000000E+00  0.13267690888E+04  0.13267690888E+04  0.00000000000E+00 0.  1.
         21   -1    0    0  501  503 -0.00000000000E+00 -0.00000000000E+00 -0.14035125416E+03  0.14035125416E+03  0.00000000000E+00 0.  1.
          6    2    1    2  501    0 -0.98065131636E+02  0.39967813710E+01 -0.51273052089E+02  0.21347136411E+03  0.18250576188E+03 0.  0.
         24    2    3    3    0    0 -0.39818172315E+02  0.72425568156E+02 -0.43965133091E+02  0.12319012126E+03  0.80074485813E+02 0.  0.
         -6    2    1    2    0  502  0.98065131636E+02 -0.39967813710E+01  0.12376908868E+04  0.12536489789E+04  0.17356349494E+03 0.  0.
        -24    2    5    5    0    0  0.13596272174E+03 -0.15606682528E+02  0.10414800349E+04  0.10534195966E+04  0.79263820016E+02 0.  0.
          5    1    3    3  501    0 -0.58246959321E+02 -0.68428786785E+02 -0.73079189982E+01  0.90281242853E+02  0.47000000000E+01 0. -1.
        -11    1    4    4    0    0 -0.61088989963E+02  0.34001808686E+02 -0.35697176440E+02  0.78500166206E+02  0.00000000000E+00 0.  1.
         12    1    4    4    0    0  0.21270817648E+02  0.38423759470E+02 -0.82679566508E+01  0.44689955050E+02  0.00000000000E+00 0. -1.
         -5    1    5    5    0  502 -0.37897590103E+02  0.11609901157E+02  0.19621085183E+03  0.20022938225E+03  0.47000000000E+01 0.  1.
         11    1    6    6    0    0  0.24211760405E+02 -0.32057531844E+02  0.17178159056E+03  0.17641657957E+03  0.00000000000E+00 0. -1.
        -12    1    6    6    0    0  0.11175096133E+03  0.16450849316E+02  0.86969844437E+03  0.87700301707E+03  0.00000000000E+00 0.  1.
</event>
<event>
12    1  0.8526130E-002  0.1905264E+03  0.7818608E-02  0.1159565E+00
         21   -1    0    0  501  502  0.00000000000E+00  0.00000000000E+00  0.13507613979E+03  0.13507613979E+03  0.00000000000E+00 0.  1.
         21   -1    0    0  502  503 -0.00000000000E+00 -0.00000000000E+00 -0.40664716204E+03  0.40664716204E+03  0.00000000000E+00 0.  1.
         -6    2    1    2    0  503 -0.50694456869E+02  0.45887974369E+02 -0.29732288216E+03  0.34946440814E+03  0.17043720882E+03 0.  0.
        -24    2    3    3    0    0 -0.75183707696E+02  0.65103503951E+02 -0.14137416864E+03  0.19036993548E+03  0.79768418843E+02 0.  0.
          6    2    1    2  501    0  0.50694456869E+02 -0.45887974369E+02  0.25751859907E+02  0.19225889369E+03  0.17783332018E+03 0.  0.
         24    2    5    5    0    0 -0.27233930269E+02 -0.66674936254E+02  0.37013540669E+01  0.10851376778E+03  0.81082079973E+02 0.  0.
          5    1    5    5  501    0  0.77928387138E+02  0.20786961886E+02  0.22050505840E+02  0.83745125913E+02  0.47000000000E+01 0. -1.
        -11    1    6    6    0    0 -0.24382673670E+02  0.13201061032E+02  0.67209501701E+01  0.28529878353E+02  0.00000000000E+00 0.  1.
         12    1    6    6    0    0 -0.28512565992E+01 -0.79875997286E+02 -0.30195961032E+01  0.79983889423E+02  0.00000000000E+00 0. -1.
         -5    1    3    3    0  503  0.24489250827E+02 -0.19215529583E+02 -0.15594871352E+03  0.15909447266E+03  0.47000000000E+01 0.  1.
         13    1    4    4    0    0 -0.10050857569E+02  0.60215616024E+02 -0.55722326730E+02  0.82655416321E+02  0.00000000000E+00 0. -1.
        -14    1    4    4    0    0 -0.65132850127E+02  0.48878879270E+01 -0.85651841914E+02  0.10771451916E+03  0.00000000000E+00 0.  1.
</event>
<event>
12    1  0.8526130E-002  0.2058025E+03  0.7818608E-02  0.1145587E+00
         21   -1    0    0  501  502  0.00000000000E+00  0.00000000000E+00  0.51360679644E+02  0.51360679644E+02  0.00000000000E+00 0. -1.
         21   -1    0    0  502  503 -0.00000000000E+00 -0.00000000000E+00 -0.82455129755E+03  0.82455129755E+03  0.00000000000E+00 0. -1.
         -6    2    1    2    0  503  0.59057241118E+02 -0.88898288849E+02 -0.32944596974E+03  0.38676579956E+03  0.17222796882E+03 0.  0.
        -24    2    3    3    0    0  0.50289228497E+02  0.16204849213E+02 -0.17662632319E+03  0.20102543764E+03  0.80142154284E+02 0.  0.
          6    2    1    2  501    0 -0.59057241118E+02  0.88898288849E+02 -0.44374464817E+03  0.48914617763E+03  0.17596592519E+03 0.  0.
         24    2    5    5    0    0 -0.43802603411E+02  0.43941321572E+02 -0.10375267240E+03  0.14582349201E+03  0.81549776112E+02 0.  0.
          5    1    5    5  501    0 -0.15254637707E+02  0.44956967276E+02 -0.33999197577E+03  0.34332268562E+03  0.47000000000E+01 0. -1.
        -13    1    6    6    0    0 -0.18871272446E+00  0.37430133757E+02 -0.93265619686E+02  0.10049639964E+03  0.00000000000E+00 0.  1.
         14    1    6    6    0    0 -0.43613890687E+02  0.65111878152E+01 -0.10487052712E+02  0.45327092364E+02  0.00000000000E+00 0. -1.
         -5    1    3    3    0  503  0.87680126204E+01 -0.10510313806E+03 -0.15281964654E+03  0.18574036192E+03  0.47000000000E+01 0.  1.
         13    1    4    4    0    0  0.70373054080E+02  0.15983880423E+02 -0.15770199922E+03  0.17342944309E+03  0.00000000000E+00 0. -1.
        -14    1    4    4    0    0 -0.20083825583E+02  0.22096879014E+00 -0.18924323974E+02  0.27595994548E+02  0.00000000000E+00 0.  1.
</event>
<event>
12    1  0.8526130E-002  0.2143669E+03  0.7818608E-02  0.1138183E+00
         21   -1    0    0  503  502  0.00000000000E+00  0.00000000000E+00  0.39254054524E+03  0.39254054524E+03  0.00000000000E+00 0. -1.
         21   -1    0    0  501  503 -0.00000000000E+00 -0.00000000000E+00 -0.12256777412E+03  0.12256777412E+03  0.00000000000E+00 0.  1.
          6    2    1    2  501    0 -0.12839079683E+03  0.62026657022E+01  0.79964716570E+02  0.22865375346E+03  0.17136368724E+03 0.  0.
         24    2    3    3    0    0 -0.53297490136E+02  0.40305586849E+02 -0.81964826777E+01  0.10783777359E+03  0.84241559209E+02 0.  0.
         -6    2    1    2    0  502  0.12839079683E+03 -0.62026657022E+01  0.19000805455E+03  0.28645456589E+03  0.17155316306E+03 0.  0.
        -24    2    5    5    0    0  0.10020950184E+03 -0.50343414024E+02  0.18876958807E+03  0.23385974819E+03  0.80498576689E+02 0.  0.
          5    1    3    3  501    0 -0.75093306690E+02 -0.34102921147E+02  0.88161199247E+02  0.12081597987E+03  0.47000000000E+01 0. -1.
        -11    1    4    4    0    0  0.18958026188E+02  0.21690467523E+02 -0.15766252569E+02  0.32839882131E+02  0.00000000000E+00 0.  1.
         12    1    4    4    0    0 -0.72255516323E+02  0.18615119326E+02  0.75697698908E+01  0.74997891456E+02  0.00000000000E+00 0. -1.
         -5    1    5    5    0  502  0.28181294990E+02  0.44140748322E+02  0.12384664778E+01  0.52594817700E+02  0.47000000000E+01 0.  1.
         13    1    6    6    0    0  0.59790042129E+02 -0.38325656446E+02  0.45098894836E+02  0.84128564680E+02  0.00000000000E+00 0. -1.
        -14    1    6    6    0    0  0.40419459707E+02 -0.12017757578E+02  0.14367069324E+03  0.14973118351E+03  0.00000000000E+00 0.  1.
</event>
<event>
12    1  0.8526130E-002  0.1761860E+03  0.7818608E-02  0.1171582E+00
         21   -1    0    0  501  502  0.00000000000E+00  0.00000000000E+00  0.26793846073E+03  0.26793846073E+03  0.00000000000E+00 0.  1.
         21   -1    0    0  502  503 -0.00000000000E+00 -0.00000000000E+00 -0.34747830055E+03  0.34747830055E+03  0.00000000000E+00 0.  1.
         -6    2    1    2    0  503  0.32695019058E+02  0.15181502905E+02 -0.29105537951E+03  0.34022749301E+03  0.17245889583E+03 0.  0.
        -24    2    3    3    0    0 -0.70763639797E+01 -0.27099171797E+02 -0.69076510453E+02  0.11073647647E+03  0.81893607107E+02 0.  0.
          6    2    1    2  501    0 -0.32695019058E+02 -0.15181502905E+02  0.21151553970E+03  0.27518926828E+03  0.17231038141E+03 0.  0.
         24    2    5    5    0    0 -0.66711740857E+02 -0.21557329889E+02  0.66460907306E+02  0.12598898373E+03  0.80876430324E+02 0.  0.
          5    1    5    5  501    0  0.34016721799E+02  0.63758269834E+01  0.14505463239E+03  0.14920028455E+03  0.47000000000E+01 0. -1.
        -11    1    6    6    0    0 -0.71810008098E+02  0.11253493898E+02  0.36825160324E+02  0.81482579861E+02  0.00000000000E+00 0.  1.
         12    1    6    6    0    0  0.50982672409E+01 -0.32810823787E+02  0.29635746982E+02  0.44506403872E+02  0.00000000000E+00 0. -1.
         -5    1    3    3    0  503  0.39771383038E+02  0.42280674702E+02 -0.22197886906E+03  0.22949101654E+03  0.47000000000E+01 0.  1.
         13    1    4    4    0    0 -0.38642920141E+02 -0.29609519694E+01 -0.10857182123E+02  0.40248241170E+02  0.00000000000E+00 0. -1.
        -14    1    4    4    0    0  0.31566556161E+02 -0.24138219827E+02 -0.58219328330E+02  0.70488235299E+02  0.00000000000E+00 0.  1.
</event>
<event>
12    1  0.8526130E-002  0.1913028E+03  0.7818608E-02  0.1157324E+00
         21   -1    0    0  503  502  0.00000000000E+00  0.00000000000E+00  0.60019630287E+02  0.60019630287E+02  0.00000000000E+00 0.  1.
         21   -1    0    0  501  503 -0.00000000000E+00 -0.00000000000E+00 -0.81093851259E+03  0.81093851259E+03  0.00000000000E+00 0.  1.
          6    2    1    2  501    0  0.42373149218E+02  0.71564872516E+02 -0.59272427393E+03  0.62283128690E+03  0.17227806674E+03 0.  0.
         24    2    3    3    0    0  0.76674349824E+02  0.65469589508E+02 -0.27864307369E+03  0.30678886065E+03  0.79449477264E+02 0.  0.
         -6    2    1    2    0  502 -0.42373149218E+02 -0.71564872516E+02 -0.15819460837E+03  0.24812685598E+03  0.17211736631E+03 0.  0.
        -24    2    5    5    0    0 -0.20574023511E+02 -0.39089125107E+02 -0.18024273029E+03  0.20298169310E+03  0.82236705699E+02 0.  0.
          5    1    3    3  501    0 -0.34301200605E+02  0.60952830080E+01 -0.31408120025E+03  0.31604242624E+03  0.47000000000E+01 0. -1.
        -13    1    4    4    0    0  0.33093208180E+02 -0.62795478770E+01 -0.14582759249E+03  0.14966723048E+03  0.00000000000E+00 0.  1.
         14    1    4    4    0    0  0.43581141644E+02  0.71749137385E+02 -0.13281548120E+03  0.15712163017E+03  0.00000000000E+00 0. -1.
         -5    1    5    5    0  502 -0.21799125708E+02 -0.32475747409E+02  0.22048121921E+02  0.45145162882E+02  0.47000000000E+01 0.  1.
         11    1    6    6    0    0 -0.10263698853E+02  0.19483387357E+02 -0.13216589025E+02  0.25683148609E+02  0.00000000000E+00 0. -1.
        -12    1    6    6    0    0 -0.10310324658E+02 -0.58572512464E+02 -0.16702614127E+03  0.17729854449E+03  0.00000000000E+00 0.  1.
</event>
<event>
12    1  0.8526130E-002  0.2076705E+03  0.7818608E-02  0.1143527E+00
         21   -1    0    0  501  502  0.00000000000E+00  0.00000000000E+00  0.51708275883E+02  0.51708275883E+02  0.00000000000E+00 0.  1.
         21   -1    0    0  502  503 -0.00000000000E+00 -0.00000000000E+00 -0.10591762789E+04  0.10591762789E+04  0.00000000000E+00 0.  1.
         -6    2    1    2    0  503  0.29228625117E+02  0.11221100001E+03 -0.76049133485E+03  0.78820123884E+03  0.17166392016E+03 0.  0.
        -24    2    3    3    0    0  0.42147695120E+01  0.12758572287E+03 -0.39440542510E+03  0.42090972193E+03  0.72893577976E+02 0.  0.
          6    2    1    2  501    0 -0.29228625117E+02 -0.11221100001E+03 -0.24697666815E+03  0.32268331592E+03  0.17228298440E+03 0.  0.
         24    2    5    5    0    0 -0.87235470547E+02 -0.63551522738E+02 -0.16675609114E+03  0.21227511957E+03  0.74861933531E+02 0.  0.
          5    1    5    5  501    0  0.58006845430E+02 -0.48659477277E+02 -0.80220577007E+02  0.11040819635E+03  0.47000000000E+01 0. -1.
        -11    1    6    6    0    0  0.34536410369E+01 -0.79942155690E+01  0.51590825681E+01  0.10121820583E+02  0.00000000000E+00 0.  1.
         12    1    6    6    0    0 -0.90689111584E+02 -0.55557307169E+02 -0.17191517371E+03  0.20215329899E+03  0.00000000000E+00 0. -1.
         -5    1    3    3    0  503  0.25013855605E+02 -0.15374722854E+02 -0.36608590975E+03  0.36729151691E+03  0.47000000000E+01 0.  1.
         13    1    4    4    0    0 -0.21922771869E+02  0.14702184206E+02 -0.39000329804E+02  0.47093395202E+02  0.00000000000E+00 0. -1.
        -14    1    4    4    0    0  0.26137541381E+02  0.11288353866E+03 -0.35540509529E+03  0.37381632673E+03  0.00000000000E+00 0.  1.
</event>
<event>
12    1  0.8526130E-002  0.1952021E+03  0.7818608E-02  0.1155714E+00
         21   -1    0    0  503  502  0.00000000000E+00  0.00000000000E+00  0.31685870031E+03  0.31685870031E+03  0.00000000000E+00 0. -1.
         21   -1    0    0  501  503 -0.00000000000E+00 -0.00000000000E+00 -0.45751550234E+03  0.45751550234E+03  0.00000000000E+00 0. -1.
          6    2    1    2  501    0  0.11137161042E+02  0.73501752819E+02 -0.40485212759E+03  0.44588823695E+03  0.17141916641E+03 0.  0.
         24    2    3    3    0    0 -0.25395135174E+02  0.83312059836E+02 -0.16850259225E+03  0.20648472059E+03  0.81590465353E+02 0.  0.
         -6    2    1    2    0  502 -0.11137161042E+02 -0.73501752819E+02  0.26419532556E+03  0.32848596570E+03  0.18049187126E+03 0.  0.
        -24    2    5    5    0    0 -0.32645874531E+02 -0.79145638203E+02  0.27814929756E+03  0.30181610382E+03  0.79975893984E+02 0.  0.
          5    1    3    3  501    0  0.36532296216E+02 -0.98103070167E+01 -0.23634953534E+03  0.23940351637E+03  0.47000000000E+01 0. -1.
        -11    1    4    4    0    0 -0.14518238838E+02  0.40212493776E+02 -0.12899013675E+02  0.44656561314E+02  0.00000000000E+00 0.  1.
         12    1    4    4    0    0 -0.10876896336E+02  0.43099566060E+02 -0.15560357857E+03  0.16182815927E+03  0.00000000000E+00 0. -1.
         -5    1    5    5    0  502  0.21508713489E+02  0.56438853843E+01 -0.13953972004E+02  0.26669861883E+02  0.47000000000E+01 0.  1.
         11    1    6    6    0    0 -0.28920373775E+02  0.41248435231E+01  0.40228049321E+02  0.49716177503E+02  0.00000000000E+00 0. -1.
        -12    1    6    6    0    0 -0.37255007562E+01 -0.83270481726E+02  0.23792124824E+03  0.25209992631E+03  0.00000000000E+00 0.  1.
</event>
<event>
12    1  0.8526130E-002  0.2089869E+03  0.7818608E-02  0.1142469E+00
         21   -1    0    0  503  502  0.00000000000E+00  0.00000000000E+00  0.45495744495E+03  0.45495744495E+03  0.00000000000E+00 0. -1.
         21   -1    0    0  501  503 -0.00000000000E+00 -0.00000000000E+00 -0.14266376678E+03  0.14266376678E+03  0.00000000000E+00 0. -1.
          6    2    1    2  501    0  0.44676365101E+02  0.10923855929E+03  0.32733312884E+03  0.38809387329E+03  0.17187447981E+03 0.  0.
         24    2    3    3    0    0 -0.16812947422E+02  0.25065877459E+02  0.79924155041E+02  0.11958080798E+03  0.83670339219E+02 0.  0.
         -6    2    1    2    0  502 -0.44676365101E+02 -0.10923855929E+03 -0.15039450670E+02  0.20952733845E+03  0.17247167897E+03 0.  0.
        -24    2    5    5    0    0 -0.41955645460E+02 -0.21130360363E+02  0.45236732213E+02  0.10263596716E+03  0.79252832742E+02 0.  0.
          5    1    3    3  501    0  0.61489312524E+02  0.84172681833E+02  0.24740897380E+03  0.26851306530E+03  0.47000000000E+01 0. -1.
        -11    1    4    4    0    0  0.79701948092E+01  0.16337960256E+02 -0.13428840688E+02  0.22600590984E+02  0.00000000000E+00 0.  1.
         12    1    4    4    0    0 -0.24783142232E+02  0.87279172032E+01  0.93352995729E+02  0.96980216999E+02  0.00000000000E+00 0. -1.
         -5    1    5    5    0  502 -0.27207196411E+01 -0.88108198929E+02 -0.60276182883E+02  0.10689137129E+03  0.47000000000E+01 0.  1.
         11    1    6    6    0    0 -0.41225100139E+02  0.21578543087E+02  0.10799534801E+02  0.47767900887E+02  0.00000000000E+00 0. -1.
        -12    1    6    6    0    0 -0.73054532118E+00 -0.42708903451E+02  0.34437197413E+02  0.54868066269E+02  0.00000000000E+00 0.  1.
</event>
<event>
12    1  0.8526130E-002  0.1757933E+03  0.7818608E-02  0.1172015E+00
         21   -1    0    0  503  502  0.00000000000E+00  0.00000000000E+00  0.91346225896E+02  0.91346225896E+02  0.00000000000E+00 0. -1.
         21   -1    0    0  501  503 -0.00000000000E+00 -0.00000000000E+00 -0.43185659263E+03  0.43185659263E+03  0.00000000000E+00 0. -1.
          6    2    1    2  501    0 -0.26880513930E+02  0.20790189974E+02 -0.29227887401E+03  0.34091308712E+03  0.17216271009E+03 0.  0.
         24    2    3    3    0    0  0.20964126360E+02 -0.22370746487E+02 -0.68225888552E+02  0.10773117029E+03  0.77532498295E+02 0.  0.
         -6    2    1    2    0  502  0.26880513930E+02 -0.20790189974E+02 -0.48231492717E+02  0.18228973140E+03  0.17247746304E+03 0.  0.
        -24    2    5    5    0    0  0.40377024538E+02 -0.47890960937E+02  0.26001123748E+02  0.10198295129E+03  0.76161773004E+02 0.  0.
          5    1    3    3  501    0 -0.47844640290E+02  0.43160936461E+02 -0.22405298546E+03  0.23318191683E+03  0.47000000000E+01 0. -1.
        -11    1    4    4    0    0 -0.89401606930E+01 -0.32629632913E+02 -0.14662423869E+01  0.33863982105E+02  0.00000000000E+00 0.  1.
         12    1    4    4    0    0  0.29904287053E+02  0.10258886427E+02 -0.66759646165E+02  0.73867188189E+02  0.00000000000E+00 0. -1.
         -5    1    5    5    0  502 -0.13496510607E+02  0.27100770963E+02 -0.74232616464E+02  0.80306780115E+02  0.47000000000E+01 0.  1.
         11    1    6    6    0    0  0.99603010363E+01 -0.23553565231E+02  0.50048487840E+02  0.56203462232E+02  0.00000000000E+00 0. -1.
        -12    1    6    6    0    0  0.30416723501E+02 -0.24337395707E+02 -0.24047364092E+02  0.45779489055E+02  0.00000000000E+00 0.  1.
</event>
<event>
12    1  0.8526130E-002  0.2289539E+03  0.7818608E-02  0.1127589E+00
         21   -1    0    0  503  502  0.00000000000E+00  0.00000000000E+00  0.71433328944E+02  0.71433328944E+02  0.00000000000E+00 0.  1.
         21   -1    0    0  501  503 -0.00000000000E+00 -0.00000000000E+00 -0.15342325335E+04  0.15342325335E+04  0.00000000000E+00 0.  1.
          6    2    1    2  501    0  0.63495608090E+02 -0.13399570602E+03 -0.13117432486E+04  0.13313707475E+04  0.17289064597E+03 0.  0.
         24    2    3    3    0    0  0.20652918440E+01 -0.14718466849E+03 -0.10019520279E+04  0.10152373533E+04  0.71633967061E+02 0.  0.
         -6    2    1    2    0  502 -0.63495608090E+02  0.13399570602E+03 -0.15105595597E+03  0.27429511500E+03  0.17445161736E+03 0.  0.
        -24    2    5    5    0    0 -0.76950076541E+02  0.15964732590E+03 -0.10900359596E+03  0.22301627622E+03  0.80286316274E+02 0.  0.
          5    1    3    3  501    0  0.61430316246E+02  0.13188962469E+02 -0.30979122067E+03  0.31613339413E+03  0.47000000000E+01 0. -1.
        -13    1    4    4    0    0  0.16547337080E+02 -0.22987122115E+02 -0.80439960722E+02  0.85280768222E+02  0.00000000000E+00 0.  1.
         14    1    4    4    0    0 -0.14482045236E+02 -0.12419754637E+03 -0.92151206721E+03  0.92995658510E+03  0.00000000000E+00 0. -1.
         -5    1    5    5    0  502  0.13454468451E+02 -0.25651619883E+02 -0.42052360004E+02  0.51278838772E+02  0.47000000000E+01 0.  1.
         11    1    6    6    0    0  0.16107391618E+01  0.49469372669E+02 -0.62945331676E+02  0.80074515876E+02  0.00000000000E+00 0. -1.
        -12    1    6    6    0    0 -0.78560815703E+02  0.11017795323E+03 -0.46058264288E+02  0.14294176035E+03  0.00000000000E+00 0.  1.
</event>
<event>
12    1  0.8526130E-002  0.2078895E+03  0.7818608E-02  0.1143644E+00
         21   -1    0    0  501  502  0.00000000000E+00  0.00000000000E+00  0.19484820210E+03  0.19484820210E+03  0.00000000000E+00 0. -1.
         21   -1    0    0  502  503 -0.00000000000E+00 -0.00000000000E+00 -0.27125655568E+03  0.27125655568E+03  0.00000000000E+00 0. -1.
         -6    2    1    2    0  503 -0.11268468729E+03  0.12727810470E+02 -0.13964499211E+03  0.24881021080E+03  0.17188938673E+03 0.  0.
        -24    2    3    3    0    0 -0.52540561740E+02  0.65515370623E+02 -0.11906241443E+03  0.16604805249E+03  0.79644979684E+02 0.  0.
          6    2    1    2  501    0  0.11268468729E+03 -0.12727810470E+02  0.63236638524E+02  0.21729454697E+03  0.17423608060E+03 0.  0.
         24    2    5    5    0    0  0.80941066928E+01 -0.90582956468E+01 -0.20563961524E+02  0.83140585206E+02  0.79636129437E+02 0.  0.
          5    1    5    5  501    0  0.10459058060E+03 -0.36695148236E+01  0.83800600048E+02  0.13415396177E+03  0.47000000000E+01 0. -1.
        -13    1    6    6    0    0  0.15474465636E+02  0.70256285956E+01 -0.47760200666E+02  0.50693740358E+02  0.00000000000E+00 0.  1.
         14    1    6    6    0    0 -0.73803589429E+01 -0.16083924242E+02  0.27196239141E+02  0.32446844848E+02  0.00000000000E+00 0. -1.
         -5    1    3    3    0  503 -0.60144125552E+02 -0.52787560153E+02 -0.20582577674E+02  0.82762158315E+02  0.47000000000E+01 0.  1.
         13    1    4    4    0    0 -0.49860977313E+02  0.27037343477E+01 -0.71520177522E+02  0.87227077395E+02  0.00000000000E+00 0. -1.
        -14    1    4    4    0    0 -0.26795844273E+01  0.62811636276E+02 -0.47542236912E+02  0.78820975095E+02  0.00000000000E+00 0.  1.
</event>
<event>
12    1  0.8526130E-002  0.2216464E+03  0.7818608E-02  0.1132971E+00
         21   -1    0    0  503  502  0.00000000000E+00  0.00000000000E+00  0.11103874545E+03  0.11103874545E+03  0.00000000000E+00 0.  1.
         21   -1    0    0  501  503 -0.00000000000E+00 -0.00000000000E+00 -0.82557910200E+03  0.82557910200E+03  0.00000000000E+00 0.  1.
          6    2    1    2  501    0 -0.10679218839E+03 -0.87442679029E+02 -0.67696543337E+03  0.71180900055E+03  0.17128649003E+03 0.  0.
         24    2    3    3    0    0 -0.17948881680E+02 -0.57190273984E+02 -0.51346060494E+03  0.52322411230E+03  0.80800922440E+02 0.  0.
         -6    2    1    2    0  502  0.10679218839E+03  0.87442679029E+02 -0.37574923169E+02  0.22480884690E+03  0.17342534179E+03 0.  0.
        -24    2    5    5    0    0 -0.26412721305E+01  0.71418356738E+02  0.37450610012E+01  0.10664839548E+03  0.79071466274E+02 0.  0.
          5    1    3    3  501    0 -0.88843306714E+02 -0.30252405045E+02 -0.16350482843E+03  0.18858488826E+03  0.47000000000E+01 0. -1.
        -13    1    4    4    0    0 -0.44737582721E+02 -0.35307172450E+02 -0.41434178602E+03  0.41824294779E+03  0.00000000000E+00 0.  1.
         14    1    4    4    0    0  0.26788701041E+02 -0.21883101533E+02 -0.99118818925E+02  0.10498116451E+03  0.00000000000E+00 0. -1.
         -5    1    5    5    0  502  0.10943346053E+03  0.16024322291E+02 -0.41319984170E+02  0.11816045142E+03  0.47000000000E+01 0.  1.
         11    1    6    6    0    0  0.14714609299E+02 -0.12057824573E+02  0.93608883477E+01  0.21202289756E+02  0.00000000000E+00 0. -1.
        -12    1    6    6    0    0 -0.17355881430E+02  0.83476181310E+02 -0.56158273465E+01  0.85446105722E+02  0.00000000000E+00 0.  1.
</event>
<event>
12    1  0.8526130E-002  0.1809470E+03  0.7818608E-02  0.1168800E+00
         21   -1    0    0  503  502  0.00000000000E+00  0.00000000000E+00  0.19700048442E+03  0.19700048442E+03  0.00000000000E+00 0. -1.
         21   -1    0    0  501  503 -0.00000000000E+00 -0.00000000000E+00 -0.25862945255E+03  0.25862945255E+03  0.00000000000E+00 0. -1.
          6    2    1    2  501    0  0.11006129141E+02  0.53883746937E+02 -0.17250175586E+03  0.24999732918E+03  0.17238682015E+03 0.  0.
         24    2    3    3    0    0 -0.57313680693E+01  0.45524812334E+02 -0.19784203254E+03  0.21815026930E+03  0.79641151674E+02 0.  0.
         -6    2    1    2    0  502 -0.11006129141E+02 -0.53883746937E+02  0.11087278773E+03  0.20563260778E+03  0.16421754249E+03 0.  0.
        -24    2    5    5    0    0 -0.62041925951E+02 -0.42948267319E+02  0.36736460606E+02  0.11484427004E+03  0.78395692366E+02 0.  0.
          5    1    3    3  501    0  0.16737497211E+02  0.83589346033E+01  0.25340276684E+02  0.31847059880E+02  0.47000000000E+01 0. -1.
        -13    1    4    4    0    0 -0.16453343843E+02 -0.78926743794E+01 -0.67724577430E+01  0.19464660705E+02  0.00000000000E+00 0.  1.
         14    1    4    4    0    0  0.10721975774E+02  0.53417486713E+02 -0.19106957480E+03  0.19868560860E+03  0.00000000000E+00 0. -1.
         -5    1    5    5    0  502  0.51035796810E+02 -0.10935479618E+02  0.74136327125E+02  0.90788337743E+02  0.47000000000E+01 0.  1.
         13    1    6    6    0    0 -0.22044915814E+01  0.10777266722E+02  0.32504679612E+02  0.34315644506E+02  0.00000000000E+00 0. -1.
        -14    1    6    6    0    0 -0.59837434370E+02 -0.53725534042E+02  0.42317809937E+01  0.80528625534E+02  0.00000000000E+00 0.  1.
</event>
<event>
12    1  0.8526130E-002  0.2053915E+03  0.7818608E-02  0.1145294E+00
         21   -1    0    0  503  502  0.00000000000E+00  0.00000000000E+00  0.16210426740E+04  0.16210426740E+04  0.00000000000E+00 0. -1.
         21   -1    0    0  501  503 -0.00000000000E+00 -0.00000000000E+00 -0.39999589845E+02  0.39999589845E+02  0.00000000000E+00 0. -1.
          6    2    1    2  501    0 -0.81935658638E+02 -0.76045448553E+02  0.29947879188E+03  0.36314352582E+03  0.17230586512E+03 0.  0.
         24    2    3    3    0    0 -0.41715686030E+02  0.13691887483E+02  0.22136161908E+03  0.23746608806E+03  0.73902031989E+02 0.  0.
         -6    2    1    2    0  502  0.81935658638E+02  0.76045448553E+02  0.12815642923E+04  0.12978987380E+04  0.17215613999E+03 0.  0.
        -24    2    5    5    0    0  0.56406633326E+02 -0.22865843950E+02  0.72061863290E+03  0.72770815788E+03  0.81014775551E+02 0.  0.
          5    1    3    3  501    0 -0.40219972607E+02 -0.89737336036E+02  0.78117172797E+02  0.12567743776E+03  0.47000000000E+01 0. -1.
        -13    1    4    4    0    0 -0.45616804258E+02 -0.34616313222E+01  0.61551653458E+02  0.76690819304E+02  0.00000000000E+00 0.  1.
         14    1    4    4    0    0  0.39011182275E+01  0.17153518806E+02  0.15980996562E+03  0.16077526875E+03  0.00000000000E+00 0. -1.
         -5    1    5    5    0  502  0.25529025312E+02  0.98911292502E+02  0.56094565936E+03  0.57019058013E+03  0.47000000000E+01 0.  1.
         13    1    6    6    0    0  0.40855548955E+02  0.11703836323E+02  0.59447338632E+03  0.59599057267E+03  0.00000000000E+00 0. -1.
        -14    1    6    6    0    0  0.15551084371E+02 -0.34569680272E+02  0.12614524658E+03  0.13171758521E+03  0.00000000000E+00 0.  1.
</event>
<event>
12    1  0.8526130E-002  0.3054269E+03  0.7818608E-02  0.1082597E+00
         21   -1    0    0  501  502  0.00000000000E+00  0.00000000000E+00  0.25188653682E+03  0.25188653682E+03  0.00000000000E+00 0. -1.
         21   -1    0    0  502  503 -0.00000000000E+00 -0.00000000000E+00 -0.45638919079E+03  0.45638919079E+03  0.00000000000E+00 0. -1.
         -6    2    1    2    0  503 -0.14440830728E+03 -0.20672360344E+03 -0.25639329103E+03  0.39877700665E+03  0.17232867991E+03 0.  0.
        -24    2    3    3    0    0 -0.55594999331E+02 -0.97667756064E+02 -0.20995015864E+03  0.25058781656E+03  0.78008910826E+02 0.  0.
          6    2    1    2  501    0  0.14440830728E+03  0.20672360344E+03  0.51890637062E+02  0.30949872095E+03  0.17178012873E+03 0.  0.
         24    2    5    5    0    0  0.59597032988E+02  0.19541470984E+03  0.39672157668E+02  0.22294108374E+03  0.79938298459E+02 0.  0.
          5    1    5    5  501    0  0.84811274292E+02  0.11308893593E+02  0.12218479394E+02  0.86557637214E+02  0.47000000000E+01 0. -1.
        -11    1    6    6    0    0  0.16620329248E+02  0.26722012577E+02  0.37356304038E+02  0.48844597981E+02  0.00000000000E+00 0.  1.
         12    1    6    6    0    0  0.42976703740E+02  0.16869269727E+03  0.23158536298E+01  0.17409648576E+03  0.00000000000E+00 0. -1.
         -5    1    3    3    0  503 -0.88813307950E+02 -0.10905584737E+03 -0.46443132387E+02  0.14818919010E+03  0.47000000000E+01 0.  1.
         13    1    4    4    0    0 -0.28530257575E+02 -0.30462363862E+02 -0.15254576838E+03  0.15815227681E+03  0.00000000000E+00 0. -1.
        -14    1    4    4    0    0 -0.27064741756E+02 -0.67205392202E+02 -0.57404390262E+02  0.92435539749E+02  0.00000000000E+00 0.  1.
</event>
<event>
12    1  0.8526130E-002  0.2154956E+03  0.7818608E-02  0.1137694E+00
         21   -1    0    0  501  502  0.00000000000E+00  0.00000000000E+00  0.13763006230E+03  0.13763006230E+03  0.00000000000E+00 0. -1.
         21   -1    0    0  502  503 -0.00000000000E+00 -0.00000000000E+00 -0.33586838357E+03  0.33586838357E+03  0.00000000000E+00 0. -1.
         -6    2    1    2    0  503  0.10083401115E+03  0.77643313991E+02 -0.11675496781E+03  0.24509196284E+03  0.17390332294E+03 0.  0.
        -24    2    3    3    0    0  0.10141842520E+03  0.21417265588E+02 -0.16979759808E+02  0.13046695601E+03  0.77388100714E+02 0.  0.
          6    2    1    2  501    0 -0.10083401115E+03 -0.77643313991E+02 -0.81483353457E+02  0.22840648303E+03  0.17127172150E+03 0.  0.
         24    2    5    5    0    0  0.11997253193E+02 -0.48253451547E+02 -0.15832132451E+02  0.94515366642E+02  0.78804621965E+02 0.  0.
          5    1    5    5  501    0 -0.11283126434E+03 -0.29389862444E+02 -0.65651221006E+02  0.13389111638E+03  0.47000000000E+01 0. -1.
        -13    1    6    6    0    0 -0.12856908178E+02 -0.19467869494E+00  0.24068973176E+02  0.27288339221E+02  0.00000000000E+00 0.  1.
         14    1    6    6    0    0  0.24854161371E+02 -0.48058772853E+02 -0.39901105627E+02  0.67227027421E+02  0.00000000000E+00 0. -1.
         -5    1    3    3    0  503 -0.58441405396E+00  0.56226048403E+02 -0.99775208006E+02  0.11462500683E+03  0.47000000000E+01 0.  1.
         11    1    4    4    0    0  0.58402168446E+02  0.49892822413E+02 -0.23616777764E+01  0.76848451705E+02  0.00000000000E+00 0. -1.
        -12    1    4    4    0    0  0.43016256756E+02 -0.28475556825E+02 -0.14618082031E+02  0.53618504306E+02  0.00000000000E+00 0.  1.
</event>
<event>
12    1  0.8526130E-002  0.1795901E+03  0.7818608E-02  0.1168817E+00
         21   -1    0    0  503  502  0.00000000000E+00  0.00000000000E+00  0.12515174320E+04  0.12515174320E+04  0.00000000000E+00 0. -1.
         21   -1    0    0  501  503 -0.00000000000E+00 -0.00000000000E+00 -0.25432744955E+02  0.25432744955E+02  0.00000000000E+00 0. -1.
          6    2    1    2  501    0 -0.26872763957E+02  0.32014649785E+02  0.58981284280E+03  0.61581897600E+03  0.17206608739E+03 0.  0.
         24    2    3    3    0    0  0.11171915862E+02 -0.96846757293E+01  0.22384668587E+03  0.24549540205E+03  0.99709823999E+02 0.  0.
         -6    2    1    2    0  502  0.26872763957E+02 -0.32014649785E+02  0.63627184422E+03  0.66113120093E+03  0.17465830026E+03 0.  0.
        -24    2    5    5    0    0 -0.12415306290E+02 -0.82108518275E+02  0.42287845341E+03  0.43839418702E+03  0.80419700626E+02 0.  0.
          5    1    3    3  501    0 -0.38044679819E+02  0.41699325514E+02  0.36596615693E+03  0.37032357395E+03  0.47000000000E+01 0. -1.
        -11    1    4    4    0    0  0.55710214149E+02 -0.45898866295E+01  0.12882792120E+03  0.14043264685E+03  0.00000000000E+00 0.  1.
         12    1    4    4    0    0 -0.44538298287E+02 -0.50947890998E+01  0.95018764672E+02  0.10506275520E+03  0.00000000000E+00 0. -1.
         -5    1    5    5    0  502  0.39288070246E+02  0.50093868490E+02  0.21339339081E+03  0.22273701391E+03  0.47000000000E+01 0.  1.
         13    1    6    6    0    0  0.22654370046E+02 -0.52154965008E+02  0.12979751091E+03  0.14170657957E+03  0.00000000000E+00 0. -1.
        -14    1    6    6    0    0 -0.35069676335E+02 -0.29953553267E+02  0.29308094250E+03  0.29668760744E+03  0.00000000000E+00 0.  1.
</event>
<event>
12    1  0.8526130E-002  0.1770429E+03  0.7818608E-02  0.1171344E+00
         21   -1    0    0  501  502  0.00000000000E+00  0.00000000000E+00  0.11525190794E+03  0.11525190794E+03  0.00000000000E+00 0. -1.
         21   -1    0    0  502  503 -0.00000000000E+00 -0.00000000000E+00 -0.32841412164E+03  0.32841412164E+03  0.00000000000E+00 0. -1.
         -6    2    1    2    0  503 -0.35562981797E+02 -0.20124321256E+02 -0.20238204578E+03  0.26889157500E+03  0.17226280118E+03 0.  0.
        -24    2    3    3    0    0  0.16838175274E+02 -0.66748559479E+02 -0.13395843904E+03  0.17079172377E+03  0.80536048939E+02 0.  0.
          6    2    1    2  501    0  0.35562981797E+02  0.20124321256E+02 -0.10780167924E+02  0.17477445459E+03  0.16958827783E+03 0.  0.
         24    2    5    5    0    0  0.78598438216E+02 -0.13523133476E+02  0.33799083626E+02  0.10410903598E+03  0.57755724299E+02 0.  0.
          5    1    5    5  501    0 -0.43035456418E+02  0.33647454732E+02 -0.44579251549E+02  0.70665418613E+02  0.47000000000E+01 0. -1.
        -11    1    6    6    0    0  0.21576065613E+02 -0.30451224829E+02  0.38659938929E+01  0.37519989468E+02  0.00000000000E+00 0.  1.
         12    1    6    6    0    0  0.57022372603E+02  0.16928091352E+02  0.29933089733E+02  0.66589046509E+02  0.00000000000E+00 0. -1.
         -5    1    3    3    0  503 -0.52401157071E+02  0.46624238224E+02 -0.68423606740E+02  0.98099851232E+02  0.47000000000E+01 0.  1.
         11    1    4    4    0    0 -0.29155481219E+02 -0.18496033944E+02 -0.23462302697E+02  0.41744760206E+02  0.00000000000E+00 0. -1.
        -12    1    4    4    0    0  0.45993656493E+02 -0.48252525535E+02 -0.11049613634E+03  0.12904696356E+03  0.00000000000E+00 0.  1.
</event>
<event>
12    1  0.8526130E-002  0.1969941E+03  0.7818608E-02  0.1154767E+00
         21   -1    0    0  501  502  0.00000000000E+00  0.00000000000E+00  0.35272461367E+03  0.35272461367E+03  0.00000000000E+00 0.  1.
         21   -1    0    0  502  503 -0.00000000000E+00 -0.00000000000E+00 -0.17627283860E+03  0.17627283860E+03  0.00000000000E+00 0. -1.
         -6    2    1    2    0  503  0.93452211449E+02 -0.30800014882E+02 -0.82723660695E+02  0.20345393195E+03  0.15769699315E+03 0.  0.
        -24    2    3    3    0    0  0.10475371328E+03 -0.17008472998E+02 -0.10834399485E+03  0.17188777772E+03  0.80897208301E+02 0.  0.
          6    2    1    2  501    0 -0.93452211449E+02  0.30800014882E+02  0.25917543576E+03  0.32554352032E+03  0.17065966241E+03 0.  0.
         24    2    5    5    0    0 -0.15933788980E+02  0.50046378814E+02  0.21044400352E+03  0.23186123365E+03  0.81941609625E+02 0.  0.
          5    1    5    5  501    0 -0.77518422468E+02 -0.19246363933E+02  0.48731432243E+02  0.93682286667E+02  0.47000000000E+01 0. -1.
        -13    1    6    6    0    0 -0.49452026036E+02  0.34808354975E+02  0.13382332269E+03  0.14685300865E+03  0.00000000000E+00 0.  1.
         14    1    6    6    0    0  0.33518237055E+02  0.15238023839E+02  0.76620680832E+02  0.85008224996E+02  0.00000000000E+00 0. -1.
         -5    1    3    3    0  503 -0.11301501827E+02 -0.13791541884E+02  0.25620334153E+02  0.31566154235E+02  0.47000000000E+01 0.  1.
         11    1    4    4    0    0  0.92811437627E+02  0.10420044717E+02 -0.49089529015E+02  0.10550982014E+03  0.00000000000E+00 0. -1.
        -12    1    4    4    0    0  0.11942275648E+02 -0.27428517715E+02 -0.59254465833E+02  0.66377957582E+02  0.00000000000E+00 0.  1.
</event>
<event>
12    1  0.8526130E-002  0.1750135E+03  0.7818608E-02  0.1173373E+00
         21   -1    0    0  501  502  0.00000000000E+00  0.00000000000E+00  0.93789378021E+02  0.93789378021E+02  0.00000000000E+00 0.  1.
         21   -1    0    0  502  503 -0.00000000000E+00 -0.00000000000E+00 -0.51414637752E+03  0.51414637752E+03  0.00000000000E+00 0.  1.
         -6    2    1    2    0  503 -0.71431149155E+01 -0.17884931559E+02 -0.39513115665E+03  0.43111360125E+03  0.17134588224E+03 0.  0.
        -24    2    3    3    0    0  0.59907039986E+02 -0.12867239491E+02 -0.27899777211E+03  0.29683793886E+03  0.80737759522E+02 0.  0.
          6    2    1    2  501    0  0.71431149155E+01  0.17884931559E+02 -0.25225842846E+02  0.17682215429E+03  0.17395067183E+03 0.  0.
         24    2    5    5    0    0  0.37641509822E+02  0.63048274624E+02  0.13304327421E+02  0.10991517655E+03  0.80699273315E+02 0.  0.
          5    1    5    5  501    0 -0.30498394907E+02 -0.45163343066E+02 -0.38530170267E+02  0.66906977734E+02  0.47000000000E+01 0. -1.
        -11    1    6    6    0    0 -0.10753297763E+02  0.55752159638E+02 -0.64340105553E+01  0.57143094149E+02  0.00000000000E+00 0.  1.
         12    1    6    6    0    0  0.48394807585E+02  0.72961149863E+01  0.19738337976E+02  0.52772082403E+02  0.00000000000E+00 0. -1.
         -5    1    3    3    0  503 -0.67050154901E+02 -0.50176920680E+01 -0.11613338454E+03  0.13427566239E+03  0.47000000000E+01 0.  1.
         13    1    4    4    0    0  0.50341930406E+02  0.13704376957E+02 -0.25342285433E+03  0.25873782677E+03  0.00000000000E+00 0. -1.
        -14    1    4    4    0    0  0.95651095800E+01 -0.26571616448E+02 -0.25574917781E+02  0.38100112092E+02  0.00000000000E+00 0.  1.
</event>
<event>
12    1  0.8526130E-002  0.1775866E+03  0.7818608E-02  0.1171509E+00
         21   -1    0    0  503  502  0.00000000000E+00  0.00000000000E+00  0.14341817776E+04  0.14341817776E+04  0.00000000000E+00 0.  1.
         21   -1    0    0  501  503 -0.00000000000E+00 -0.00000000000E+00 -0.24179564452E+02  0.24179564452E+02  0.00000000000E+00 0.  1.
          6    2    1    2  501    0 -0.39511021556E+02 -0.22167186391E+02  0.96501410827E+03  0.98121823750E+03  0.17171049898E+03 0.  0.
         24    2    3    3    0    0 -0.90392232763E+02 -0.28938919635E+02  0.63120961636E+03  0.64345754877E+03  0.81263894070E+02 0.  0.
         -6    2    1    2    0  502  0.39511021556E+02  0.22167186391E+02  0.44498810490E+03  0.47714310458E+03  0.16612833523E+03 0.  0.
        -24    2    5    5    0    0 -0.75722209849E+01 -0.37268992931E+02  0.17022636904E+03  0.19207189833E+03  0.80425624310E+02 0.  0.
          5    1    3    3  501    0  0.50881211207E+02  0.67717332445E+01  0.33380449192E+03  0.33776068872E+03  0.47000000000E+01 0. -1.
        -11    1    4    4    0    0 -0.34853753518E+02  0.28135892983E+02  0.19985032232E+03  0.20480860318E+03  0.00000000000E+00 0.  1.
         12    1    4    4    0    0 -0.55538479246E+02 -0.57074812618E+02  0.43135929404E+03  0.43864894559E+03  0.00000000000E+00 0. -1.
         -5    1    5    5    0  502  0.47083242541E+02  0.59436179322E+02  0.27476173586E+03  0.28507120625E+03  0.47000000000E+01 0.  1.
         13    1    6    6    0    0 -0.48185657034E+01 -0.57490928335E+02  0.15818155050E+03  0.16837407264E+03  0.00000000000E+00 0. -1.
        -14    1    6    6    0    0 -0.27536552816E+01  0.20221935404E+02  0.12044818535E+02  0.23697825690E+02  0.00000000000E+00 0.  1.
</event>
<event>
12    1  0.8526130E-002  0.2598482E+03  0.7818608E-02  0.1107237E+00
         21   -1    0    0  503  502  0.00000000000E+00  0.00000000000E+00  0.26769763376E+03  0.26769763376E+03  0.00000000000E+00 0.  1.
         21   -1    0    0  501  503 -0.00000000000E+00 -0.00000000000E+00 -0.40305796575E+03  0.40305796575E+03  0.00000000000E+00 0.  1.
          6    2    1    2  501    0 -0.18854628928E+03 -0.46561995955E+02 -0.27285497752E+03  0.37679030937E+03  0.17263654251E+03 0.  0.
         24    2    3    3    0    0 -0.20562426234E+03 -0.27094161581E+02 -0.19708316872E+03  0.29657740051E+03  0.78108567070E+02 0.  0.
         -6    2    1    2    0  502  0.18854628928E+03  0.46561995955E+02  0.13749464553E+03  0.29396529013E+03  0.17260675416E+03 0.  0.
        -24    2    5    5    0    0  0.71021872713E+02 -0.45434556797E+01  0.16983300230E+01  0.10718604883E+03  0.80132486203E+02 0.  0.
          5    1    3    3  501    0  0.17077973054E+02 -0.19467834373E+02 -0.75771808802E+02  0.80212908861E+02  0.47000000000E+01 0. -1.
        -13    1    4    4    0    0 -0.77330132030E+02 -0.32488779353E+01 -0.26506155149E+02  0.81811250990E+02  0.00000000000E+00 0.  1.
         14    1    4    4    0    0 -0.12829413031E+03 -0.23845283646E+02 -0.17057701357E+03  0.21476614952E+03  0.00000000000E+00 0. -1.
         -5    1    5    5    0  502  0.11752441657E+03  0.51105451634E+02  0.13579631551E+03  0.18677924130E+03  0.47000000000E+01 0.  1.
         11    1    6    6    0    0 -0.24093527342E+01 -0.19270656348E+02  0.22240619471E+02  0.29526400579E+02  0.00000000000E+00 0. -1.
        -12    1    6    6    0    0  0.73431225447E+02  0.14727200669E+02 -0.20542289448E+02  0.77659648248E+02  0.00000000000E+00 0.  1.
</event>
<event>
12    1  0.8526130E-002  0.2978826E+03  0.7818608E-02  0.1086481E+00
         21   -1    0    0  501  502  0.00000000000E+00  0.00000000000E+00  0.91673479136E+03  0.91673479136E+03  0.00000000000E+00 0.  1.
         21   -1    0    0  502  503 -0.00000000000E+00 -0.00000000000E+00 -0.11872304989E+03  0.11872304989E+03  0.00000000000E+00 0. -1.
         -6    2    1    2    0  503 -0.23625416847E+03  0.56097796071E+02  0.62457871151E+03  0.69197733205E+03  0.17254294060E+03 0.  0.
        -24    2    3    3    0    0 -0.22798534322E+03  0.28294976707E+02  0.42043532271E+03  0.48572994800E+03  0.79936220663E+02 0.  0.
          6    2    1    2  501    0  0.23625416847E+03 -0.56097796071E+02  0.17343302996E+03  0.34348050920E+03  0.17010834627E+03 0.  0.
         24    2    5    5    0    0  0.43128306898E+02 -0.32869104678E+01  0.90473282613E+02  0.12670643849E+03  0.77448383152E+02 0.  0.
          5    1    5    5  501    0  0.19312586158E+03 -0.52810885603E+02  0.82959747349E+02  0.21677407070E+03  0.47000000000E+01 0. -1.
        -11    1    6    6    0    0 -0.14904917933E+02 -0.22525748023E+02  0.21391220616E+02  0.34455046394E+02  0.00000000000E+00 0.  1.
         12    1    6    6    0    0  0.58033224831E+02  0.19238837555E+02  0.69082061998E+02  0.92251392101E+02  0.00000000000E+00 0. -1.
         -5    1    3    3    0  503 -0.82688252595E+01  0.27802819364E+02  0.20414338881E+03  0.20624738405E+03  0.47000000000E+01 0.  1.
         11    1    4    4    0    0 -0.51868352060E+02  0.16713180508E+02  0.44248647319E+02  0.70196859885E+02  0.00000000000E+00 0. -1.
        -12    1    4    4    0    0 -0.17611699115E+03  0.11581796198E+02  0.37618667539E+03  0.41553308811E+03  0.00000000000E+00 0.  1.
</event>
<event>
12    1  0.8526130E-002  0.1743376E+03  0.7818608E-02  0.1173426E+00
         21   -1    0    0  503  502  0.00000000000E+00  0.00000000000E+00  0.23491084088E+03  0.23491084088E+03  0.00000000000E+00 0. -1.
         21   -1    0    0  501  503 -0.00000000000E+00 -0.00000000000E+00 -0.20197841071E+03  0.20197841071E+03  0.00000000000E+00 0. -1.
          6    2    1    2  501    0 -0.25273659224E+02 -0.96893024062E+01 -0.11457200985E+03  0.20852298283E+03  0.17211173259E+03 0.  0.
         24    2    3    3    0    0 -0.72508095704E+02 -0.39176937892E+02 -0.58923768612E+02  0.12965962385E+03  0.80915703940E+02 0.  0.
         -6    2    1    2    0  502  0.25273659224E+02  0.96893024062E+01  0.14750444002E+03  0.22836626876E+03  0.17222355370E+03 0.  0.
        -24    2    5    5    0    0  0.39731857368E+02 -0.34894225277E+02  0.15393062854E+03  0.18082558794E+03  0.78784690158E+02 0.  0.
          5    1    3    3  501    0  0.47234436480E+02  0.29487635485E+02 -0.55648241238E+02  0.78863358976E+02  0.47000000000E+01 0. -1.
        -13    1    4    4    0    0  0.17962421036E+01 -0.37603161306E+02 -0.53098248285E+01  0.38018659440E+02  0.00000000000E+00 0.  1.
         14    1    4    4    0    0 -0.74304337807E+02 -0.15737765851E+01 -0.53613943784E+02  0.91640964409E+02  0.00000000000E+00 0. -1.
         -5    1    5    5    0  502 -0.14458198144E+02  0.44583527684E+02 -0.64261885179E+01  0.47540680823E+02  0.47000000000E+01 0.  1.
         11    1    6    6    0    0  0.33818570004E+01  0.56187438178E+01  0.11180800645E+03  0.11200016761E+03  0.00000000000E+00 0. -1.
        -12    1    6    6    0    0  0.36350000368E+02 -0.40512969095E+02  0.42122622093E+02  0.68825420330E+02  0.00000000000E+00 0.  1.
</event>
<event>
12    1  0.8526130E-002  0.2539316E+03  0.7818608E-02  0.1111138E+00
         21   -1    0    0  501  502  0.00000000000E+00  0.00000000000E+00  0.23392702838E+03  0.23392702838E+03  0.00000000000E+00 0.  1.
         21   -1    0    0  502  503 -0.00000000000E+00 -0.00000000000E+00 -0.63081992659E+03  0.63081992659E+03  0.00000000000E+00 0.  1.
         -6    2    1    2    0  503  0.12992346643E+03 -0.13295656269E+03 -0.52348910763E+03  0.58100786970E+03  0.17021088141E+03 0.  0.
        -24    2    3    3    0    0  0.11555395168E+03 -0.15206493985E+03 -0.51206540047E+03  0.55409682889E+03  0.91300929652E+02 0.  0.
          6    2    1    2  501    0 -0.12992346643E+03  0.13295656269E+03  0.12659620943E+03  0.28373908527E+03  0.17298472065E+03 0.  0.
         24    2    5    5    0    0 -0.78326862916E+02  0.42949737860E+02  0.13516904612E+03  0.17953245622E+03  0.77339862744E+02 0.  0.
          5    1    5    5  501    0 -0.51596603516E+02  0.90006824828E+02 -0.85728366968E+01  0.10420662906E+03  0.47000000000E+01 0. -1.
        -11    1    6    6    0    0 -0.24440092747E+02 -0.19743046632E+02  0.18233009806E+02  0.36325592499E+02  0.00000000000E+00 0.  1.
         12    1    6    6    0    0 -0.53886770169E+02  0.62692784493E+02  0.11693603632E+03  0.14320686372E+03  0.00000000000E+00 0. -1.
         -5    1    3    3    0  503  0.14369514751E+02  0.19108377157E+02 -0.11423707162E+02  0.26911040803E+02  0.47000000000E+01 0.  1.
         13    1    4    4    0    0 -0.14261450581E+02 -0.29717645243E+02 -0.91882582072E+02  0.97616270671E+02  0.00000000000E+00 0. -1.
        -14    1    4    4    0    0  0.12981540226E+03 -0.12234729460E+03 -0.42018281840E+03  0.45648055822E+03  0.00000000000E+00 0.  1.
</event>
<event>
12    1  0.8526130E-002  0.1736538E+03  0.7818608E-02  0.1174140E+00
         21   -1    0    0  503  502  0.00000000000E+00  0.00000000000E+00  0.75783044313E+02  0.75783044313E+02  0.00000000000E+00 0. -1.
         21   -1    0    0  501  503 -0.00000000000E+00 -0.00000000000E+00 -0.47231670119E+03  0.47231670119E+03  0.00000000000E+00 0. -1.
          6    2    1    2  501    0  0.18097214530E+02 -0.23469728489E+01 -0.89266459328E+02  0.19525402540E+03  0.17269225871E+03 0.  0.
         24    2    3    3    0    0  0.67117040430E+02  0.42493874065E+01 -0.15184605348E+02  0.10605387748E+03  0.80585968257E+02 0.  0.
         -6    2    1    2    0  502 -0.18097214530E+02  0.23469728489E+01 -0.30726719755E+03  0.35284572010E+03  0.17249334494E+03 0.  0.
        -24    2    5    5    0    0  0.50402861111E+02  0.28516605877E+02 -0.15840067379E+03  0.18683234127E+03  0.80385975563E+02 0.  0.
          5    1    3    3  501    0 -0.49019825900E+02 -0.65963602554E+01 -0.74081853980E+02  0.89200147921E+02  0.47000000000E+01 0. -1.
        -13    1    4    4    0    0  0.11718239080E+02  0.10482364986E+02 -0.41520720468E+02  0.44397830251E+02  0.00000000000E+00 0.  1.
         14    1    4    4    0    0  0.55398801350E+02 -0.62329775792E+01  0.26336115119E+02  0.61656047231E+02  0.00000000000E+00 0. -1.
         -5    1    5    5    0  502 -0.68500075641E+02 -0.26169633028E+02 -0.14886652376E+03  0.16601337883E+03  0.47000000000E+01 0.  1.
         13    1    6    6    0    0  0.51454166762E+01  0.65202470340E+01 -0.12752500149E+03  0.12779520703E+03  0.00000000000E+00 0. -1.
        -14    1    6    6    0    0  0.45257444435E+02  0.21996358843E+02 -0.30875672298E+02  0.59037134238E+02  0.00000000000E+00 0.  1.
</event>
<event>
12    1  0.8526130E-002  0.1781994E+03  0.7818608E-02  0.1170220E+00
         21   -1    0    0  501  502  0.00000000000E+00  0.00000000000E+00  0.17953004248E+02  0.17953004248E+02  0.00000000000E+00 0. -1.
         21   -1    0    0  502  503 -0.00000000000E+00 -0.00000000000E+00 -0.17518956201E+04  0.17518956201E+04  0.00000000000E+00 0. -1.
         -6    2    1    2    0  503  0.12307718408E+02 -0.25862008332E+02 -0.92608970776E+03  0.94257518308E+03  0.17316323379E+03 0.  0.
        -24    2    3    3    0    0 -0.13073630766E+02  0.43172473473E+02 -0.39945950854E+03  0.41081261455E+03  0.84642324057E+02 0.  0.
          6    2    1    2  501    0 -0.12307718408E+02  0.25862008332E+02 -0.80785290808E+03  0.82727344125E+03  0.17588263730E+03 0.  0.
         24    2    5    5    0    0 -0.27574198316E+02  0.36475126651E+02 -0.80184718518E+03  0.80717711331E+03  0.80530817626E+02 0.  0.
          5    1    5    5  501    0  0.15266479908E+02 -0.10613118319E+02 -0.60057228936E+01  0.20096327941E+02  0.47000000000E+01 0. -1.
        -13    1    6    6    0    0  0.22168163374E+02 -0.10070944281E+02 -0.23083329244E+03  0.23211389507E+03  0.00000000000E+00 0.  1.
         14    1    6    6    0    0 -0.49742361690E+02  0.46546070932E+02 -0.57101389274E+03  0.57506321824E+03  0.00000000000E+00 0. -1.
         -5    1    3    3    0  503  0.25381349174E+02 -0.69034481805E+02 -0.52663019922E+03  0.53176256853E+03  0.47000000000E+01 0.  1.
         11    1    4    4    0    0  0.18124637681E+02  0.37949286458E+01 -0.28752748394E+03  0.28812316463E+03  0.00000000000E+00 0. -1.
        -12    1    4    4    0    0 -0.31198268447E+02  0.39377544827E+02 -0.11193202460E+03  0.12268944992E+03  0.00000000000E+00 0.  1.
</event>
<event>
12    1  0.8526130E-002  0.2442320E+03  0.7818608E-02  0.1117160E+00
         21   -1    0    0  501  502  0.00000000000E+00  0.00000000000E+00  0.36676478670E+03  0.36676478670E+03  0.00000000000E+00 0. -1.
         21   -1    0    0  502  503 -0.00000000000E+00 -0.00000000000E+00 -0.23610652133E+03  0.23610652133E+03  0.00000000000E+00 0.  1.
         -6    2    1    2    0  503  0.89532996795E+02  0.14782666420E+03 -0.10362833918E+03  0.26443449108E+03  0.17122466886E+03 0.  0.
        -24    2    3    3    0    0  0.65903003125E+02  0.10915642914E+03 -0.21414495374E+02  0.17043997106E+03  0.11105346135E+03 0.  0.
          6    2    1    2  501    0 -0.89532996795E+02 -0.14782666420E+03  0.23428660456E+03  0.33843681695E+03  0.17256994475E+03 0.  0.
         24    2    5    5    0    0 -0.69631336961E+01 -0.10886519158E+03  0.20050843645E+03  0.24097485883E+03  0.77234282094E+02 0.  0.
          5    1    5    5  501    0 -0.82569863099E+02 -0.38961472620E+02  0.33778168102E+02  0.97461958123E+02  0.47000000000E+01 0. -1.
        -11    1    6    6    0    0 -0.14357411121E+02 -0.48128348420E+02  0.27058213084E+02  0.57049277568E+02  0.00000000000E+00 0.  1.
         12    1    6    6    0    0  0.73942774252E+01 -0.60736843161E+02  0.17345022337E+03  0.18392558126E+03  0.00000000000E+00 0. -1.
         -5    1    3    3    0  503  0.23629993670E+02  0.38670235056E+02 -0.82213843807E+02  0.93994520019E+02  0.47000000000E+01 0.  1.
         11    1    4    4    0    0  0.28258805962E+02 -0.18073172106E+02 -0.17187239480E+02  0.37690859174E+02  0.00000000000E+00 0. -1.
        -12    1    4    4    0    0  0.37644197164E+02  0.12722960125E+03 -0.42272558936E+01  0.13274911189E+03  0.00000000000E+00 0.  1.
</event>
<event>
12    1  0.8526130E-002  0.1909023E+03  0.7818608E-02  0.1157725E+00
         21   -1    0    0  503  502  0.00000000000E+00  0.00000000000E+00  0.93241041550E+03  0.93241041550E+03  0.00000000000E+00 0.  1.
         21   -1    0    0  501  503 -0.00000000000E+00 -0.00000000000E+00 -0.41796622374E+02  0.41796622374E+02  0.00000000000E+00 0. -1.
          6    2    1    2  501    0 -0.22464484378E+02  0.80650721910E+02  0.32005478505E+03  0.37266438956E+03  0.17156482684E+03 0.  0.
         24    2    3    3    0    0 -0.13610033724E+02  0.11744395066E+03  0.29459091381E+03  0.32680981818E+03  0.77733751965E+02 0.  0.
         -6    2    1    2    0  502  0.22464484378E+02 -0.80650721910E+02  0.57055900807E+03  0.60154264831E+03  0.17119224294E+03 0.  0.
        -24    2    5    5    0    0 -0.52262233792E+02 -0.59881155878E+02  0.32690631254E+03  0.34580023235E+03  0.79956047954E+02 0.  0.
          5    1    3    3  501    0 -0.88544506537E+01 -0.36793228748E+02  0.25463871241E+02  0.45854571382E+02  0.47000000000E+01 0. -1.
        -11    1    4    4    0    0 -0.55234776659E+01  0.70130927300E+02  0.25519439186E+03  0.26471311529E+03  0.00000000000E+00 0.  1.
         12    1    4    4    0    0 -0.80865560580E+01  0.47313023357E+02  0.39396521954E+02  0.62096702893E+02  0.00000000000E+00 0. -1.
         -5    1    5    5    0  502  0.74726718170E+02 -0.20769566032E+02  0.24365269553E+03  0.25574241596E+03  0.47000000000E+01 0.  1.
         13    1    6    6    0    0  0.73444224061E+01 -0.10921540064E+02  0.39228658359E+01  0.13733515727E+02  0.00000000000E+00 0. -1.
        -14    1    6    6    0    0 -0.59606656198E+02 -0.48959615813E+02  0.32298344671E+03  0.33206671663E+03  0.00000000000E+00 0.  1.
</event>
<event>
12    1  0.8526130E-002  0.2263723E+03  0.7818608E-02  0.1129747E+00
         21   -1    0    0  501  502  0.00000000000E+00  0.00000000000E+00  0.26831259891E+03  0.26831259891E+03  0.00000000000E+00 0.  1.
         21   -1    0    0  502  503 -0.00000000000E+00 -0.00000000000E+00 -0.19987259371E+03  0.19987259371E+03  0.00000000000E+00 0. -1.
         -6    2    1    2    0  503 -0.13621062001E+03 -0.50140976700E+02 -0.21324857272E+02  0.22737455078E+03  0.17371524475E+03 0.  0.
        -24    2    3    3    0    0 -0.29497520470E+02  0.32706659269E+02  0.79451327326E+00  0.90397279118E+02  0.78937998114E+02 0.  0.
          6    2    1    2  501    0  0.13621062001E+03  0.50140976700E+02  0.89764862471E+02  0.24081064183E+03  0.16989580377E+03 0.  0.
         24    2    5    5    0    0  0.56812454075E+02  0.69415284880E+02  0.11608629346E+03  0.15484276738E+03  0.49539058995E+02 0.  0.
          5    1    5    5  501    0  0.79398165932E+02 -0.19274308179E+02 -0.26321430991E+02  0.85967874457E+02  0.47000000000E+01 0. -1.
        -11    1    6    6    0    0  0.15480614430E+02  0.55450383753E+02  0.53792040473E+02  0.78790723437E+02  0.00000000000E+00 0.  1.
         12    1    6    6    0    0  0.41331839645E+02  0.13964901127E+02  0.62294252989E+02  0.76052043939E+02  0.00000000000E+00 0. -1.
         -5    1    3    3    0  503 -0.10671309954E+03 -0.82847635969E+02 -0.22119370546E+02  0.13697727166E+03  0.47000000000E+01 0.  1.
         11    1    4    4    0    0 -0.49743658507E+02  0.21187903606E+01 -0.12580410809E+02  0.51353554603E+02  0.00000000000E+00 0. -1.
        -12    1    4    4    0    0  0.20246138038E+02  0.30587868908E+02  0.13374924082E+02  0.39043724515E+02  0.00000000000E+00 0.  1.
</event>
<event>
12    1  0.8526130E-002  0.1771743E+03  0.7818608E-02  0.1171049E+00
         21   -1    0    0  501  502  0.00000000000E+00  0.00000000000E+00  0.12167662915E+03  0.12167662915E+03  0.00000000000E+00 0.  1.
         21   -1    0    0  502  503 -0.00000000000E+00 -0.00000000000E+00 -0.43677857070E+03  0.43677857070E+03  0.00000000000E+00 0.  1.
         -6    2    1    2    0  503  0.21043572644E+02  0.30861564502E+02 -0.33709588712E+03  0.37992098759E+03  0.17120470668E+03 0.  0.
        -24    2    3    3    0    0  0.79385692902E+02  0.27667483552E+02 -0.21828575152E+03  0.24743723965E+03  0.80678004209E+02 0.  0.
          6    2    1    2  501    0 -0.21043572644E+02 -0.30861564502E+02  0.21993945557E+02  0.17853421226E+03  0.17319198363E+03 0.  0.
         24    2    5    5    0    0  0.48879412845E+02 -0.21478112560E+02  0.39285458619E+02  0.10574438128E+03  0.82389444677E+02 0.  0.
          5    1    5    5  501    0 -0.69922985488E+02 -0.93834519414E+01 -0.17291513062E+02  0.72789830979E+02  0.47000000000E+01 0. -1.
        -11    1    6    6    0    0  0.41924530560E+02 -0.25584517122E+02  0.63465986156E+02  0.80250639734E+02  0.00000000000E+00 0.  1.
         12    1    6    6    0    0  0.69548822849E+01  0.41064045623E+01 -0.24180527537E+02  0.25493741546E+02  0.00000000000E+00 0. -1.
         -5    1    3    3    0  503 -0.58342120258E+02  0.31940809498E+01 -0.11881013560E+03  0.13248374795E+03  0.47000000000E+01 0.  1.
         13    1    4    4    0    0  0.56983567344E+02  0.66122875279E+01 -0.49185412456E+02  0.75564899868E+02  0.00000000000E+00 0. -1.
        -14    1    4    4    0    0  0.22402125559E+02  0.21055196024E+02 -0.16910033906E+03  0.17187233978E+03  0.00000000000E+00 0.  1.
</event>
<event>
12    1  0.8526130E-002  0.1914576E+03  0.7818608E-02  0.1159121E+00
         21   -1    0    0  503  502  0.00000000000E+00  0.00000000000E+00  0.24490769043E+03  0.24490769043E+03  0.00000000000E+00 0. -1.
         21   -1    0    0  501  503 -0.00000000000E+00 -0.00000000000E+00 -0.18171201904E+03  0.18171201904E+03  0.00000000000E+00 0. -1.
          6    2    1    2  501    0  0.56991657338E+02  0.25919220710E+02  0.12942921695E+03  0.22402923361E+03  0.17180605432E+03 0.  0.
         24    2    3    3    0    0  0.85643795509E+02  0.19603296701E+01  0.33487059721E+02  0.12096633526E+03  0.78566968226E+02 0.  0.
         -6    2    1    2    0  502 -0.56991657338E+02 -0.25919220710E+02 -0.66233545556E+02  0.20259047586E+03  0.18093137744E+03 0.  0.
        -24    2    5    5    0    0 -0.83032126876E+02 -0.65086701567E+02 -0.74177439293E+02  0.15465934758E+03  0.85361633534E+02 0.  0.
          5    1    3    3  501    0 -0.28652138171E+02  0.23958891040E+02  0.95942157227E+02  0.10306289834E+03  0.47000000000E+01 0. -1.
        -11    1    4    4    0    0  0.44694276428E+01 -0.23795155537E+02 -0.89547448232E+01  0.25814195035E+02  0.00000000000E+00 0.  1.
         12    1    4    4    0    0  0.81174367866E+02  0.25755485207E+02  0.42441804545E+02  0.95152140226E+02  0.00000000000E+00 0. -1.
         -5    1    5    5    0  502  0.26040469539E+02  0.39167480857E+02  0.79438937364E+01  0.47931128280E+02  0.47000000000E+01 0.  1.
         13    1    6    6    0    0 -0.56076435167E+02  0.42841832909E+01 -0.11601081420E+02  0.57423913988E+02  0.00000000000E+00 0. -1.
        -14    1    6    6    0    0 -0.26955691709E+02 -0.69370884857E+02 -0.62576357873E+02  0.97235433593E+02  0.00000000000E+00 0.  1.
</event>
<event>
12    1  0.8526130E-002  0.2019195E+03  0.7818608E-02  0.1148396E+00
         21   -1    0    0  503  502  0.00000000000E+00  0.00000000000E+00  0.15321453064E+03  0.15321453064E+03  0.00000000000E+00 0.  1.
         21   -1    0    0  501  503 -0.00000000000E+00 -0.00000000000E+00 -0.50806097892E+03  0.50806097892E+03  0.00000000000E+00 0.  1.
          6    2    1    2  501    0  0.40366192765E+02 -0.94434872732E+02 -0.40609130875E+03  0.45295478720E+03  0.17236737944E+03 0.  0.
         24    2    3    3    0    0  0.32223238923E+02 -0.11371788579E+03 -0.40813405731E+03  0.43140472660E+03  0.74609213390E+02 0.  0.
         -6    2    1    2    0  502 -0.40366192765E+02  0.94434872732E+02  0.51244860473E+02  0.20832072237E+03  0.17385083531E+03 0.  0.
        -24    2    5    5    0    0  0.36347883949E+02  0.88925898878E+02  0.26157896438E+02  0.12728465556E+03  0.79297943455E+02 0.  0.
          5    1    3    3  501    0  0.81429538423E+01  0.19283013062E+02  0.20427485564E+01  0.21550060596E+02  0.47000000000E+01 0. -1.
        -11    1    4    4    0    0 -0.19217669898E+02 -0.51080553705E+02 -0.11536427968E+03  0.12762232888E+03  0.00000000000E+00 0.  1.
         12    1    4    4    0    0  0.51440908821E+02 -0.62637332088E+02 -0.29276977763E+03  0.30378239772E+03  0.00000000000E+00 0. -1.
         -5    1    5    5    0  502 -0.76714076715E+02  0.55089738537E+01  0.25086964035E+02  0.81036066807E+02  0.47000000000E+01 0.  1.
         13    1    6    6    0    0 -0.10968285506E+02  0.29415906063E+02 -0.21044781789E+02  0.37795259716E+02  0.00000000000E+00 0. -1.
        -14    1    6    6    0    0  0.47316169455E+02  0.59509992815E+02  0.47202678227E+02  0.89489395844E+02  0.00000000000E+00 0.  1.
</event>
<event>
12    1  0.8526130E-002  0.2123785E+03  0.7818608E-02  0.1142420E+00
         21   -1    0    0  503  502  0.00000000000E+00  0.00000000000E+00  0.39942326144E+03  0.39942326144E+03  0.00000000000E+00 0.  1.
         21   -1    0    0  501  503 -0.00000000000E+00 -0.00000000000E+00 -0.35579666349E+03  0.35579666349E+03  0.00000000000E+00 0.  1.
          6    2    1    2  501    0 -0.98232420773E+02  0.23101620991E+02 -0.29440468298E+03  0.36301342735E+03  0.18687251723E+03 0.  0.
         24    2    3    3    0    0 -0.24196945177E+02 -0.18661844023E+02 -0.25569717717E+03  0.26949444713E+03  0.79450953686E+02 0.  0.
         -6    2    1    2    0  502  0.98232420773E+02 -0.23101620991E+02  0.33803128093E+03  0.39220649757E+03  0.17139864780E+03 0.  0.
        -24    2    5    5    0    0  0.82931303969E+02 -0.53691835730E+01  0.10003834142E+03  0.15301767515E+03  0.80624499042E+02 0.  0.
          5    1    3    3  501    0 -0.74035475596E+02  0.41763465013E+02 -0.38707505810E+02  0.93518980227E+02  0.47000000000E+01 0. -1.
        -11    1    4    4    0    0 -0.36399811296E+02  0.21187664233E+02 -0.15223894899E+03  0.15795746569E+03  0.00000000000E+00 0.  1.
         12    1    4    4    0    0  0.12202866119E+02 -0.39849508256E+02 -0.10345822818E+03  0.11153698143E+03  0.00000000000E+00 0. -1.
         -5    1    5    5    0  502  0.15301116804E+02 -0.17732437418E+02  0.23799293951E+03  0.23918882242E+03  0.47000000000E+01 0.  1.
         11    1    6    6    0    0  0.31242512798E+02 -0.19371068418E+02 -0.30117805042E+01  0.36883651113E+02  0.00000000000E+00 0. -1.
        -12    1    6    6    0    0  0.51688791170E+02  0.14001884845E+02  0.10305012192E+03  0.11613402404E+03  0.00000000000E+00 0.  1.
</event>
<event>
12    1  0.8526130E-002  0.1781696E+03  0.7818608E-02  0.1169755E+00
         21   -1    0    0  503  502  0.00000000000E+00  0.00000000000E+00  0.32888154260E+03  0.32888154260E+03  0.00000000000E+00 0. -1.
         21   -1    0    0  501  503 -0.00000000000E+00 -0.00000000000E+00 -0.19383085454E+03  0.19383085454E+03  0.00000000000E+00 0. -1.
          6    2    1    2  501    0  0.43570765284E+02 -0.55633985055E+01 -0.11794405234E+03  0.21367077859E+03  0.17267031924E+03 0.  0.
         24    2    3    3    0    0 -0.17856422028E+02  0.18009272833E+02 -0.94472130421E+02  0.14365655650E+03  0.10520949142E+03 0.  0.
         -6    2    1    2    0  502 -0.43570765284E+02  0.55633985055E+01  0.25299474041E+03  0.30904161856E+03  0.17196226428E+03 0.  0.
        -24    2    5    5    0    0  0.30362803635E+02 -0.27328439113E+02  0.10082502468E+03  0.13663002388E+03  0.82663984869E+02 0.  0.
          5    1    3    3  501    0  0.61427187312E+02 -0.23572671338E+02 -0.23471921921E+02  0.70014222082E+02  0.47000000000E+01 0. -1.
        -11    1    4    4    0    0 -0.47029679424E+02  0.78979897491E+01 -0.37628614455E+01  0.47836472644E+02  0.00000000000E+00 0.  1.
         12    1    4    4    0    0  0.29173257396E+02  0.10111283084E+02 -0.90709268976E+02  0.95820083859E+02  0.00000000000E+00 0. -1.
         -5    1    5    5    0  502 -0.73933568919E+02  0.32891837618E+02  0.15216971572E+03  0.17241159467E+03  0.47000000000E+01 0.  1.
         11    1    6    6    0    0  0.30891736217E+02 -0.46322214276E+02  0.10341726768E+03  0.11745287633E+03  0.00000000000E+00 0. -1.
        -12    1    6    6    0    0 -0.52893258136E+00  0.18993775163E+02 -0.25922429999E+01  0.19177147556E+02  0.00000000000E+00 0.  1.
</event>
<event>
12    1  0.8526130E-002  0.2354642E+03  0.7818608E-02  0.1124092E+00
         21   -1    0    0  503  502  0.00000000000E+00  0.00000000000E+00  0.44306814459E+03  0.44306814459E+03  0.00000000000E+00 0. -1.
         21   -1    0    0  501  503 -0.00000000000E+00 -0.00000000000E+00 -0.18024557637E+03  0.18024557637E+03  0.00000000000E+00 0. -1.
          6    2    1    2  501    0  0.13696798972E+03  0.59334942765E+02 -0.45338187015E+02  0.23978934551E+03  0.18210577524E+03 0.  0.
         24    2    3    3    0    0  0.16924976049E+03  0.35071148166E+02 -0.46814265495E+02  0.19910626229E+03  0.87041721990E+02 0.  0.
         -6    2    1    2    0  502 -0.13696798972E+03 -0.59334942765E+02  0.30816075524E+03  0.38352437545E+03  0.17276292964E+03 0.  0.
        -24    2    5    5    0    0 -0.70859193274E+02 -0.15798349065E+02  0.68217576989E+02  0.13081777335E+03  0.84788200296E+02 0.  0.
          5    1    3    3  501    0 -0.32281770775E+02  0.24263794599E+02  0.14760784801E+01  0.40683083221E+02  0.47000000000E+01 0. -1.
        -13    1    4    4    0    0  0.59097846714E+02  0.52661893238E+02 -0.28526606383E+01  0.79208384394E+02  0.00000000000E+00 0.  1.
         14    1    4    4    0    0  0.11015191378E+03 -0.17590745072E+02 -0.43961604857E+02  0.11989787789E+03  0.00000000000E+00 0. -1.
         -5    1    5    5    0  502 -0.66108796445E+02 -0.43536593700E+02  0.23994317825E+03  0.25270660210E+03  0.47000000000E+01 0.  1.
         11    1    6    6    0    0 -0.62128169137E+02 -0.39793085551E+02  0.20299267869E+02  0.76520973164E+02  0.00000000000E+00 0. -1.
        -12    1    6    6    0    0 -0.87310241368E+01  0.23994736486E+02  0.47918309121E+02  0.54296800187E+02  0.00000000000E+00 0.  1.
</event>
<event>
12    1  0.8526130E-002  0.3133032E+03  0.7818608E-02  0.1078966E+00
         21   -1    0    0  501  502  0.00000000000E+00  0.00000000000E+00  0.18547345067E+04  0.18547345067E+04  0.00000000000E+00 0.  1.
         21   -1    0    0  502  503 -0.00000000000E+00 -0.00000000000E+00 -0.81660146843E+02  0.81660146843E+02  0.00000000000E+00 0.  1.
         -6    2    1    2    0  503 -0.20194764226E+03 -0.16578516722E+03  0.30797462714E+03  0.43817033617E+03  0.16993322410E+03 0.  0.
        -24    2    3    3    0    0 -0.75639314722E+02 -0.14397929593E+03  0.20865507792E+03  0.27594902904E+03  0.78483001349E+02 0.  0.
          6    2    1    2  501    0  0.20194764226E+03  0.16578516722E+03  0.14650997327E+04  0.14982243174E+04  0.17289102491E+03 0.  0.
         24    2    5    5    0    0  0.10968640641E+03  0.18933552358E+02  0.68683185753E+03  0.70085331967E+03  0.84070137553E+02 0.  0.
          5    1    5    5  501    0  0.92261235851E+02  0.14685161486E+03  0.77826787519E+03  0.79737099771E+03  0.47000000000E+01 0. -1.
        -11    1    6    6    0    0  0.14906368341E+02  0.29103127797E+02  0.32623947172E+03  0.32787403797E+03  0.00000000000E+00 0.  1.
         12    1    6    6    0    0  0.94780038065E+02 -0.10169575439E+02  0.36059238581E+03  0.37297928171E+03  0.00000000000E+00 0. -1.
         -5    1    3    3    0  503 -0.12630832754E+03 -0.21805871289E+02  0.99319549225E+02  0.16222130713E+03  0.47000000000E+01 0.  1.
         13    1    4    4    0    0 -0.49997942462E+02 -0.65785794312E+02  0.16071650987E+03  0.18071347910E+03  0.00000000000E+00 0. -1.
        -14    1    4    4    0    0 -0.25641372259E+02 -0.78193501616E+02  0.47938568049E+02  0.95235549943E+02  0.00000000000E+00 0.  1.
</event>
<event>
12    1  0.8526130E-002  0.2021116E+03  0.7818608E-02  0.1148037E+00
         21   -1    0    0  503  502  0.00000000000E+00  0.00000000000E+00  0.14334919048E+03  0.14334919048E+03  0.00000000000E+00 0.  1.
         21   -1    0    0  501  503 -0.00000000000E+00 -0.00000000000E+00 -0.56461902794E+03  0.56461902794E+03  0.00000000000E+00 0. -1.
          6    2    1    2  501    0 -0.71592090639E+02 -0.80123446539E+02 -0.45987886440E+03  0.50220197724E+03  0.17080123507E+03 0.  0.
         24    2    3    3    0    0 -0.85212015083E+02 -0.23426924177E+01 -0.33099657599E+03  0.35098001350E+03  0.79760020291E+02 0.  0.
         -6    2    1    2    0  502  0.71592090639E+02  0.80123446539E+02  0.38609026944E+02  0.20576624117E+03  0.17118380449E+03 0.  0.
        -24    2    5    5    0    0  0.57160744410E+02 -0.16410671184E+02 -0.71182467851E+01  0.97876606820E+02  0.77411238816E+02 0.  0.
          5    1    3    3  501    0  0.13619924444E+02 -0.77780754121E+02 -0.12888228841E+03  0.15122196375E+03  0.47000000000E+01 0. -1.
        -11    1    4    4    0    0 -0.15454737253E+01 -0.83903337551E+01  0.96309324801E+00  0.85856705133E+01  0.00000000000E+00 0.  1.
         12    1    4    4    0    0 -0.83666541358E+02  0.60476413375E+01 -0.33195966924E+03  0.34239434298E+03  0.00000000000E+00 0. -1.
         -5    1    5    5    0  502  0.14431346229E+02  0.96534117723E+02  0.45727273729E+02  0.10788963435E+03  0.47000000000E+01 0.  1.
         11    1    6    6    0    0  0.11125992070E+02 -0.47646111714E+01 -0.38898556378E+02  0.40738027780E+02  0.00000000000E+00 0. -1.
        -12    1    6    6    0    0  0.46034752340E+02 -0.11646060012E+02  0.31780309593E+02  0.57138579039E+02  0.00000000000E+00 0.  1.
</event>
<event>
12    1  0.8526130E-002  0.1764119E+03  0.7818608E-02  0.1171351E+00
         21   -1    0    0  501  502  0.00000000000E+00  0.00000000000E+00  0.27783263652E+03  0.27783263652E+03  0.00000000000E+00 0.  1.
         21   -1    0    0  502  503 -0.00000000000E+00 -0.00000000000E+00 -0.34457312214E+03  0.34457312214E+03  0.00000000000E+00 0.  1.
         -6    2    1    2    0  503  0.20789280878E+02  0.39994538967E+02 -0.28907959927E+03  0.33865642058E+03  0.17055614659E+03 0.  0.
        -24    2    3    3    0    0  0.10269418796E+02 -0.31620706719E+02 -0.82706572692E+02  0.11990695884E+03  0.80199573293E+02 0.  0.
          6    2    1    2  501    0 -0.20789280878E+02 -0.39994538967E+02  0.22233911365E+03  0.28374933807E+03  0.17043253226E+03 0.  0.
         24    2    5    5    0    0  0.51922249429E+02 -0.15561542302E+02  0.10476413469E+03  0.14328616267E+03  0.81346904746E+02 0.  0.
          5    1    5    5  501    0 -0.72711530307E+02 -0.24432996666E+02  0.11757497896E+03  0.14046317540E+03  0.47000000000E+01 0. -1.
        -11    1    6    6    0    0  0.29272290955E+02 -0.20557809740E+02  0.11311361329E+03  0.11863464954E+03  0.00000000000E+00 0.  1.
         12    1    6    6    0    0  0.22649958474E+02  0.49962674383E+01 -0.83494785983E+01  0.24651513139E+02  0.00000000000E+00 0. -1.
         -5    1    3    3    0  503  0.10519862082E+02  0.71615245686E+02 -0.20637302658E+03  0.21874946174E+03  0.47000000000E+01 0.  1.
         11    1    4    4    0    0 -0.44329013501E+01  0.46288108314E+01  0.14104076610E+02  0.15491981187E+02  0.00000000000E+00 0. -1.
        -12    1    4    4    0    0  0.14702320146E+02 -0.36249517550E+02 -0.96810649302E+02  0.10441497765E+03  0.00000000000E+00 0.  1.
</event>
<event>
12    1  0.8526130E-002  0.2309252E+03  0.7818608E-02  0.1126266E+00
         21   -1    0    0  501  502  0.00000000000E+00  0.00000000000E+00  0.53590938258E+03  0.53590938258E+03  0.00000000000E+00 0. -1.
         21   -1    0    0  502  503 -0.00000000000E+00 -0.00000000000E+00 -0.10519435798E+03  0.10519435798E+03  0.00000000000E+00 0. -1.
         -6    2    1    2    0  503  0.12222314595E+03 -0.94247215961E+02  0.13582953352E+03  0.26655880055E+03  0.16965522938E+03 0.  0.
        -24    2    3    3    0    0  0.73209301228E+02 -0.68850005379E+02  0.92599806180E+01  0.12839470609E+03  0.79369567737E+02 0.  0.
          6    2    1    2  501    0 -0.12222314595E+03  0.94247215961E+02  0.29488549109E+03  0.37454494000E+03  0.17177142982E+03 0.  0.
         24    2    5    5    0    0 -0.45812754576E+02 -0.12444002719E+02  0.82491448266E+02  0.12483534171E+03  0.80779711664E+02 0.  0.
          5    1    5    5  501    0 -0.76410391373E+02  0.10669121868E+03  0.21239404282E+03  0.24970959829E+03  0.47000000000E+01 0. -1.
        -13    1    6    6    0    0 -0.39825804750E+01 -0.17673547515E+01 -0.16380039441E+02  0.16949636637E+02  0.00000000000E+00 0.  1.
         14    1    6    6    0    0 -0.41830174101E+02 -0.10676647967E+02  0.98871487706E+02  0.10788570507E+03  0.00000000000E+00 0. -1.
         -5    1    3    3    0  503  0.49013844721E+02 -0.25397210582E+02  0.12656955290E+03  0.13816409447E+03  0.47000000000E+01 0.  1.
         11    1    4    4    0    0  0.88717688552E+02 -0.50459572805E+02 -0.14210080386E+01  0.10207358137E+03  0.00000000000E+00 0. -1.
        -12    1    4    4    0    0 -0.15508387324E+02 -0.18390432574E+02  0.10680988657E+02  0.26321124716E+02  0.00000000000E+00 0.  1.
</event>
<event>
12    1  0.8526130E-002  0.2208078E+03  0.7818608E-02  0.1133597E+00
         21   -1    0    0  501  502  0.00000000000E+00  0.00000000000E+00  0.12866337447E+03  0.12866337447E+03  0.00000000000E+00 0. -1.
         21   -1    0    0  502  503 -0.00000000000E+00 -0.00000000000E+00 -0.37620124527E+03  0.37620124527E+03  0.00000000000E+00 0.  1.
         -6    2    1    2    0  503  0.75204286317E+02 -0.11076062541E+03 -0.11912961273E+03  0.25089430269E+03  0.17559181550E+03 0.  0.
        -24    2    3    3    0    0  0.93119603622E+02 -0.69356918861E+02 -0.14219063177E+03  0.20001084654E+03  0.79401008794E+02 0.  0.
          6    2    1    2  501    0 -0.75204286317E+02  0.11076062541E+03 -0.12840825806E+03  0.25397031706E+03  0.17346077478E+03 0.  0.
         24    2    5    5    0    0 -0.80780225633E+02  0.13295767540E+03 -0.14002246725E+03  0.22787855623E+03  0.90106363553E+02 0.  0.
          5    1    5    5  501    0  0.55759393165E+01 -0.22197049993E+02  0.11614209194E+02  0.26091760824E+02  0.47000000000E+01 0. -1.
        -11    1    6    6    0    0  0.14702759990E+01 -0.73859840557E+01 -0.31365495114E+02  0.32256917952E+02  0.00000000000E+00 0.  1.
         12    1    6    6    0    0 -0.82250501632E+02  0.14034365946E+03 -0.10865697214E+03  0.19562163828E+03  0.00000000000E+00 0. -1.
         -5    1    3    3    0  503 -0.17915317306E+02 -0.41403706548E+02  0.23061019040E+02  0.50883456145E+02  0.47000000000E+01 0.  1.
         13    1    4    4    0    0  0.52005366022E+02 -0.78020132024E+02 -0.72054742556E+02  0.11825220937E+03  0.00000000000E+00 0. -1.
        -14    1    4    4    0    0  0.41114237600E+02  0.86632131638E+01 -0.70135889217E+02  0.81758637171E+02  0.00000000000E+00 0.  1.
</event>
<event>
12    1  0.8526130E-002  0.4023162E+03  0.7818608E-02  0.1043732E+00
         21   -1    0    0  501  502  0.00000000000E+00  0.00000000000E+00  0.91918445392E+02  0.91918445392E+02  0.00000000000E+00 0. -1.
         21   -1    0    0  502  503 -0.00000000000E+00 -0.00000000000E+00 -0.17265490872E+04  0.17265490872E+04  0.00000000000E+00 0.  1.
         -6    2    1    2    0  503 -0.13573491171E+03 -0.32587447855E+03 -0.84807464490E+03  0.93499220226E+03  0.17424601265E+03 0.  0.
        -24    2    3    3    0    0 -0.59961024141E+00 -0.16768312092E+03 -0.38876705248E+03  0.43073868487E+03  0.79233862597E+02 0.  0.
          6    2    1    2  501    0  0.13573491171E+03  0.32587447855E+03 -0.78655599692E+03  0.88347533035E+03  0.19297715155E+03 0.  0.
         24    2    5    5    0    0  0.22590986924E+02  0.25207785897E+03 -0.47982167120E+03  0.54828057300E+03  0.79555960850E+02 0.  0.
          5    1    5    5  501    0  0.11314392479E+03  0.73796619578E+02 -0.30673432572E+03  0.33519475735E+03  0.47000000000E+01 0. -1.
        -11    1    6    6    0    0 -0.16085349993E+02  0.16575760046E+03 -0.35056378414E+03  0.38810989081E+03  0.00000000000E+00 0.  1.
         12    1    6    6    0    0  0.38676336917E+02  0.86320258513E+02 -0.12925788705E+03  0.16017068219E+03  0.00000000000E+00 0. -1.
         -5    1    3    3    0  503 -0.13513530147E+03 -0.15819135763E+03 -0.45930759243E+03  0.50425351738E+03  0.47000000000E+01 0.  1.
         13    1    4    4    0    0 -0.31521496460E+02 -0.10433529357E+03 -0.18038321825E+03  0.21075474763E+03  0.00000000000E+00 0. -1.
        -14    1    4    4    0    0  0.30921886219E+02 -0.63347827350E+02 -0.20838383423E+03  0.21998393725E+03  0.00000000000E+00 0.  1.
</event>
<event>
12    1  0.8526130E-002  0.3609860E+03  0.7818608E-02  0.1058317E+00
         21   -1    0    0  501  502  0.00000000000E+00  0.00000000000E+00  0.72550189206E+03  0.72550189206E+03  0.00000000000E+00 0. -1.
         21   -1    0    0  502  503 -0.00000000000E+00 -0.00000000000E+00 -0.18494332116E+03  0.18494332116E+03  0.00000000000E+00 0. -1.
         -6    2    1    2    0  503 -0.21409467940E+03 -0.23307869295E+03  0.18820149119E+03  0.40599856506E+03  0.17103457164E+03 0.  0.
        -24    2    3    3    0    0 -0.16111564518E+03 -0.23740486080E+03  0.18763288167E+03  0.35263277909E+03  0.82610287216E+02 0.  0.
          6    2    1    2  501    0  0.21409467940E+03  0.23307869295E+03  0.35235707971E+03  0.50444664815E+03  0.17363381109E+03 0.  0.
         24    2    5    5    0    0  0.16770059846E+03  0.23767267504E+03  0.34314044013E+03  0.45669152421E+03  0.78803524332E+02 0.  0.
          5    1    5    5  501    0  0.46394080941E+02 -0.45939820928E+01  0.92166395846E+01  0.47755123946E+02  0.47000000000E+01 0. -1.
        -13    1    6    6    0    0  0.90714365965E+01  0.17601704377E+02  0.65872305495E+02  0.68784239402E+02  0.00000000000E+00 0.  1.
         14    1    6    6    0    0  0.15862916187E+03  0.22007097066E+03  0.27726813463E+03  0.38790728481E+03  0.00000000000E+00 0. -1.
         -5    1    3    3    0  503 -0.52979034226E+02  0.43261678547E+01  0.56860952032E+00  0.53365785974E+02  0.47000000000E+01 0.  1.
         13    1    4    4    0    0 -0.12942847096E+03 -0.18365739992E+03  0.10217700278E+03  0.24682364056E+03  0.00000000000E+00 0. -1.
        -14    1    4    4    0    0 -0.31687174215E+02 -0.53747460880E+02  0.85455878885E+02  0.10580913853E+03  0.00000000000E+00 0.  1.
</event>
<event>
12    1  0.8526130E-002  0.1826780E+03  0.7818608E-02  0.1166096E+00
         21   -1    0    0  503  502  0.00000000000E+00  0.00000000000E+00  0.22203371635E+04  0.22203371635E+04  0.00000000000E+00 0. -1.
         21   -1    0    0  501  503 -0.00000000000E+00 -0.00000000000E+00 -0.14772583560E+02  0.14772583560E+02  0.00000000000E+00 0.  1.
          6    2    1    2  501    0 -0.48722389749E+02  0.95352202459E+01  0.10365218292E+04  0.10518801778E+04  0.17207444418E+03 0.  0.
         24    2    3    3    0    0 -0.85449763278E+02 -0.31399754723E+02  0.64278874380E+03  0.65429697306E+03  0.81483453342E+02 0.  0.
         -6    2    1    2    0  502  0.48722389749E+02 -0.95352202459E+01  0.11690427507E+04  0.11832295692E+04  0.17580235732E+03 0.  0.
        -24    2    5    5    0    0  0.19159599253E+02 -0.23022013693E+02  0.11231193432E+04  0.11267769206E+04  0.85627486231E+02 0.  0.
          5    1    3    3  501    0  0.36727373529E+02  0.40934974969E+02  0.39373308543E+03  0.39758320475E+03  0.47000000000E+01 0. -1.
        -11    1    4    4    0    0  0.47419271213E+01 -0.46215442487E+01  0.24139711475E+01  0.70478224131E+01  0.00000000000E+00 0.  1.
         12    1    4    4    0    0 -0.90191690399E+02 -0.26778210475E+02  0.64037477265E+03  0.64724915065E+03  0.00000000000E+00 0. -1.
         -5    1    5    5    0  502  0.29562790495E+02  0.13486793447E+02  0.45923407517E+02  0.56452648630E+02  0.47000000000E+01 0.  1.
         13    1    6    6    0    0  0.45850190584E+01  0.31130936965E+02  0.27246268863E+03  0.27427372155E+03  0.00000000000E+00 0. -1.
        -14    1    6    6    0    0  0.14574580195E+02 -0.54152950657E+02  0.85065665456E+03  0.85250319906E+03  0.00000000000E+00 0.  1.
</event>
<event>
12    1  0.8526130E-002  0.1872304E+03  0.7818608E-02  0.1161464E+00
         21   -1    0    0  501  502  0.00000000000E+00  0.00000000000E+00  0.71244264548E+02  0.71244264548E+02  0.00000000000E+00 0.  1.
         21   -1    0    0  502  503 -0.00000000000E+00 -0.00000000000E+00 -0.65063204529E+03  0.65063204529E+03  0.00000000000E+00 0.  1.
         -6    2    1    2    0  503  0.37174550428E+02 -0.59269490006E+02 -0.46971610061E+03  0.50488986957E+03  0.17142271021E+03 0.  0.
        -24    2    3    3    0    0  0.61960092675E+01  0.30059702271E+02 -0.17783145078E+03  0.19803792903E+03  0.81566048189E+02 0.  0.
          6    2    1    2  501    0 -0.37174550428E+02  0.59269490006E+02 -0.10967168014E+03  0.21698644027E+03  0.17366755078E+03 0.  0.
         24    2    5    5    0    0 -0.86055428957E+02  0.14215101684E+02 -0.97054841034E+02  0.14915935997E+03  0.72258331914E+02 0.  0.
          5    1    5    5  501    0  0.48880878529E+02  0.45054388321E+02 -0.12616839102E+02  0.67827080297E+02  0.47000000000E+01 0. -1.
        -11    1    6    6    0    0 -0.41760278510E+02  0.10902595403E+02 -0.81983592667E+00  0.43167807203E+02  0.00000000000E+00 0.  1.
         12    1    6    6    0    0 -0.44295150447E+02  0.33125062818E+01 -0.96235005107E+02  0.10599155277E+03  0.00000000000E+00 0. -1.
         -5    1    3    3    0  503  0.30978541161E+02 -0.89329192277E+02 -0.29188464983E+03  0.30685194054E+03  0.47000000000E+01 0.  1.
         11    1    4    4    0    0 -0.37054353553E+02  0.96614413925E+01 -0.64174984481E+02  0.74731500722E+02  0.00000000000E+00 0. -1.
        -12    1    4    4    0    0  0.43250362820E+02  0.20398260879E+02 -0.11365646630E+03  0.12330642831E+03  0.00000000000E+00 0.  1.
</event>
<event>
12    1  0.8526130E-002  0.1994408E+03  0.7818608E-02  0.1150625E+00
         21   -1    0    0  503  502  0.00000000000E+00  0.00000000000E+00  0.97982423180E+03  0.97982423180E+03  0.00000000000E+00 0.  1.
         21   -1    0    0  501  503 -0.00000000000E+00 -0.00000000000E+00 -0.66026023878E+02  0.66026023878E+02  0.00000000000E+00 0. -1.
          6    2    1    2  501    0 -0.21704747746E+02  0.93585235875E+02  0.13122411731E+03  0.23873922849E+03  0.17477802439E+03 0.  0.
         24    2    3    3    0    0  0.25592032402E+02 -0.18511541621E+01  0.96429622625E+02  0.12658827301E+03  0.77894414752E+02 0.  0.
         -6    2    1    2    0  502  0.21704747746E+02 -0.93585235875E+02  0.78257409061E+03  0.80711102718E+03  0.17255929548E+03 0.  0.
        -24    2    5    5    0    0 -0.64548222990E+01 -0.12449098616E+03  0.68348719631E+03  0.69946145957E+03  0.80943903631E+02 0.  0.
          5    1    3    3  501    0 -0.47296780148E+02  0.95436390037E+02  0.34794494685E+02  0.11215095548E+03  0.47000000000E+01 0. -1.
        -11    1    4    4    0    0  0.36237260665E+02  0.30863635540E+02  0.55040258432E+02  0.72767665261E+02  0.00000000000E+00 0.  1.
         12    1    4    4    0    0 -0.10645228263E+02 -0.32714789702E+02  0.41389364193E+02  0.53820607748E+02  0.00000000000E+00 0. -1.
         -5    1    5    5    0  502  0.28159570045E+02  0.30905750282E+02  0.99086894295E+02  0.10764956761E+03  0.47000000000E+01 0.  1.
         11    1    6    6    0    0 -0.78030809451E+01 -0.65552499023E+02  0.16627980397E+03  0.17890497871E+03  0.00000000000E+00 0. -1.
        -12    1    6    6    0    0  0.13482586461E+01 -0.58938487134E+02  0.51720739234E+03  0.52055648086E+03  0.00000000000E+00 0.  1.
</event>
<event>
12    1  0.8526130E-002  0.2258896E+03  0.7818608E-02  0.1130072E+00
         21   -1    0    0  501  502  0.00000000000E+00  0.00000000000E+00  0.71247963328E+02  0.71247963328E+02  0.00000000000E+00 0.  1.
         21   -1    0    0  502  503 -0.00000000000E+00 -0.00000000000E+00 -0.72192512804E+03  0.72192512804E+03  0.00000000000E+00 0.  1.
         -6    2    1    2    0  503  0.12739821874E+03 -0.66007434697E+02 -0.27100214272E+03  0.35280061655E+03  0.17446726371E+03 0.  0.
        -24    2    3    3    0    0  0.80325671177E+02 -0.41220700986E+01 -0.24649594556E+03  0.27114116036E+03  0.79297369159E+02 0.  0.
          6    2    1    2  501    0 -0.12739821874E+03  0.66007434697E+02 -0.37967502199E+03  0.44037247482E+03  0.17084351519E+03 0.  0.
         24    2    5    5    0    0 -0.48751807655E+02 -0.26982189331E+02 -0.19438475935E+03  0.21859127728E+03  0.83017676095E+02 0.  0.
          5    1    5    5  501    0 -0.78646411080E+02  0.92989624028E+02 -0.18529026264E+03  0.22178119754E+03  0.47000000000E+01 0. -1.
        -11    1    6    6    0    0 -0.29996401145E+02  0.28489612966E+02 -0.84138860189E+02  0.93759212467E+02  0.00000000000E+00 0.  1.
         12    1    6    6    0    0 -0.18755406511E+02 -0.55471802297E+02 -0.11024589916E+03  0.12483206481E+03  0.00000000000E+00 0. -1.
         -5    1    3    3    0  503  0.47072547558E+02 -0.61885364598E+02 -0.24506197163E+02  0.81659456185E+02  0.47000000000E+01 0.  1.
         13    1    4    4    0    0  0.88302800461E+02  0.10733124504E+02 -0.23344706526E+03  0.24982016894E+03  0.00000000000E+00 0. -1.
        -14    1    4    4    0    0 -0.79771292843E+01 -0.14855194603E+02 -0.13048880299E+02  0.21320991425E+02  0.00000000000E+00 0.  1.
</event>
<event>
12    1  0.8526130E-002  0.1966354E+03  0.7818608E-02  0.1152646E+00
         21   -1    0    0  503  502  0.00000000000E+00  0.00000000000E+00  0.73265246711E+02  0.73265246711E+02  0.00000000000E+00 0.  1.
         21   -1    0    0  501  503 -0.00000000000E+00 -0.00000000000E+00 -0.54531012289E+03  0.54531012289E+03  0.00000000000E+00 0.  1.
          6    2    1    2  501    0 -0.39389789059E+02 -0.86618198098E+02 -0.29214414068E+03  0.35206130285E+03  0.17188570129E+03 0.  0.
         24    2    3    3    0    0 -0.16754373679E+02 -0.10119175840E+03 -0.29950590220E+03  0.32375871954E+03  0.67789689636E+02 0.  0.
         -6    2    1    2    0  502  0.39389789059E+02  0.86618198098E+02 -0.17990073550E+03  0.26651406675E+03  0.17207906735E+03 0.  0.
        -24    2    5    5    0    0  0.47069541590E+02 -0.13586261096E+02 -0.64000039770E+02  0.11303777050E+03  0.79255310434E+02 0.  0.
          5    1    3    3  501    0 -0.22635415380E+02  0.14573560299E+02  0.73617615222E+01  0.28302583309E+02  0.47000000000E+01 0. -1.
        -11    1    4    4    0    0 -0.23279187581E+01 -0.10725635947E+03 -0.25961554880E+03  0.28090848871E+03  0.00000000000E+00 0.  1.
         12    1    4    4    0    0 -0.14426454920E+02  0.60646010684E+01 -0.39890353397E+02  0.42850230826E+02  0.00000000000E+00 0. -1.
         -5    1    5    5    0  502 -0.76797525310E+01  0.10020445919E+03 -0.11590069573E+03  0.15347629626E+03  0.47000000000E+01 0.  1.
         11    1    6    6    0    0  0.34348088087E+02  0.68664820833E+01 -0.77769230632E+02  0.85293569304E+02  0.00000000000E+00 0. -1.
        -12    1    6    6    0    0  0.12721453503E+02 -0.20452743180E+02  0.13769190862E+02  0.27744201192E+02  0.00000000000E+00 0.  1.
</event>
<event>
12    1  0.8526130E-002  0.2245820E+03  0.7818608E-02  0.1131081E+00
         21   -1    0    0  501  502  0.00000000000E+00  0.00000000000E+00  0.62474761609E+03  0.62474761609E+03  0.00000000000E+00 0. -1.
         21   -1    0    0  502  503 -0.00000000000E+00 -0.00000000000E+00 -0.82674578230E+02  0.82674578230E+02  0.00000000000E+00 0.  1.
         -6    2    1    2    0  503 -0.13513626005E+03 -0.50240091776E+02  0.20119745066E+03  0.29921482095E+03  0.16811668367E+03 0.  0.
        -24    2    3    3    0    0 -0.12884328479E+03 -0.91735850417E+02  0.17568677608E+03  0.24987534345E+03  0.80967806503E+02 0.  0.
          6    2    1    2  501    0  0.13513626005E+03  0.50240091776E+02  0.34087558720E+03  0.40820737336E+03  0.17219529063E+03 0.  0.
         24    2    5    5    0    0 -0.29273276209E+01  0.15186300439E+02  0.13003063668E+03  0.15371178266E+03  0.80499395556E+02 0.  0.
          5    1    5    5  501    0  0.13806358767E+03  0.35053791337E+02  0.21084495052E+03  0.25449559070E+03  0.47000000000E+01 0. -1.
        -11    1    6    6    0    0 -0.27896706801E+01  0.34186295717E+02  0.13026987548E+03  0.13470978263E+03  0.00000000000E+00 0.  1.
         12    1    6    6    0    0 -0.13765694081E+00 -0.18999995279E+02 -0.23923880163E+00  0.19002000032E+02  0.00000000000E+00 0. -1.
         -5    1    3    3    0  503 -0.62929752606E+01  0.41495758641E+02  0.25510674574E+02  0.49339477501E+02  0.47000000000E+01 0.  1.
         13    1    4    4    0    0 -0.95183864395E+01 -0.36401069650E+01  0.62432058783E+02  0.63258296081E+02  0.00000000000E+00 0. -1.
        -14    1    4    4    0    0 -0.11932489835E+03 -0.88095743452E+02  0.11325471730E+03  0.18661704737E+03  0.00000000000E+00 0.  1.
</event>
<event>
12    1  0.8526130E-002  0.2181297E+03  0.7818608E-02  0.1135774E+00
         21   -1    0    0  503  502  0.00000000000E+00  0.00000000000E+00  0.61293519409E+03  0.61293519409E+03  0.00000000000E+00 0.  1.
         21   -1    0    0  501  503 -0.00000000000E+00 -0.00000000000E+00 -0.94102223333E+02  0.94102223333E+02  0.00000000000E+00 0.  1.
          6    2    1    2  501    0  0.60108100454E+02  0.11766054439E+03  0.10870835973E+03  0.24371722518E+03  0.17356149034E+03 0.  0.
         24    2    3    3    0    0  0.10915474944E+03  0.98136403011E+02  0.73667743548E+02  0.18018219031E+03  0.74115938541E+02 0.  0.
         -6    2    1    2    0  502 -0.60108100454E+02 -0.11766054439E+03  0.41012461103E+03  0.46332019225E+03  0.17031270218E+03 0.  0.
        -24    2    5    5    0    0 -0.72664977067E+02 -0.18021735401E+02  0.26344363709E+03  0.28549172005E+03  0.80610113857E+02 0.  0.
          5    1    3    3  501    0 -0.49046648984E+02  0.19524141378E+02  0.35040616180E+02  0.63535034865E+02  0.47000000000E+01 0. -1.
        -13    1    4    4    0    0  0.81682549568E+02  0.44562062213E+02  0.11696200488E+02  0.93779621445E+02  0.00000000000E+00 0.  1.
         14    1    4    4    0    0  0.27472199870E+02  0.53574340798E+02  0.61971543060E+02  0.86402568868E+02  0.00000000000E+00 0. -1.
         -5    1    5    5    0  502  0.12556876612E+02 -0.99638808987E+02  0.14668097394E+03  0.17782847219E+03  0.47000000000E+01 0.  1.
         11    1    6    6    0    0  0.77607959676E+01  0.11262260082E+02  0.74633935952E+01  0.15581100736E+02  0.00000000000E+00 0. -1.
        -12    1    6    6    0    0 -0.80425773034E+02 -0.29283995483E+02  0.25598024350E+03  0.26991061932E+03  0.00000000000E+00 0.  1.
</event>
<event>
12    1  0.8526130E-002  0.3313103E+03  0.7818608E-02  0.1070637E+00
         21   -1    0    0  503  502  0.00000000000E+00  0.00000000000E+00  0.11760961195E+03  0.11760961195E+03  0.00000000000E+00 0. -1.
         21   -1    0    0  501  503 -0.00000000000E+00 -0.00000000000E+00 -0.10946712243E+04  0.10946712243E+04  0.00000000000E+00 0. -1.
          6    2    1    2  501    0 -0.16322983187E+03 -0.23076123847E+03 -0.72312959123E+03  0.79541369935E+03  0.17283466151E+03 0.  0.
         24    2    3    3    0    0 -0.16072076929E+03 -0.10942672554E+03 -0.47295712579E+03  0.51731890996E+03  0.78262620878E+02 0.  0.
         -6    2    1    2    0  502  0.16322983187E+03  0.23076123847E+03 -0.25393202116E+03  0.41686713693E+03  0.17147014695E+03 0.  0.
        -24    2    5    5    0    0  0.14247522428E+03  0.98541898910E+02 -0.11448864496E+03  0.22352998930E+03  0.82754522042E+02 0.  0.
          5    1    3    3  501    0 -0.25090625773E+01 -0.12133451292E+03 -0.25017246544E+03  0.27809478939E+03  0.47000000000E+01 0. -1.
        -11    1    4    4    0    0 -0.74735259863E+02 -0.50399739242E+02 -0.12530608029E+03  0.15436031401E+03  0.00000000000E+00 0.  1.
         12    1    4    4    0    0 -0.85985509430E+02 -0.59026986300E+02 -0.34765104549E+03  0.36295859595E+03  0.00000000000E+00 0. -1.
         -5    1    5    5    0  502  0.20754607592E+02  0.13221933956E+03 -0.13944337620E+03  0.19333714763E+03  0.47000000000E+01 0.  1.
         11    1    6    6    0    0  0.40620427817E+02  0.73399509007E+02 -0.71223938048E+02  0.11004706461E+03  0.00000000000E+00 0. -1.
        -12    1    6    6    0    0  0.10185479646E+03  0.25142389903E+02 -0.43264706915E+02  0.11348292469E+03  0.00000000000E+00 0.  1.
</event>
<event>
12    1  0.8526130E-002  0.1934287E+03  0.7818608E-02  0.1156098E+00
         21   -1    0    0  501  502  0.00000000000E+00  0.00000000000E+00  0.40698101520E+02  0.40698101520E+02  0.00000000000E+00 0.  1.
         21   -1    0    0  502  503 -0.00000000000E+00 -0.00000000000E+00 -0.90486275347E+03  0.90486275347E+03  0.00000000000E+00 0.  1.
         -6    2    1    2    0  503  0.33887356292E+02  0.80134369063E+02 -0.43736707486E+03  0.47697699465E+03  0.16925491197E+03 0.  0.
        -24    2    3    3    0    0  0.81227555879E+02  0.60978038661E+02 -0.23362663575E+03  0.26688102605E+03  0.79547722154E+02 0.  0.
          6    2    1    2  501    0 -0.33887356292E+02 -0.80134369063E+02 -0.42679757708E+03  0.46858386034E+03  0.17275645384E+03 0.  0.
         24    2    5    5    0    0 -0.18486471932E+01 -0.12110313375E+03 -0.31015689291E+03  0.34078692076E+03  0.72588157717E+02 0.  0.
          5    1    5    5  501    0 -0.32038709098E+02  0.40968764690E+02 -0.11664068417E+03  0.12779693957E+03  0.47000000000E+01 0. -1.
        -11    1    6    6    0    0 -0.90589636165E+01 -0.12854795121E+03 -0.29884082306E+03  0.32544197349E+03  0.00000000000E+00 0.  1.
         12    1    6    6    0    0  0.72103164233E+01  0.74448174570E+01 -0.11316069852E+02  0.15344947272E+02  0.00000000000E+00 0. -1.
         -5    1    3    3    0  503 -0.47340199587E+02  0.19156330402E+02 -0.20374043911E+03  0.21009596860E+03  0.47000000000E+01 0.  1.
         11    1    4    4    0    0  0.18235979759E+02 -0.95183008082E+01 -0.10642428893E+03  0.10839408786E+03  0.00000000000E+00 0. -1.
        -12    1    4    4    0    0  0.62991576120E+02  0.70496339470E+02 -0.12720234681E+03  0.15848693819E+03  0.00000000000E+00 0.  1.
</event>
<event>
12    1  0.8526130E-002  0.1871765E+03  0.7818608E-02  0.1161088E+00
         21   -1    0    0  501  502  0.00000000000E+00  0.00000000000E+00  0.22591291927E+03  0.22591291927E+03  0.00000000000E+00 0. -1.
         21   -1    0    0  502  503 -0.00000000000E+00 -0.00000000000E+00 -0.70018923939E+03  0.70018923939E+03  0.00000000000E+00 0. -1.
         -6    2    1    2    0  503  0.68812846999E+02 -0.20733545767E+02 -0.64581122394E+03  0.67238916528E+03  0.17282929377E+03 0.  0.
        -24    2    3    3    0    0  0.42166834637E+02 -0.64848157293E+02 -0.28140533401E+03  0.30432687226E+03  0.86270259789E+02 0.  0.
          6    2    1    2  501    0 -0.68812846999E+02  0.20733545767E+02  0.17153490382E+03  0.25371299338E+03  0.17257164295E+03 0.  0.
         24    2    5    5    0    0  0.26325537456E+02  0.23023110323E+02  0.11304789832E+03  0.14191239358E+03  0.78333917351E+02 0.  0.
          5    1    5    5  501    0 -0.95138384454E+02 -0.22895645555E+01  0.58487005500E+02  0.11180059980E+03  0.47000000000E+01 0. -1.
        -13    1    6    6    0    0  0.28579033880E+02 -0.23295176295E+02  0.33405681204E+02  0.49753049684E+02  0.00000000000E+00 0.  1.
         14    1    6    6    0    0 -0.22534964249E+01  0.46318286618E+02  0.79642217114E+02  0.92159343901E+02  0.00000000000E+00 0. -1.
         -5    1    3    3    0  503  0.26646012362E+02  0.44114611526E+02 -0.36440588993E+03  0.36806229301E+03  0.47000000000E+01 0.  1.
         11    1    4    4    0    0 -0.22116653842E+02 -0.19816805181E+02 -0.13481898519E+03  0.13805075484E+03  0.00000000000E+00 0. -1.
        -12    1    4    4    0    0  0.64283488480E+02 -0.45031352112E+02 -0.14658634882E+03  0.16627611743E+03  0.00000000000E+00 0.  1.
</event>
<event>
12    1  0.8526130E-002  0.1815158E+03  0.7818608E-02  0.1166397E+00
         21   -1    0    0  501  502  0.00000000000E+00  0.00000000000E+00  0.11411065682E+04  0.11411065682E+04  0.00000000000E+00 0. -1.
         21   -1    0    0  502  503 -0.00000000000E+00 -0.00000000000E+00 -0.29680823772E+02  0.29680823772E+02  0.00000000000E+00 0. -1.
         -6    2    1    2    0  503 -0.43976898022E+02 -0.34262061389E+02  0.45676479346E+03  0.49142816301E+03  0.17251001838E+03 0.  0.
        -24    2    3    3    0    0 -0.61770401819E+02 -0.81441913712E+02  0.34849669750E+03  0.37190152227E+03  0.80077626407E+02 0.  0.
          6    2    1    2  501    0  0.43976898022E+02  0.34262061389E+02  0.65466095100E+03  0.67935922900E+03  0.17274300231E+03 0.  0.
         24    2    5    5    0    0  0.14889105243E+02  0.23488609529E+02  0.63803189229E+03  0.64385172912E+03  0.81773793376E+02 0.  0.
          5    1    5    5  501    0  0.29087792779E+02  0.10773451859E+02  0.16629058712E+02  0.35507499875E+02  0.47000000000E+01 0. -1.
        -11    1    6    6    0    0  0.36798372885E+02 -0.39367052340E+01  0.50205352502E+03  0.50341569292E+03  0.00000000000E+00 0.  1.
         12    1    6    6    0    0 -0.21909267642E+02  0.27425314763E+02  0.13597836727E+03  0.14043603620E+03  0.00000000000E+00 0. -1.
         -5    1    3    3    0  503  0.17793503797E+02  0.47179852323E+02  0.10826809596E+03  0.11952664074E+03  0.47000000000E+01 0.  1.
         11    1    4    4    0    0 -0.72844679234E+02 -0.33996212634E+02  0.23573810194E+03  0.24906734526E+03  0.00000000000E+00 0. -1.
        -12    1    4    4    0    0  0.11074277415E+02 -0.47445701078E+02  0.11275859555E+03  0.12283417701E+03  0.00000000000E+00 0.  1.
</event>
<event>
12    1  0.8526130E-002  0.1924518E+03  0.7818608E-02  0.1157737E+00
         21   -1    0    0  503  502  0.00000000000E+00  0.00000000000E+00  0.39001520298E+02  0.39001520298E+02  0.00000000000E+00 0.  1.
         21   -1    0    0  501  503 -0.00000000000E+00 -0.00000000000E+00 -0.92851139422E+03  0.92851139422E+03  0.00000000000E+00 0.  1.
          6    2    1    2  501    0 -0.52997585875E+02  0.46215202673E+02 -0.38533360855E+03  0.42785432956E+03  0.17214165205E+03 0.  0.
         24    2    3    3    0    0 -0.63053667350E+02 -0.14959166697E+02 -0.32786726517E+03  0.34319088488E+03  0.77996783649E+02 0.  0.
         -6    2    1    2    0  502  0.52997585875E+02 -0.46215202673E+02 -0.50417626536E+03  0.53965858496E+03  0.17914545123E+03 0.  0.
        -24    2    5    5    0    0  0.81071067031E+02 -0.54559504260E+02 -0.21879804484E+03  0.25274297635E+03  0.80356519680E+02 0.  0.
          5    1    3    3  501    0  0.10056081475E+02  0.61174369370E+02 -0.57466343385E+02  0.84663444676E+02  0.47000000000E+01 0. -1.
        -11    1    4    4    0    0 -0.27062599056E+02  0.27643374654E+02 -0.76667087145E+02  0.85874225942E+02  0.00000000000E+00 0.  1.
         12    1    4    4    0    0 -0.35991068294E+02 -0.42602541351E+02 -0.25120017803E+03  0.25731665894E+03  0.00000000000E+00 0. -1.
         -5    1    5    5    0  502 -0.28073481156E+02  0.83443015871E+01 -0.28537822052E+03  0.28691560860E+03  0.47000000000E+01 0.  1.
         11    1    6    6    0    0  0.66740749300E+01  0.16549251856E+02 -0.67083787283E+02  0.69416536427E+02  0.00000000000E+00 0. -1.
        -12    1    6    6    0    0  0.74396992101E+02 -0.71108756116E+02 -0.15171425756E+03  0.18332643993E+03  0.00000000000E+00 0.  1.
</event>
<event>
12    1  0.8526130E-002  0.2449203E+03  0.7818608E-02  0.1116643E+00
         21   -1    0    0  501  502  0.00000000000E+00  0.00000000000E+00  0.25612044941E+03  0.25612044941E+03  0.00000000000E+00 0. -1.
         21   -1    0    0  502  503 -0.00000000000E+00 -0.00000000000E+00 -0.26168904980E+03  0.26168904980E+03  0.00000000000E+00 0. -1.
         -6    2    1    2    0  503 -0.13965711483E+03  0.10466250055E+03 -0.87446135292E+02  0.26006304524E+03  0.17183600372E+03 0.  0.
        -24    2    3    3    0    0 -0.49750074833E+02  0.37649096681E+02 -0.10349189507E+03  0.14668920105E+03  0.83154223773E+02 0.  0.
          6    2    1    2  501    0  0.13965711483E+03 -0.10466250055E+03  0.81877534896E+02  0.25774645397E+03  0.17108756550E+03 0.  0.
         24    2    5    5    0    0  0.13331366603E+03 -0.82094193359E+02  0.31712386464E+01  0.17548869506E+03  0.79210070098E+02 0.  0.
          5    1    5    5  501    0  0.63434488010E+01 -0.22568307194E+02  0.78706296250E+02  0.82257758915E+02  0.47000000000E+01 0. -1.
        -13    1    6    6    0    0  0.17851075898E+02  0.11985036706E+02 -0.13858271389E+02  0.25580338181E+02  0.00000000000E+00 0.  1.
         14    1    6    6    0    0  0.11546259013E+03 -0.94079230065E+02  0.17029510035E+02  0.14990835688E+03  0.00000000000E+00 0. -1.
         -5    1    3    3    0  503 -0.89907039999E+02  0.67013403872E+02  0.16045759779E+02  0.11337384419E+03  0.47000000000E+01 0.  1.
         11    1    4    4    0    0 -0.54427241976E+02 -0.27115642327E+01 -0.87380387461E+02  0.10298062615E+03  0.00000000000E+00 0. -1.
        -12    1    4    4    0    0  0.46771671425E+01  0.40360660914E+02 -0.16111507611E+02  0.43708574895E+02  0.00000000000E+00 0.  1.
</event>
<event>
12    1  0.8526130E-002  0.2476182E+03  0.7818608E-02  0.1114830E+00
         21   -1    0    0  503  502  0.00000000000E+00  0.00000000000E+00  0.54799202725E+03  0.54799202725E+03  0.00000000000E+00 0. -1.
         21   -1    0    0  501  503 -0.00000000000E+00 -0.00000000000E+00 -0.11671002811E+03  0.11671002811E+03  0.00000000000E+00 0.  1.
          6    2    1    2  501    0 -0.14581839462E+03  0.10150222396E+03  0.14786803161E+03  0.28835348072E+03  0.17238639562E+03 0.  0.
         24    2    3    3    0    0 -0.15613608285E+03  0.10538265823E+03  0.78429534511E+02  0.21788854377E+03  0.76421493041E+02 0.  0.
         -6    2    1    2    0  502  0.14581839462E+03 -0.10150222396E+03  0.28341396753E+03  0.37634857464E+03  0.17247917834E+03 0.  0.
        -24    2    5    5    0    0  0.13788170782E+03 -0.67486324859E+02  0.12419472775E+03  0.21327519021E+03  0.80599050663E+02 0.  0.
          5    1    3    3  501    0  0.10317688234E+02 -0.38804342735E+01  0.69438497094E+02  0.70464936950E+02  0.47000000000E+01 0. -1.
        -13    1    4    4    0    0 -0.67133270060E+02  0.62039967892E+02 -0.28866125962E+00  0.91410704463E+02  0.00000000000E+00 0.  1.
         14    1    4    4    0    0 -0.89002812792E+02  0.43342690340E+02  0.78718195771E+02  0.12647783931E+03  0.00000000000E+00 0. -1.
         -5    1    5    5    0  502  0.79366868018E+01 -0.34015899100E+02  0.15921923979E+03  0.16307338442E+03  0.47000000000E+01 0.  1.
         13    1    6    6    0    0  0.79409492595E+02  0.52884967625E+01  0.64775802835E+02  0.10261452307E+03  0.00000000000E+00 0. -1.
        -14    1    6    6    0    0  0.58472215220E+02 -0.72774821622E+02  0.59418924910E+02  0.11066066714E+03  0.00000000000E+00 0.  1.
</event>
<event>
12    1  0.8526130E-002  0.1747520E+03  0.7818608E-02  0.1173049E+00
         21   -1    0    0  501  502  0.00000000000E+00  0.00000000000E+00  0.86159257718E+02  0.86159257718E+02  0.00000000000E+00 0. -1.
         21   -1    0    0  502  503 -0.00000000000E+00 -0.00000000000E+00 -0.45526624480E+03  0.45526624480E+03  0.00000000000E+00 0. -1.
         -6    2    1    2    0  503  0.24113897184E+02 -0.21790353376E+02 -0.31218612707E+03  0.35763693308E+03  0.17142840615E+03 0.  0.
        -24    2    3    3    0    0  0.29971310974E+01 -0.59042837516E+02 -0.29648121079E+03  0.31178499987E+03  0.76247874293E+02 0.  0.
          6    2    1    2  501    0 -0.24113897184E+02  0.21790353376E+02 -0.56920860013E+02  0.18378856943E+03  0.17170309960E+03 0.  0.
         24    2    5    5    0    0  0.40057174522E+02  0.31722906054E+02 -0.69051275084E+02  0.11756305308E+03  0.80262524621E+02 0.  0.
          5    1    5    5  501    0 -0.64171071707E+02 -0.99325526783E+01  0.12130415071E+02  0.66225516355E+02  0.47000000000E+01 0. -1.
        -11    1    6    6    0    0  0.53863785767E+01  0.47289963644E+02 -0.63188302793E+02  0.79108250806E+02  0.00000000000E+00 0.  1.
         12    1    6    6    0    0  0.34670795946E+02 -0.15567057591E+02 -0.58629722908E+01  0.38454802270E+02  0.00000000000E+00 0. -1.
         -5    1    3    3    0  503  0.21116766087E+02  0.37252484141E+02 -0.15704916279E+02  0.45851933219E+02  0.47000000000E+01 0.  1.
         11    1    4    4    0    0  0.37416506059E+02 -0.46282781931E+02 -0.19426026890E+03  0.20317269231E+03  0.00000000000E+00 0. -1.
        -12    1    4    4    0    0 -0.34419374962E+02 -0.12760055586E+02 -0.10222094189E+03  0.10861230755E+03  0.00000000000E+00 0.  1.
</event>
<event>
12    1  0.8526130E-002  0.2134979E+03  0.7818608E-02  0.1139103E+00
         21   -1    0    0  503  502  0.00000000000E+00  0.00000000000E+00  0.13381873735E+03  0.13381873735E+03  0.00000000000E+00 0. -1.
         21   -1    0    0  501  503 -0.00000000000E+00 -0.00000000000E+00 -0.35157121891E+03  0.35157121891E+03  0.00000000000E+00 0. -1.
          6    2    1    2  501    0 -0.12122048546E+03  0.22487931743E+02 -0.15629862214E+03  0.26459519514E+03  0.17430216533E+03 0.  0.
         24    2    3    3    0    0  0.29813066538E+01  0.35831621101E+02 -0.71394227133E+02  0.11348270227E+03  0.80550572847E+02 0.  0.
         -6    2    1    2    0  502  0.12122048546E+03 -0.22487931743E+02 -0.61453859413E+02  0.22079476112E+03  0.17255038838E+03 0.  0.
        -24    2    5    5    0    0  0.10955498803E+03  0.20550822404E+01  0.17634495072E+02  0.13703617242E+03  0.80382948253E+02 0.  0.
          5    1    3    3  501    0 -0.12420179211E+03 -0.13343689359E+02 -0.84904395010E+02  0.15111249287E+03  0.47000000000E+01 0. -1.
        -13    1    4    4    0    0  0.52244525658E+01 -0.25759906987E+02 -0.25683427153E+02  0.36749233230E+02  0.00000000000E+00 0.  1.
         14    1    4    4    0    0 -0.22431459120E+01  0.61591528089E+02 -0.45710799980E+02  0.76733469038E+02  0.00000000000E+00 0. -1.
         -5    1    5    5    0  502  0.11665497433E+02 -0.24543013983E+02 -0.79088354484E+02  0.83758588699E+02  0.47000000000E+01 0.  1.
         11    1    6    6    0    0  0.17592427356E+02 -0.27536869012E+02  0.23503676632E+02  0.40251651773E+02  0.00000000000E+00 0. -1.
        -12    1    6    6    0    0  0.91962560672E+02  0.29591951252E+02 -0.58691815604E+01  0.96784520645E+02  0.00000000000E+00 0.  1.
</event>
<event>
12    1  0.8526130E-002  0.3267508E+03  0.7818608E-02  0.1073506E+00
         21   -1    0    0  503  502  0.00000000000E+00  0.00000000000E+00  0.19863558027E+03  0.19863558027E+03  0.00000000000E+00 0.  1.
         21   -1    0    0  501  503 -0.00000000000E+00 -0.00000000000E+00 -0.65280798951E+03  0.65280798951E+03  0.00000000000E+00 0. -1.
          6    2    1    2  501    0 -0.37134690091E+02 -0.26563156018E+03 -0.41832182541E+03  0.53080999001E+03  0.18661989419E+03 0.  0.
         24    2    3    3    0    0  0.99580484948E+01 -0.26132761907E+03 -0.38661161435E+03  0.47367963537E+03  0.80700491877E+02 0.  0.
         -6    2    1    2    0  502  0.37134690091E+02  0.26563156018E+03 -0.35850583819E+02  0.32063357977E+03  0.17199278224E+03 0.  0.
        -24    2    5    5    0    0  0.41865295547E+02  0.88261897675E+02 -0.63740609359E+02  0.14096076788E+03  0.79146745030E+02 0.  0.
          5    1    3    3  501    0 -0.47092738585E+02 -0.43039411112E+01 -0.31710211061E+02  0.57130354647E+02  0.47000000000E+01 0. -1.
        -11    1    4    4    0    0 -0.25279510120E+01  0.52429535368E+01 -0.35213658227E+01  0.68028755218E+01  0.00000000000E+00 0.  1.
         12    1    4    4    0    0  0.12485999507E+02 -0.26657057261E+03 -0.38309024853E+03  0.46687675985E+03  0.00000000000E+00 0. -1.
         -5    1    5    5    0  502 -0.47306054564E+01  0.17736966251E+03  0.27890025540E+02  0.17967281188E+03  0.47000000000E+01 0.  1.
         11    1    6    6    0    0  0.56424557550E+02  0.91018178021E+02 -0.66260002279E+02  0.12593024786E+03  0.00000000000E+00 0. -1.
        -12    1    6    6    0    0 -0.14559262003E+02 -0.27562803457E+01  0.25193929200E+01  0.15030520021E+02  0.00000000000E+00 0.  1.
</event>
<event>
12    1  0.8526130E-002  0.1799637E+03  0.7818608E-02  0.1168444E+00
         21   -1    0    0  501  502  0.00000000000E+00  0.00000000000E+00  0.23671806801E+03  0.23671806801E+03  0.00000000000E+00 0.  1.
         21   -1    0    0  502  503 -0.00000000000E+00 -0.00000000000E+00 -0.15287904467E+03  0.15287904467E+03  0.00000000000E+00 0. -1.
         -6    2    1    2    0  503 -0.50955918909E+02 -0.90171792583E+01 -0.25076826989E+02  0.17924119669E+03  0.16976673451E+03 0.  0.
        -24    2    3    3    0    0 -0.88989934118E+02 -0.21277431319E+02 -0.50714530342E+02  0.13153080027E+03  0.79727350229E+02 0.  0.
          6    2    1    2  501    0  0.50955918909E+02  0.90171792583E+01  0.10891585032E+03  0.21035591598E+03  0.17236337704E+03 0.  0.
         24    2    5    5    0    0 -0.16476249353E+02  0.33928435573E+02  0.10749928990E+03  0.13830201497E+03  0.78413930419E+02 0.  0.
          5    1    5    5  501    0  0.67432168262E+02 -0.24911256315E+02  0.14165604272E+01  0.72053901013E+02  0.47000000000E+01 0. -1.
        -13    1    6    6    0    0 -0.64598555325E+00 -0.10955689981E+02  0.84915487019E+02  0.85621751769E+02  0.00000000000E+00 0.  1.
         14    1    6    6    0    0 -0.15830263800E+02  0.44884125554E+02  0.22583802878E+02  0.52680263203E+02  0.00000000000E+00 0. -1.
         -5    1    3    3    0  503  0.38034015209E+02  0.12260252061E+02  0.25637703353E+02  0.47710396422E+02  0.47000000000E+01 0.  1.
         11    1    4    4    0    0 -0.25027129279E+02 -0.64313654834E-02 -0.58545501197E+02  0.63670502996E+02  0.00000000000E+00 0. -1.
        -12    1    4    4    0    0 -0.63962804839E+02 -0.21270999954E+02  0.78309708550E+01  0.67860297277E+02  0.00000000000E+00 0.  1.
</event>
<event>
12    1  0.8526130E-002  0.2135254E+03  0.7818608E-02  0.1139398E+00
         21   -1    0    0  501  502  0.00000000000E+00  0.00000000000E+00  0.32433575787E+03  0.32433575787E+03  0.00000000000E+00 0.  1.
         21   -1    0    0  502  503 -0.00000000000E+00 -0.00000000000E+00 -0.41617727922E+03  0.41617727922E+03  0.00000000000E+00 0.  1.
         -6    2    1    2    0  503  0.11556553885E+03 -0.51036177863E+02 -0.34842142874E+03  0.40864479607E+03  0.17214236007E+03 0.  0.
        -24    2    3    3    0    0  0.12451739364E+03 -0.31777826540E+02 -0.35475760967E+03  0.38598962032E+03  0.81367154292E+02 0.  0.
          6    2    1    2  501    0 -0.11556553885E+03  0.51036177863E+02  0.25657990739E+03  0.33186824102E+03  0.16835437416E+03 0.  0.
         24    2    5    5    0    0 -0.13637917854E+03  0.80074366764E+02  0.22619976576E+03  0.28473579978E+03  0.69978261593E+02 0.  0.
          5    1    5    5  501    0  0.20813639683E+02 -0.29038188901E+02  0.30380141634E+02  0.47132441240E+02  0.47000000000E+01 0. -1.
        -13    1    6    6    0    0 -0.36664670074E+02  0.31468414772E+02  0.12714684060E+03  0.13601793351E+03  0.00000000000E+00 0.  1.
         14    1    6    6    0    0 -0.99714508463E+02  0.48605951992E+02  0.99052925157E+02  0.14871786627E+03  0.00000000000E+00 0. -1.
         -5    1    3    3    0  503 -0.89518547901E+01 -0.19258351323E+02  0.63361809245E+01  0.22655175756E+02  0.47000000000E+01 0.  1.
         13    1    4    4    0    0  0.47011585162E+02 -0.87466940774E+01 -0.44331954254E+02  0.65206717174E+02  0.00000000000E+00 0. -1.
        -14    1    4    4    0    0  0.77505808482E+02 -0.23031132463E+02 -0.31042565541E+03  0.32078290314E+03  0.00000000000E+00 0.  1.
</event>
<event>
12    1  0.8526130E-002  0.2043674E+03  0.7818608E-02  0.1146986E+00
         21   -1    0    0  501  502  0.00000000000E+00  0.00000000000E+00  0.14578211890E+03  0.14578211890E+03  0.00000000000E+00 0.  1.
         21   -1    0    0  502  503 -0.00000000000E+00 -0.00000000000E+00 -0.29542998129E+03  0.29542998129E+03  0.00000000000E+00 0.  1.
         -6    2    1    2    0  503  0.96489756818E+02  0.34065287570E+02 -0.12353936986E+03  0.23518372639E+03  0.17198456985E+03 0.  0.
        -24    2    3    3    0    0  0.52971121524E+02  0.52602168368E+02 -0.74090099946E+01  0.10970130511E+03  0.80040958773E+02 0.  0.
          6    2    1    2  501    0 -0.96489756818E+02 -0.34065287570E+02 -0.26108492526E+02  0.20602837380E+03  0.17690483441E+03 0.  0.
         24    2    5    5    0    0 -0.12483122961E+03  0.99472434595E+01 -0.35059476525E+02  0.15271278431E+03  0.80063999777E+02 0.  0.
          5    1    5    5  501    0  0.28341472789E+02 -0.44012531030E+02  0.89509839989E+01  0.53315589484E+02  0.47000000000E+01 0. -1.
        -13    1    6    6    0    0 -0.92278187159E+02  0.43007327648E+02 -0.18667553936E+02  0.10350541835E+03  0.00000000000E+00 0.  1.
         14    1    6    6    0    0 -0.32553042448E+02 -0.33060084189E+02 -0.16391922588E+02  0.49207365966E+02  0.00000000000E+00 0. -1.
         -5    1    3    3    0  503  0.43518635294E+02 -0.18536880798E+02 -0.11613035987E+03  0.12548242128E+03  0.47000000000E+01 0.  1.
         11    1    4    4    0    0 -0.16877665933E+02 -0.62094048116E+01 -0.34023527280E+01  0.18302686130E+02  0.00000000000E+00 0. -1.
        -12    1    4    4    0    0  0.69848787457E+02  0.58811573179E+02 -0.40066572666E+01  0.91398618980E+02  0.00000000000E+00 0.  1.
</event>
<event>
12    1  0.8526130E-002  0.2172392E+03  0.7818608E-02  0.1136253E+00
         21   -1    0    0  501  502  0.00000000000E+00  0.00000000000E+00  0.37527699253E+03  0.37527699253E+03  0.00000000000E+00 0. -1.
         21   -1    0    0  502  503 -0.00000000000E+00 -0.00000000000E+00 -0.27796306309E+03  0.27796306309E+03  0.00000000000E+00 0. -1.
         -6    2    1    2    0  503 -0.63270290178E+02 -0.11518314384E+03 -0.19366962658E+03  0.29103397743E+03  0.17298140222E+03 0.  0.
        -24    2    3    3    0    0 -0.74624869581E+02 -0.10644117361E+02 -0.81122095117E+02  0.13693540064E+03  0.80550240455E+02 0.  0.
          6    2    1    2  501    0  0.63270290178E+02  0.11518314384E+03  0.29098355602E+03  0.36220607819E+03  0.17103077783E+03 0.  0.
         24    2    5    5    0    0 -0.97121663915E+01  0.10766856668E+03  0.14027770432E+03  0.19452408282E+03  0.80466999704E+02 0.  0.
          5    1    5    5  501    0  0.72982456570E+02  0.75145771637E+01  0.15070585169E+03  0.16768199537E+03  0.47000000000E+01 0. -1.
        -13    1    6    6    0    0  0.28605669265E+02  0.18692197078E+02  0.18321754445E+02  0.38773305658E+02  0.00000000000E+00 0.  1.
         14    1    6    6    0    0 -0.38317835657E+02  0.88976369603E+02  0.12195594988E+03  0.15575077717E+03  0.00000000000E+00 0. -1.
         -5    1    3    3    0  503  0.11354579403E+02 -0.10453902648E+03 -0.11254753146E+03  0.15409857679E+03  0.47000000000E+01 0.  1.
         13    1    4    4    0    0 -0.26775112799E+02 -0.40727545433E+02 -0.58275805724E+02  0.75971765513E+02  0.00000000000E+00 0. -1.
        -14    1    4    4    0    0 -0.47849756782E+02  0.30083428071E+02 -0.22846289393E+02  0.60963635125E+02  0.00000000000E+00 0.  1.
</event>
<event>
12    1  0.8526130E-002  0.1974271E+03  0.7818608E-02  0.1153407E+00
         21   -1    0    0  501  502  0.00000000000E+00  0.00000000000E+00  0.63851299525E+02  0.63851299525E+02  0.00000000000E+00 0.  1.
         21   -1    0    0  502  503 -0.00000000000E+00 -0.00000000000E+00 -0.60106653371E+03  0.60106653371E+03  0.00000000000E+00 0. -1.
         -6    2    1    2    0  503 -0.26779617456E+02 -0.85121709244E+02 -0.30971668679E+03  0.36369857736E+03  0.16849147101E+03 0.  0.
        -24    2    3    3    0    0 -0.28443581687E+02 -0.11880596261E+03 -0.28983759263E+03  0.32426932316E+03  0.78872490453E+02 0.  0.
          6    2    1    2  501    0  0.26779617456E+02  0.85121709244E+02 -0.22749854739E+03  0.30121925587E+03  0.17610961855E+03 0.  0.
         24    2    5    5    0    0 -0.31978340624E+02  0.10051973229E+03 -0.15309269947E+03  0.20505316540E+03  0.86501995132E+02 0.  0.
          5    1    5    5  501    0  0.58757958080E+02 -0.15398023044E+02 -0.74405847918E+02  0.96166090467E+02  0.47000000000E+01 0. -1.
        -13    1    6    6    0    0  0.20510703200E+02  0.74047501040E+02 -0.75666640455E+02  0.10783859158E+03  0.00000000000E+00 0.  1.
         14    1    6    6    0    0 -0.52489043824E+02  0.26472231248E+02 -0.77426059016E+02  0.97214573823E+02  0.00000000000E+00 0. -1.
         -5    1    3    3    0  503  0.16639642308E+01  0.33684253369E+02 -0.19879094159E+02  0.39429254197E+02  0.47000000000E+01 0.  1.
         11    1    4    4    0    0 -0.36889508698E+02 -0.14174106816E+02 -0.96373179655E+02  0.10416108157E+03  0.00000000000E+00 0. -1.
        -12    1    4    4    0    0  0.84459270117E+01 -0.10463185580E+03 -0.19346441298E+03  0.22010824160E+03  0.00000000000E+00 0.  1.
</event>
<event>
12    1  0.8526130E-002  0.2584332E+03  0.7818608E-02  0.1109316E+00
         21   -1    0    0  501  502  0.00000000000E+00  0.00000000000E+00  0.52730953640E+03  0.52730953640E+03  0.00000000000E+00 0. -1.
         21   -1    0    0  502  503 -0.00000000000E+00 -0.00000000000E+00 -0.33511368798E+03  0.33511368798E+03  0.00000000000E+00 0. -1.
         -6    2    1    2    0  503 -0.10904199270E+03 -0.14430533126E+03 -0.24658140952E+03  0.35719760765E+03  0.18459023427E+03 0.  0.
        -24    2    3    3    0    0 -0.34155128018E+01 -0.12802758422E+03 -0.15701881425E+03  0.21767891078E+03  0.79539123219E+02 0.  0.
          6    2    1    2  501    0  0.10904199270E+03  0.14430533126E+03  0.43877725794E+03  0.50522561673E+03  0.17324334595E+03 0.  0.
         24    2    5    5    0    0  0.64399002769E+02  0.12302381424E+03  0.42442022755E+03  0.45351378213E+03  0.79120987092E+02 0.  0.
          5    1    5    5  501    0  0.44642989929E+02  0.21281517020E+02  0.14357030385E+02  0.51711834602E+02  0.47000000000E+01 0. -1.
        -11    1    6    6    0    0  0.22870791376E+02  0.88079422762E+02  0.16455181593E+03  0.18803818213E+03  0.00000000000E+00 0.  1.
         12    1    6    6    0    0  0.41528211393E+02  0.34944391479E+02  0.25986841162E+03  0.26547560000E+03  0.00000000000E+00 0. -1.
         -5    1    3    3    0  503 -0.10562647990E+03 -0.16277747044E+02 -0.89562595264E+02  0.13951869686E+03  0.47000000000E+01 0.  1.
         11    1    4    4    0    0  0.32991488690E+02 -0.60911965118E+02 -0.46814027146E+02  0.83607768528E+02  0.00000000000E+00 0. -1.
        -12    1    4    4    0    0 -0.36407001491E+02 -0.67115619098E+02 -0.11020478711E+03  0.13407114226E+03  0.00000000000E+00 0.  1.
</event>
<event>
12    1  0.8526130E-002  0.1817586E+03  0.7818608E-02  0.1166402E+00
         21   -1    0    0  501  502  0.00000000000E+00  0.00000000000E+00  0.76534219650E+02  0.76534219650E+02  0.00000000000E+00 0.  1.
         21   -1    0    0  502  503 -0.00000000000E+00 -0.00000000000E+00 -0.52283474054E+03  0.52283474054E+03  0.00000000000E+00 0.  1.
         -6    2    1    2    0  503  0.18154071577E+02  0.53165139844E+02 -0.34964379812E+03  0.39350804939E+03  0.17158582971E+03 0.  0.
        -24    2    3    3    0    0  0.19964874330E+01  0.59236613723E+01 -0.57851590757E+02  0.97437775478E+02  0.78155216147E+02 0.  0.
          6    2    1    2  501    0 -0.18154071577E+02 -0.53165139844E+02 -0.96656722764E+02  0.20586091080E+03  0.17285858419E+03 0.  0.
         24    2    5    5    0    0 -0.11661067402E+02 -0.18759205620E+02  0.18461246627E+02  0.85444282836E+02  0.80448862974E+02 0.  0.
          5    1    5    5  501    0 -0.64930041748E+01 -0.34405934224E+02 -0.11511796939E+03  0.12041662796E+03  0.47000000000E+01 0. -1.
        -11    1    6    6    0    0 -0.27036702581E+02 -0.34065914793E+02 -0.14620561267E+02  0.45882792515E+02  0.00000000000E+00 0.  1.
         12    1    6    6    0    0  0.15375635179E+02  0.15306709174E+02  0.33081807894E+02  0.39561490321E+02  0.00000000000E+00 0. -1.
         -5    1    3    3    0  503  0.16157584144E+02  0.47241478471E+02 -0.29179220737E+03  0.29607027391E+03  0.47000000000E+01 0.  1.
         11    1    4    4    0    0 -0.15681208162E+02  0.37906429314E+02 -0.23460605973E+02  0.47256721273E+02  0.00000000000E+00 0. -1.
        -12    1    4    4    0    0  0.17677695595E+02 -0.31982767942E+02 -0.34390984783E+02  0.50181054205E+02  0.00000000000E+00 0.  1.
</event>
<event>
12    1  0.8526130E-002  0.2025753E+03  0.7818608E-02  0.1147759E+00
         21   -1    0    0  501  502  0.00000000000E+00  0.00000000000E+00  0.19792078086E+03  0.19792078086E+03  0.00000000000E+00 0.  1.
         21   -1    0    0  502  503 -0.00000000000E+00 -0.00000000000E+00 -0.44136590367E+03  0.44136590367E+03  0.00000000000E+00 0.  1.
         -6    2    1    2    0  503  0.87478508858E+02  0.57761705529E+02 -0.35478527005E+03  0.40813006455E+03  0.17236199582E+03 0.  0.
        -24    2    3    3    0    0  0.12463875123E+03  0.63031654297E+02 -0.21769648361E+03  0.26591866789E+03  0.61750880165E+02 0.  0.
          6    2    1    2  501    0 -0.87478508858E+02 -0.57761705529E+02  0.11134014724E+03  0.23115661998E+03  0.17334315804E+03 0.  0.
         24    2    5    5    0    0 -0.39403794069E+02  0.24637164820E+02  0.96550109497E+02  0.13450473302E+03  0.81301603207E+02 0.  0.
          5    1    5    5  501    0 -0.48074714788E+02 -0.82398870349E+02  0.14790037739E+02  0.96651886961E+02  0.47000000000E+01 0. -1.
        -11    1    6    6    0    0 -0.28888105037E+02 -0.76329087708E+01  0.96018771014E+02  0.10056037140E+03  0.00000000000E+00 0.  1.
         12    1    6    6    0    0 -0.10515689032E+02  0.32270073591E+02  0.53133848260E+00  0.33944361623E+02  0.00000000000E+00 0. -1.
         -5    1    3    3    0  503 -0.37160242371E+02 -0.52699487686E+01 -0.13708878644E+03  0.14221139666E+03  0.47000000000E+01 0.  1.
         13    1    4    4    0    0 -0.36822215380E+01 -0.34368957023E+01 -0.53228225413E+00  0.50650105549E+01  0.00000000000E+00 0. -1.
        -14    1    4    4    0    0  0.12832097277E+03  0.66468550000E+02 -0.21716420136E+03  0.26085365733E+03  0.00000000000E+00 0.  1.
</event>
<event>
12    1  0.8526130E-002  0.1906486E+03  0.7818608E-02  0.1158972E+00
         21   -1    0    0  501  502  0.00000000000E+00  0.00000000000E+00  0.13189659793E+04  0.13189659793E+04  0.00000000000E+00 0.  1.
         21   -1    0    0  502  503 -0.00000000000E+00 -0.00000000000E+00 -0.66855036012E+02  0.66855036012E+02  0.00000000000E+00 0.  1.
         -6    2    1    2    0  503  0.12193561512E+02  0.72241627427E+02  0.93393488339E+02  0.21229514540E+03  0.17600951515E+03 0.  0.
        -24    2    3    3    0    0  0.33131032800E+02  0.10538049170E+03  0.33627361319E+02  0.14066664571E+03  0.80334254335E+02 0.  0.
          6    2    1    2  501    0 -0.12193561512E+02 -0.72241627427E+02  0.11587174549E+04  0.11735258699E+04  0.17079019664E+03 0.  0.
         24    2    5    5    0    0  0.30496783097E+02 -0.95424510725E+02  0.66006651137E+03  0.67249217330E+03  0.80759102882E+02 0.  0.
          5    1    5    5  501    0 -0.42690344608E+02  0.23182883298E+02  0.49865094357E+03  0.50103369659E+03  0.47000000000E+01 0. -1.
        -13    1    6    6    0    0  0.17810825558E+02 -0.67629075054E+02  0.60885854973E+03  0.61286185301E+03  0.00000000000E+00 0.  1.
         14    1    6    6    0    0  0.12685957538E+02 -0.27795435671E+02  0.51207961641E+02  0.59630320293E+02  0.00000000000E+00 0. -1.
         -5    1    3    3    0  503 -0.20937471288E+02 -0.33138864277E+02  0.59766127020E+02  0.71628499694E+02  0.47000000000E+01 0.  1.
         13    1    4    4    0    0  0.71944495872E+01  0.14578252346E+02  0.42804740348E+02  0.45787895153E+02  0.00000000000E+00 0. -1.
        -14    1    4    4    0    0  0.25936583213E+02  0.90802239357E+02 -0.91773790289E+01  0.94878750555E+02  0.00000000000E+00 0.  1.
</event>
<event>
12    1  0.8526130E-002  0.1767299E+03  0.7818608E-02  0.1171095E+00
         21   -1    0    0  501  502  0.00000000000E+00  0.00000000000E+00  0.24382536394E+03  0.24382536394E+03  0.00000000000E+00 0.  1.
         21   -1    0    0  502  503 -0.00000000000E+00 -0.00000000000E+00 -0.40452848407E+03  0.40452848407E+03  0.00000000000E+00 0.  1.
         -6    2    1    2    0  503  0.14155019262E+02 -0.36834180466E+02 -0.34843070091E+03  0.39052620140E+03  0.17190008500E+03 0.  0.
        -24    2    3    3    0    0 -0.33319600427E+02 -0.94197270921E+01 -0.31412659482E+03  0.32568598654E+03  0.78720500655E+02 0.  0.
          6    2    1    2  501    0 -0.14155019262E+02  0.36834180466E+02  0.18772758078E+03  0.25782764661E+03  0.17226819018E+03 0.  0.
         24    2    5    5    0    0  0.12857063335E+02  0.80343198123E+02  0.82981646717E+02  0.14113793872E+03  0.80085145269E+02 0.  0.
          5    1    5    5  501    0 -0.27012082597E+02 -0.43509017657E+02  0.10474593407E+03  0.11668970789E+03  0.47000000000E+01 0. -1.
        -11    1    6    6    0    0 -0.24589545429E+02  0.53859588079E+02  0.73364090726E+02  0.94275080379E+02  0.00000000000E+00 0.  1.
         12    1    6    6    0    0  0.37446608764E+02  0.26483610043E+02  0.96175559913E+01  0.46862858343E+02  0.00000000000E+00 0. -1.
         -5    1    3    3    0  503  0.47474619688E+02 -0.27414453373E+02 -0.34304106086E+02  0.64840214857E+02  0.47000000000E+01 0.  1.
         13    1    4    4    0    0  0.24542253537E+02  0.66148118801E+01 -0.11087911046E+03  0.11375524199E+03  0.00000000000E+00 0. -1.
        -14    1    4    4    0    0 -0.57861853964E+02 -0.16034538972E+02 -0.20324748437E+03  0.21193074455E+03  0.00000000000E+00 0.  1.
</event>
<event>
12    1  0.8526130E-002  0.2087745E+03  0.7818608E-02  0.1143063E+00
         21   -1    0    0  501  502  0.00000000000E+00  0.00000000000E+00  0.19246212743E+03  0.19246212743E+03  0.00000000000E+00 0.  1.
         21   -1    0    0  502  503 -0.00000000000E+00 -0.00000000000E+00 -0.38300052457E+03  0.38300052457E+03  0.00000000000E+00 0. -1.
         -6    2    1    2    0  503  0.65309057244E+02 -0.94221249677E+02 -0.28050884437E+03  0.34812702349E+03  0.17136013500E+03 0.  0.
        -24    2    3    3    0    0 -0.11227334193E+02 -0.44609714406E+02 -0.63232962220E+02  0.11243650054E+03  0.80792818304E+02 0.  0.
          6    2    1    2  501    0 -0.65309057244E+02  0.94221249677E+02  0.89970447226E+02  0.22733562851E+03  0.17448177489E+03 0.  0.
         24    2    5    5    0    0 -0.17098596859E+02 -0.22826095361E+02  0.31668312936E+02  0.87888296754E+02  0.76864022911E+02 0.  0.
          5    1    5    5  501    0 -0.48210460384E+02  0.11704734504E+03  0.58302134290E+02  0.13944733176E+03  0.47000000000E+01 0. -1.
        -13    1    6    6    0    0  0.18707439130E+02 -0.24325993996E+02  0.40659355855E+02  0.50940214774E+02  0.00000000000E+00 0.  1.
         14    1    6    6    0    0 -0.35806035990E+02  0.14998986346E+01 -0.89910429188E+01  0.36948081980E+02  0.00000000000E+00 0. -1.
         -5    1    3    3    0  503  0.76536391437E+02 -0.49611535271E+02 -0.21727588215E+03  0.23569052295E+03  0.47000000000E+01 0.  1.
         13    1    4    4    0    0 -0.17252398973E+01  0.10470415020E+02 -0.54910613693E+02  0.55926572750E+02  0.00000000000E+00 0. -1.
        -14    1    4    4    0    0 -0.95020942956E+01 -0.55080129426E+02 -0.83223485270E+01  0.56509927787E+02  0.00000000000E+00 0.  1.
</event>
<event>
12    1  0.8526130E-002  0.2286503E+03  0.7818608E-02  0.1127859E+00
         21   -1    0    0  503  502  0.00000000000E+00  0.00000000000E+00  0.75793246000E+02  0.75793246000E+02  0.00000000000E+00 0. -1.
         21   -1    0    0  501  503 -0.00000000000E+00 -0.00000000000E+00 -0.88897709526E+03  0.88897709526E+03  0.00000000000E+00 0. -1.
          6    2    1    2  501    0 -0.36083196746E+02 -0.14613414169E+03 -0.63646842823E+03  0.67579061165E+03  0.17012849909E+03 0.  0.
         24    2    3    3    0    0 -0.68224471457E+02 -0.13001900061E+03 -0.60533418331E+03  0.62799740587E+03  0.79948416299E+02 0.  0.
         -6    2    1    2    0  502  0.36083196746E+02  0.14613414169E+03 -0.17671542103E+03  0.28897972961E+03  0.17211554155E+03 0.  0.
        -24    2    5    5    0    0  0.79331092182E+02  0.91209986387E+02 -0.65838544215E+02  0.15782022707E+03  0.77199911687E+02 0.  0.
          5    1    3    3  501    0  0.32141274711E+02 -0.16115141073E+02 -0.31134244923E+02  0.47793205781E+02  0.47000000000E+01 0. -1.
        -13    1    4    4    0    0 -0.29871586647E+01 -0.32533214172E+02 -0.28491889136E+03  0.28678582216E+03  0.00000000000E+00 0.  1.
         14    1    4    4    0    0 -0.65237312792E+02 -0.97485786441E+02 -0.32041529195E+03  0.34121158371E+03  0.00000000000E+00 0. -1.
         -5    1    5    5    0  502 -0.43247895436E+02  0.54924155299E+02 -0.11087687681E+03  0.13115950254E+03  0.47000000000E+01 0.  1.
         13    1    6    6    0    0  0.76995325760E+01  0.66082700653E+02 -0.21542777430E+02  0.69930661278E+02  0.00000000000E+00 0. -1.
        -14    1    6    6    0    0  0.71631559606E+02  0.25127285735E+02 -0.44295766784E+02  0.87889565791E+02  0.00000000000E+00 0.  1.
</event>
<event>
12    1  0.8526130E-002  0.1890510E+03  0.7818608E-02  0.1160077E+00
         21   -1    0    0  501  502  0.00000000000E+00  0.00000000000E+00  0.60868945437E+03  0.60868945437E+03  0.00000000000E+00 0.  1.
         21   -1    0    0  502  503 -0.00000000000E+00 -0.00000000000E+00 -0.64000705018E+02  0.64000705018E+02  0.00000000000E+00 0.  1.
         -6    2    1    2    0  503  0.72801641478E+01  0.70049401537E+02  0.16894126091E+03  0.25353786200E+03  0.17544337658E+03 0.  0.
        -24    2    3    3    0    0 -0.15800245899E+01  0.24213322922E+02  0.10319788443E+02  0.88122292681E+02  0.84084831862E+02 0.  0.
          6    2    1    2  501    0 -0.72801641478E+01 -0.70049401537E+02  0.37574748845E+03  0.41915229739E+03  0.17187947488E+03 0.  0.
         24    2    5    5    0    0 -0.16472872847E+02  0.28588497071E+02  0.15332429194E+03  0.17561973431E+03  0.79027178081E+02 0.  0.
          5    1    5    5  501    0  0.91927086993E+01 -0.98637898607E+02  0.22242319651E+03  0.24353256308E+03  0.47000000000E+01 0. -1.
        -11    1    6    6    0    0  0.19875638610E+02  0.24608521915E+02  0.20123162883E+02  0.37490826150E+02  0.00000000000E+00 0.  1.
         12    1    6    6    0    0 -0.36348511457E+02  0.39799751556E+01  0.13320112905E+03  0.13812890816E+03  0.00000000000E+00 0. -1.
         -5    1    3    3    0  503  0.88601887377E+01  0.45836078614E+02  0.15862147246E+03  0.16541556932E+03  0.47000000000E+01 0.  1.
         11    1    4    4    0    0  0.67630593214E+01  0.55090775347E+02  0.75973576809E+01  0.56021891645E+02  0.00000000000E+00 0. -1.
        -12    1    4    4    0    0 -0.83430839113E+01 -0.30877452425E+02  0.27224307618E+01  0.32100401036E+02  0.00000000000E+00 0.  1.
</event>
<event>
12    1  0.8526130E-002  0.1818292E+03  0.7818608E-02  0.1166115E+00
         21   -1    0    0  503  502  0.00000000000E+00  0.00000000000E+00  0.61201146578E+03  0.61201146578E+03  0.00000000000E+00 0. -1.
         21   -1    0    0  501  503 -0.00000000000E+00 -0.00000000000E+00 -0.64656533624E+02  0.64656533624E+02  0.00000000000E+00 0. -1.
          6    2    1    2  501    0  0.37867373742E+02  0.43767237395E+02  0.13608338245E+03  0.22711349390E+03  0.17237268656E+03 0.  0.
         24    2    3    3    0    0  0.57364362484E+02  0.27422690804E+02  0.16046907275E+03  0.19156031311E+03  0.83080420029E+02 0.  0.
         -6    2    1    2    0  502 -0.37867373742E+02 -0.43767237395E+02  0.41127154970E+03  0.44955450550E+03  0.17206236298E+03 0.  0.
        -24    2    5    5    0    0  0.29854579388E+02 -0.49530452737E+02  0.17320841646E+03  0.20193458910E+03  0.86208242549E+02 0.  0.
          5    1    3    3  501    0 -0.19496988742E+02  0.16344546591E+02 -0.24385690305E+02  0.35553180799E+02  0.47000000000E+01 0. -1.
        -11    1    4    4    0    0 -0.40246970332E+01  0.37151523785E+02  0.33467133136E+02  0.50164558267E+02  0.00000000000E+00 0.  1.
         12    1    4    4    0    0  0.61389059517E+02 -0.97288329810E+01  0.12700193962E+03  0.14139575484E+03  0.00000000000E+00 0. -1.
         -5    1    5    5    0  502 -0.67721953130E+02  0.57632153418E+01  0.23806313325E+03  0.24761991640E+03  0.47000000000E+01 0.  1.
         11    1    6    6    0    0 -0.30679807700E+02 -0.15792498056E+02  0.56921129778E+02  0.66563267728E+02  0.00000000000E+00 0. -1.
        -12    1    6    6    0    0  0.60534387088E+02 -0.33737954681E+02  0.11628728668E+03  0.13537132137E+03  0.00000000000E+00 0.  1.
</event>
<event>
12    1  0.8526130E-002  0.2262242E+03  0.7818608E-02  0.1129718E+00
         21   -1    0    0  503  502  0.00000000000E+00  0.00000000000E+00  0.34802849003E+03  0.34802849003E+03  0.00000000000E+00 0. -1.
         21   -1    0    0  501  503 -0.00000000000E+00 -0.00000000000E+00 -0.17868614745E+03  0.17868614745E+03  0.00000000000E+00 0. -1.
          6    2    1    2  501    0 -0.16467314617E+01  0.14466361038E+03 -0.28244632729E+02  0.22798063340E+03  0.17391704355E+03 0.  0.
         24    2    3    3    0    0 -0.40604539088E+01  0.13518380221E+03 -0.79096066221E+02  0.17598398825E+03  0.80143800529E+02 0.  0.
         -6    2    1    2    0  502  0.16467314617E+01 -0.14466361038E+03  0.19758697530E+03  0.29873400408E+03  0.17108804894E+03 0.  0.
        -24    2    5    5    0    0  0.59092159144E+02 -0.39869217406E+02  0.70628303149E+02  0.12431371743E+03  0.73376463295E+02 0.  0.
          5    1    3    3  501    0  0.24137224471E+01  0.94798081729E+01  0.50851433492E+02  0.51996645154E+02  0.47000000000E+01 0. -1.
        -13    1    4    4    0    0 -0.83958280501E+01  0.90743278223E+02 -0.92010915971E+02  0.12950228233E+03  0.00000000000E+00 0.  1.
         14    1    4    4    0    0  0.43353741413E+01  0.44440523983E+02  0.12914849750E+02  0.46481705916E+02  0.00000000000E+00 0. -1.
         -5    1    5    5    0  502 -0.57445427682E+02 -0.10479439297E+03  0.12695867215E+03  0.17442028665E+03  0.47000000000E+01 0.  1.
         13    1    6    6    0    0 -0.11499114130E+02 -0.19177927451E+02  0.37446547970E+02  0.43614980018E+02  0.00000000000E+00 0. -1.
        -14    1    6    6    0    0  0.70591273274E+02 -0.20691289955E+02  0.33181755179E+02  0.80698737408E+02  0.00000000000E+00 0.  1.
</event>
<event>
12    1  0.8526130E-002  0.1859220E+03  0.7818608E-02  0.1162483E+00
         21   -1    0    0  503  502  0.00000000000E+00  0.00000000000E+00  0.94992304281E+02  0.94992304281E+02  0.00000000000E+00 0. -1.
         21   -1    0    0  501  503 -0.00000000000E+00 -0.00000000000E+00 -0.40964416886E+03  0.40964416886E+03  0.00000000000E+00 0. -1.
          6    2    1    2  501    0  0.14835876921E+02 -0.71995755749E+02 -0.24340487883E+03  0.30553065590E+03  0.16940942880E+03 0.  0.
         24    2    3    3    0    0 -0.34032371661E+02 -0.40509543223E+02 -0.22554290787E+03  0.24453371085E+03  0.78280949406E+02 0.  0.
         -6    2    1    2    0  502 -0.14835876921E+02  0.71995755749E+02 -0.71246985746E+02  0.19910581724E+03  0.17077324554E+03 0.  0.
        -24    2    5    5    0    0 -0.11922345344E+02  0.67306867194E+02 -0.11079875810E+03  0.15889503462E+03  0.91098356411E+02 0.  0.
          5    1    3    3  501    0  0.48868248582E+02 -0.31486212526E+02 -0.17861970963E+02  0.60996945050E+02  0.47000000000E+01 0. -1.
        -11    1    4    4    0    0 -0.56617315675E+02 -0.34188658225E+02 -0.12644044097E+03  0.14269397288E+03  0.00000000000E+00 0.  1.
         12    1    4    4    0    0  0.22584944015E+02 -0.63208849978E+01 -0.99102466899E+02  0.10183973797E+03  0.00000000000E+00 0. -1.
         -5    1    5    5    0  502 -0.29135315774E+01  0.46888885547E+01  0.39551772356E+02  0.40210782616E+02  0.47000000000E+01 0.  1.
         11    1    6    6    0    0 -0.46965238058E+02  0.62739986966E+02 -0.72151445792E+02  0.10652638490E+03  0.00000000000E+00 0. -1.
        -12    1    6    6    0    0  0.35042892714E+02  0.45668802281E+01 -0.38647312310E+02  0.52368649721E+02  0.00000000000E+00 0.  1.
</event>
<event>
12    1  0.8526130E-002  0.1819893E+03  0.7818608E-02  0.1168110E+00
         21   -1    0    0  503  502  0.00000000000E+00  0.00000000000E+00  0.19746801019E+03  0.19746801019E+03  0.00000000000E+00 0.  1.
         21   -1    0    0  501  503 -0.00000000000E+00 -0.00000000000E+00 -0.16157889138E+03  0.16157889138E+03  0.00000000000E+00 0.  1.
          6    2    1    2  501    0  0.54873936907E+02  0.88042245720E+01 -0.29316666377E+01  0.17296319896E+03  0.16376510679E+03 0.  0.
         24    2    3    3    0    0  0.44916398457E+02 -0.25036806435E+02 -0.55877023124E+02  0.10916924372E+03  0.78430590550E+02 0.  0.
         -6    2    1    2    0  502 -0.54873936907E+02 -0.88042245720E+01  0.38820785449E+02  0.18608370262E+03  0.17329578089E+03 0.  0.
        -24    2    5    5    0    0 -0.50630344585E+02  0.49750917348E+02  0.54533888891E+02  0.12512712512E+03  0.87431497943E+02 0.  0.
          5    1    3    3  501    0  0.99575384507E+01  0.33841031007E+02  0.52945356486E+02  0.63793955239E+02  0.47000000000E+01 0. -1.
        -13    1    4    4    0    0  0.69670346097E+01  0.13547305259E+02 -0.52809887982E+02  0.54963199686E+02  0.00000000000E+00 0.  1.
         14    1    4    4    0    0  0.37949363847E+02 -0.38584111694E+02 -0.30671351415E+01  0.54206044032E+02  0.00000000000E+00 0. -1.
         -5    1    5    5    0  502 -0.42435923223E+01 -0.58555141920E+02 -0.15713103442E+02  0.60956577503E+02  0.47000000000E+01 0.  1.
         11    1    6    6    0    0 -0.59012054239E+02  0.28717017323E+02 -0.48613968629E+00  0.65630221402E+02  0.00000000000E+00 0. -1.
        -12    1    6    6    0    0  0.83817096544E+01  0.21033900025E+02  0.55020028577E+02  0.59496903715E+02  0.00000000000E+00 0.  1.
</event>
<event>
12    1  0.8526130E-002  0.2267521E+03  0.7818608E-02  0.1129303E+00
         21   -1    0    0  503  502  0.00000000000E+00  0.00000000000E+00  0.26735655756E+03  0.26735655756E+03  0.00000000000E+00 0.  1.
         21   -1    0    0  501  503 -0.00000000000E+00 -0.00000000000E+00 -0.25244668365E+03  0.25244668365E+03  0.00000000000E+00 0.  1.
          6    2    1    2  501    0  0.10327175163E+03 -0.10583298332E+03 -0.12111676752E+03  0.25707154783E+03  0.17190356100E+03 0.  0.
         24    2    3    3    0    0  0.13285463760E+03 -0.68110757897E+02 -0.12503056510E+03  0.20874431694E+03  0.75180566456E+02 0.  0.
         -6    2    1    2    0  502 -0.10327175163E+03  0.10583298332E+03  0.13602664143E+03  0.26273169339E+03  0.16928975306E+03 0.  0.
        -24    2    5    5    0    0 -0.80509105097E+02  0.12851497879E+03  0.14817788348E+03  0.22805672146E+03  0.83996233684E+02 0.  0.
          5    1    3    3  501    0 -0.29582885976E+02 -0.37722225422E+02  0.39137975796E+01  0.48327230884E+02  0.47000000000E+01 0. -1.
        -11    1    4    4    0    0  0.10537723719E+03 -0.80583380651E+02 -0.81218064303E+02  0.15554554743E+03  0.00000000000E+00 0.  1.
         12    1    4    4    0    0  0.27477400411E+02  0.12472622755E+02 -0.43812500799E+02  0.53198769516E+02  0.00000000000E+00 0. -1.
         -5    1    5    5    0  502 -0.22762646530E+02 -0.22681995467E+02 -0.12151242046E+02  0.34674971935E+02  0.47000000000E+01 0.  1.
         13    1    6    6    0    0 -0.56184927501E+02  0.43785583567E+02  0.11208048228E+03  0.13280044396E+03  0.00000000000E+00 0. -1.
        -14    1    6    6    0    0 -0.24324177597E+02  0.84729395218E+02  0.36097401197E+02  0.95256277499E+02  0.00000000000E+00 0.  1.
</event>
<event>
12    1  0.8526130E-002  0.1737617E+03  0.7818608E-02  0.1174058E+00
         21   -1    0    0  501  502  0.00000000000E+00  0.00000000000E+00  0.15854536887E+02  0.15854536887E+02  0.00000000000E+00 0. -1.
         21   -1    0    0  502  503 -0.00000000000E+00 -0.00000000000E+00 -0.23587468785E+04  0.23587468785E+04  0.00000000000E+00 0. -1.
         -6    2    1    2    0  503 -0.60357784513E+01  0.22800831813E+02 -0.16952908345E+04  0.17041725687E+04  0.17215348367E+03 0.  0.
        -24    2    3    3    0    0 -0.27347412464E+02  0.78749007812E+02 -0.10475404360E+04  0.10536442812E+04  0.76655195703E+02 0.  0.
          6    2    1    2  501    0  0.60357784513E+01 -0.22800831813E+02 -0.64760150714E+03  0.67042884668E+03  0.17184533120E+03 0.  0.
         24    2    5    5    0    0  0.28006102608E+02  0.53265886142E+02 -0.25944548232E+03  0.27425208016E+03  0.65426667091E+02 0.  0.
          5    1    5    5  501    0 -0.21970324157E+02 -0.76066717955E+02 -0.38815602482E+03  0.39617676652E+03  0.47000000000E+01 0. -1.
        -13    1    6    6    0    0 -0.66585596198E+01  0.39777565712E+02 -0.20076312300E+03  0.20477407723E+03  0.00000000000E+00 0.  1.
         14    1    6    6    0    0  0.34664662228E+02  0.13488320430E+02 -0.58682359318E+02  0.69478002925E+02  0.00000000000E+00 0. -1.
         -5    1    3    3    0  503  0.21311634013E+02 -0.55948175999E+02 -0.64775039846E+03  0.65052828751E+03  0.47000000000E+01 0.  1.
         13    1    4    4    0    0 -0.46384041870E+02  0.29695183144E+02 -0.37163687079E+03  0.37569568400E+03  0.00000000000E+00 0. -1.
        -14    1    4    4    0    0  0.19036629406E+02  0.49053824668E+02 -0.67590356524E+03  0.67794859723E+03  0.00000000000E+00 0.  1.
</event>
<event>
12    1  0.8526130E-002  0.1816251E+03  0.7818608E-02  0.1166410E+00
         21   -1    0    0  501  502  0.00000000000E+00  0.00000000000E+00  0.21475280440E+03  0.21475280440E+03  0.00000000000E+00 0. -1.
         21   -1    0    0  502  503 -0.00000000000E+00 -0.00000000000E+00 -0.29367443498E+03  0.29367443498E+03  0.00000000000E+00 0. -1.
         -6    2    1    2    0  503 -0.57458571492E+02 -0.35033752880E+01 -0.21543938391E+03  0.28178326964E+03  0.17226120234E+03 0.  0.
        -24    2    3    3    0    0 -0.59100498637E+02 -0.23377209825E+02 -0.51627414268E+02  0.11669506103E+03  0.83144359315E+02 0.  0.
          6    2    1    2  501    0  0.57458571492E+02  0.35033752880E+01  0.13651775333E+03  0.22664396974E+03  0.17151277202E+03 0.  0.
         24    2    5    5    0    0  0.51713855909E+02  0.41482221653E+02  0.15312859558E+03  0.18453215894E+03  0.78795008057E+02 0.  0.
          5    1    5    5  501    0  0.57447155825E+01 -0.37978846365E+02 -0.16610842243E+02  0.42111810795E+02  0.47000000000E+01 0. -1.
        -13    1    6    6    0    0  0.24609031370E+02  0.47914021234E+02  0.37592968370E+02  0.65685532096E+02  0.00000000000E+00 0.  1.
         14    1    6    6    0    0  0.27104824539E+02 -0.64317995806E+01  0.11553562721E+03  0.11884662685E+03  0.00000000000E+00 0. -1.
         -5    1    3    3    0  503  0.16419271447E+01  0.19873834537E+02 -0.16381196964E+03  0.16508820861E+03  0.47000000000E+01 0.  1.
         13    1    4    4    0    0 -0.77101390765E+02 -0.54736980360E+01 -0.48159464485E+02  0.91070960507E+02  0.00000000000E+00 0. -1.
        -14    1    4    4    0    0  0.18000892129E+02 -0.17903511790E+02 -0.34679497832E+01  0.25624100521E+02  0.00000000000E+00 0.  1.
</event>
<event>
12    1  0.8526130E-002  0.1831727E+03  0.7818608E-02  0.1164786E+00
         21   -1    0    0  503  502  0.00000000000E+00  0.00000000000E+00  0.48584551145E+02  0.48584551145E+02  0.00000000000E+00 0.  1.
         21   -1    0    0  501  503 -0.00000000000E+00 -0.00000000000E+00 -0.10255602120E+04  0.10255602120E+04  0.00000000000E+00 0.  1.
          6    2    1    2  501    0  0.66954579886E+02  0.15108914327E+01 -0.18148337463E+03  0.25785357794E+03  0.17049062681E+03 0.  0.
         24    2    3    3    0    0  0.61570048736E+02  0.51707075672E+02 -0.17390090756E+03  0.20658727424E+03  0.77280551573E+02 0.  0.
         -6    2    1    2    0  502 -0.66954579886E+02 -0.15108914327E+01 -0.79549228621E+03  0.81629118519E+03  0.17040575999E+03 0.  0.
        -24    2    5    5    0    0 -0.12895989316E+02 -0.57973998688E+02 -0.37516441304E+03  0.38873063432E+03  0.82679369762E+02 0.  0.
          5    1    3    3  501    0  0.53845311497E+01 -0.50196184240E+02 -0.75824670653E+01  0.51266303697E+02  0.47000000000E+01 0. -1.
        -13    1    4    4    0    0 -0.27955381469E+01  0.23938558221E+02 -0.62910723640E+01  0.24908777463E+02  0.00000000000E+00 0.  1.
         14    1    4    4    0    0  0.64365586883E+02  0.27768517451E+02 -0.16760983520E+03  0.18167849678E+03  0.00000000000E+00 0. -1.
         -5    1    5    5    0  502 -0.54058590570E+02  0.56463107255E+02 -0.42032787317E+03  0.42756055087E+03  0.47000000000E+01 0.  1.
         11    1    6    6    0    0 -0.43374033379E+02 -0.54632529025E+02 -0.28811668528E+03  0.29644096265E+03  0.00000000000E+00 0. -1.
        -12    1    6    6    0    0  0.30478044063E+02 -0.33414696631E+01 -0.87047727765E+02  0.92289671679E+02  0.00000000000E+00 0.  1.
</event>
<event>
12    1  0.8526130E-002  0.1769729E+03  0.7818608E-02  0.1171400E+00
         21   -1    0    0  503  502  0.00000000000E+00  0.00000000000E+00  0.19495243309E+02  0.19495243309E+02  0.00000000000E+00 0. -1.
         21   -1    0    0  501  503 -0.00000000000E+00 -0.00000000000E+00 -0.22912605216E+04  0.22912605216E+04  0.00000000000E+00 0. -1.
          6    2    1    2  501    0 -0.14480702344E+02  0.19697448780E+02 -0.17837173080E+04  0.17924750634E+04  0.17527617528E+03 0.  0.
         24    2    3    3    0    0 -0.64097854632E+02  0.72634664727E+01 -0.69529310882E+03  0.70283943935E+03  0.79934206808E+02 0.  0.
         -6    2    1    2    0  502  0.14480702344E+02 -0.19697448780E+02 -0.48804797024E+03  0.51828070151E+03  0.17270316754E+03 0.  0.
        -24    2    5    5    0    0  0.78290120592E+01 -0.13024063808E+01 -0.87160256191E+02  0.11688853437E+03  0.77479219898E+02 0.  0.
          5    1    3    3  501    0  0.49617152288E+02  0.12433982307E+02 -0.10884241992E+04  0.10896356240E+04  0.47000000000E+01 0. -1.
        -11    1    4    4    0    0 -0.45524964055E+01 -0.92865548059E+01 -0.88275761127E+01  0.13597478579E+02  0.00000000000E+00 0.  1.
         12    1    4    4    0    0 -0.59545358226E+02  0.16550021279E+02 -0.68646553271E+03  0.68924196077E+03  0.00000000000E+00 0. -1.
         -5    1    5    5    0  502  0.66516902844E+01 -0.18395042399E+02 -0.40088771405E+03  0.40139216714E+03  0.47000000000E+01 0.  1.
         13    1    6    6    0    0 -0.25439472630E+02  0.90880302952E+00 -0.21178770978E+01  0.25543650758E+02  0.00000000000E+00 0. -1.
        -14    1    6    6    0    0  0.33268484689E+02 -0.22112094104E+01 -0.85042379094E+02  0.91344883614E+02  0.00000000000E+00 0.  1.
</event>
<event>
12    1  0.8526130E-002  0.2351841E+03  0.7818608E-02  0.1123081E+00
         21   -1    0    0  503  502  0.00000000000E+00  0.00000000000E+00  0.35117079197E+03  0.35117079197E+03  0.00000000000E+00 0. -1.
         21   -1    0    0  501  503 -0.00000000000E+00 -0.00000000000E+00 -0.18471861659E+03  0.18471861659E+03  0.00000000000E+00 0.  1.
          6    2    1    2  501    0  0.14319535355E+03 -0.70388725794E+02 -0.19932335804E+02  0.23580482493E+03  0.17247357899E+03 0.  0.
         24    2    3    3    0    0  0.10381262679E+03 -0.90268205675E+02 -0.63389909917E+02  0.17370133360E+03  0.85020363311E+02 0.  0.
         -6    2    1    2    0  502 -0.14319535355E+03  0.70388725794E+02  0.18638451118E+03  0.30008458363E+03  0.17277757183E+03 0.  0.
        -24    2    5    5    0    0 -0.63112507391E+02  0.10255104284E+03  0.14639258567E+03  0.20485265100E+03  0.77678275642E+02 0.  0.
          5    1    3    3  501    0  0.39382726762E+02  0.19879479880E+02  0.43457574113E+02  0.62103491330E+02  0.47000000000E+01 0. -1.
        -11    1    4    4    0    0  0.56100003863E+02 -0.24239861310E+02 -0.68844021866E+02  0.92055856177E+02  0.00000000000E+00 0.  1.
         12    1    4    4    0    0  0.47712622925E+02 -0.66028344365E+02  0.54541119492E+01  0.81645477420E+02  0.00000000000E+00 0. -1.
         -5    1    5    5    0  502 -0.80082846159E+02 -0.32162317042E+02  0.39991925506E+02  0.95231932629E+02  0.47000000000E+01 0.  1.
         13    1    6    6    0    0  0.81430665753E+01  0.55956240258E+02  0.73772071579E+02  0.92950142023E+02  0.00000000000E+00 0. -1.
        -14    1    6    6    0    0 -0.71255573967E+02  0.46594802578E+02  0.72620514093E+02  0.11190250898E+03  0.00000000000E+00 0.  1.
</event>
<event>
12    1  0.8526130E-002  0.2056931E+03  0.7818608E-02  0.1146452E+00
         21   -1    0    0  503  502  0.00000000000E+00  0.00000000000E+00  0.12256405833E+03  0.12256405833E+03  0.00000000000E+00 0. -1.
         21   -1    0    0  501  503 -0.00000000000E+00 -0.00000000000E+00 -0.37053214030E+03  0.37053214030E+03  0.00000000000E+00 0. -1.
          6    2    1    2  501    0  0.57245273489E+02 -0.86882935030E+02 -0.48187559084E+02  0.21126215376E+03  0.17743728759E+03 0.  0.
         24    2    3    3    0    0  0.51600537804E+02 -0.92291348657E+02  0.26787307209E+02  0.13573444657E+03  0.80783486054E+02 0.  0.
         -6    2    1    2    0  502 -0.57245273489E+02  0.86882935030E+02 -0.19978052289E+03  0.28183404487E+03  0.16938862355E+03 0.  0.
        -24    2    5    5    0    0  0.25610994129E+02  0.64798025442E+01 -0.97258861229E+02  0.12735878502E+03  0.77865673906E+02 0.  0.
          5    1    3    3  501    0  0.56447356856E+01  0.54084136266E+01 -0.74974866292E+02  0.75527707197E+02  0.47000000000E+01 0. -1.
        -11    1    4    4    0    0  0.16296682601E+02 -0.48303897105E+01 -0.23379424974E+02  0.28905225145E+02  0.00000000000E+00 0.  1.
         12    1    4    4    0    0  0.35303855203E+02 -0.87460958946E+02  0.50166732182E+02  0.10682922142E+03  0.00000000000E+00 0. -1.
         -5    1    5    5    0  502 -0.82856267618E+02  0.80403132486E+02 -0.10252166166E+03  0.15447525985E+03  0.47000000000E+01 0.  1.
         11    1    6    6    0    0  0.27476911710E+02  0.39477709976E+02 -0.67507202019E+02  0.82889641008E+02  0.00000000000E+00 0. -1.
        -12    1    6    6    0    0 -0.18659175811E+01 -0.32997907432E+02 -0.29751659210E+02  0.44469144011E+02  0.00000000000E+00 0.  1.
</event>
<event>
12    1  0.8526130E-002  0.1887680E+03  0.7818608E-02  0.1159643E+00
         21   -1    0    0  503  502  0.00000000000E+00  0.00000000000E+00  0.62010947958E+02  0.62010947958E+02  0.00000000000E+00 0. -1.
         21   -1    0    0  501  503 -0.00000000000E+00 -0.00000000000E+00 -0.12098879166E+04  0.12098879166E+04  0.00000000000E+00 0. -1.
          6    2    1    2  501    0 -0.19479967991E+02  0.76172604752E+02 -0.10352773597E+04  0.10523462237E+04  0.17161476660E+03 0.  0.
         24    2    3    3    0    0 -0.29925351607E+02  0.12794604543E+02 -0.26018852919E+03  0.27458619505E+03  0.81487908402E+02 0.  0.
         -6    2    1    2    0  502  0.19479967991E+02 -0.76172604752E+02 -0.11259960891E+03  0.21955264085E+03  0.17129785553E+03 0.  0.
        -24    2    5    5    0    0  0.12112544713E+02 -0.27756994856E+02 -0.13950062493E+03  0.16348032263E+03  0.79675761854E+02 0.  0.
          5    1    3    3  501    0  0.10445383616E+02  0.63378000210E+02 -0.77508883053E+03  0.77776002864E+03  0.47000000000E+01 0. -1.
        -11    1    4    4    0    0  0.26796633095E+02  0.15106605962E+02 -0.10083066452E+03  0.10541865109E+03  0.00000000000E+00 0.  1.
         12    1    4    4    0    0 -0.56721984703E+02 -0.23120014188E+01 -0.15935786466E+03  0.16916754396E+03  0.00000000000E+00 0. -1.
         -5    1    5    5    0  502  0.73674232780E+01 -0.48415609896E+02  0.26901016024E+02  0.56072318220E+02  0.47000000000E+01 0.  1.
         11    1    6    6    0    0  0.38150145979E+02 -0.69905598746E+01 -0.30019689705E+02  0.49045726986E+02  0.00000000000E+00 0. -1.
        -12    1    6    6    0    0 -0.26037601266E+02 -0.20766434981E+02 -0.10948093523E+03  0.11443459564E+03  0.00000000000E+00 0.  1.
</event>
<event>
12    1  0.8526130E-002  0.2039099E+03  0.7818608E-02  0.1146587E+00
         21   -1    0    0  501  502  0.00000000000E+00  0.00000000000E+00  0.20162540600E+03  0.20162540600E+03  0.00000000000E+00 0.  1.
         21   -1    0    0  502  503 -0.00000000000E+00 -0.00000000000E+00 -0.20571245350E+03  0.20571245350E+03  0.00000000000E+00 0.  1.
         -6    2    1    2    0  503  0.70288769669E+02 -0.80943430978E+02 -0.68350618414E+00  0.20391102979E+03  0.17345573132E+03 0.  0.
        -24    2    3    3    0    0  0.37994145314E+01 -0.10206918856E+03 -0.20698050363E+02  0.13117999130E+03  0.79669479883E+02 0.  0.
          6    2    1    2  501    0 -0.70288769669E+02  0.80943430978E+02 -0.34035413168E+01  0.20342682971E+03  0.17285410262E+03 0.  0.
         24    2    5    5    0    0  0.18280286335E+01 -0.17806450169E+02  0.74497284294E-02  0.81009116594E+02  0.79006743760E+02 0.  0.
          5    1    5    5  501    0 -0.72116798302E+02  0.98749881147E+02 -0.34109910453E+01  0.12241771311E+03  0.47000000000E+01 0. -1.
        -13    1    6    6    0    0  0.61515433192E+01 -0.12054410342E+01  0.38426305223E+02  0.38934245934E+02  0.00000000000E+00 0.  1.
         14    1    6    6    0    0 -0.43235146857E+01 -0.16601009135E+02 -0.38418855495E+02  0.42074870660E+02  0.00000000000E+00 0. -1.
         -5    1    3    3    0  503  0.66489355137E+02  0.21125757585E+02  0.20014544178E+02  0.72731038483E+02  0.47000000000E+01 0.  1.
         11    1    4    4    0    0 -0.26534110106E+02 -0.72014282046E+02 -0.37341874656E+02  0.85349466434E+02  0.00000000000E+00 0. -1.
        -12    1    4    4    0    0  0.30333524638E+02 -0.30054906517E+02  0.16643824293E+02  0.45830524869E+02  0.00000000000E+00 0.  1.
</event>
<event>
12    1  0.8526130E-002  0.2123507E+03  0.7818608E-02  0.1141977E+00
         21   -1    0    0  501  502  0.00000000000E+00  0.00000000000E+00  0.90216151931E+02  0.90216151931E+02  0.00000000000E+00 0. -1.
         21   -1    0    0  502  503 -0.00000000000E+00 -0.00000000000E+00 -0.17743028285E+04  0.17743028285E+04  0.00000000000E+00 0. -1.
         -6    2    1    2    0  503  0.81957128894E+02  0.62834679992E+02 -0.16340157587E+04  0.16463449241E+04  0.17256575988E+03 0.  0.
        -24    2    3    3    0    0 -0.29782252741E+01  0.18645122164E+02 -0.11545277490E+04  0.11573688789E+04  0.78815531947E+02 0.  0.
          6    2    1    2  501    0 -0.81957128894E+02 -0.62834679992E+02 -0.50070917909E+02  0.21817405636E+03  0.18554690529E+03 0.  0.
         24    2    5    5    0    0 -0.95652842202E+02 -0.84198782105E+02 -0.82269863743E+02  0.17690833772E+03  0.91045748635E+02 0.  0.
          5    1    5    5  501    0  0.13695713308E+02  0.21364102114E+02  0.32198945834E+02  0.41265718641E+02  0.47000000000E+01 0. -1.
        -13    1    6    6    0    0 -0.21680812588E+02  0.11611877101E+02 -0.43209047663E+02  0.49718358020E+02  0.00000000000E+00 0.  1.
         14    1    6    6    0    0 -0.73972029614E+02 -0.95810659206E+02 -0.39060816080E+02  0.12718997970E+03  0.00000000000E+00 0. -1.
         -5    1    3    3    0  503  0.84935354168E+02  0.44189557828E+02 -0.47948800966E+03  0.48897604524E+03  0.47000000000E+01 0.  1.
         13    1    4    4    0    0  0.28773593248E+02  0.22706031413E+02 -0.91219377412E+03  0.91292987960E+03  0.00000000000E+00 0. -1.
        -14    1    4    4    0    0 -0.31751818522E+02 -0.40609092486E+01 -0.24233397491E+03  0.24443899926E+03  0.00000000000E+00 0.  1.
</event>
<event>
12    1  0.8526130E-002  0.2112176E+03  0.7818608E-02  0.1140615E+00
         21   -1    0    0  503  502  0.00000000000E+00  0.00000000000E+00  0.62525307949E+03  0.62525307949E+03  0.00000000000E+00 0. -1.
         21   -1    0    0  501  503 -0.00000000000E+00 -0.00000000000E+00 -0.71632726051E+02  0.71632726051E+02  0.00000000000E+00 0. -1.
          6    2    1    2  501    0 -0.12070999793E+03  0.15579541437E+02  0.25441670664E+03  0.33066709052E+03  0.17262455916E+03 0.  0.
         24    2    3    3    0    0 -0.33685268677E+02 -0.50954311139E+02  0.10912548430E+03  0.14864597546E+03  0.80350579006E+02 0.  0.
         -6    2    1    2    0  502  0.12070999793E+03 -0.15579541437E+02  0.29920364680E+03  0.36621871502E+03  0.17256795548E+03 0.  0.
        -24    2    5    5    0    0  0.23326029749E+02  0.47209137915E+02  0.19101946032E+03  0.20762500859E+03  0.62023411753E+02 0.  0.
          5    1    3    3  501    0 -0.87024729254E+02  0.66533852576E+02  0.14529122234E+03  0.18202111506E+03  0.47000000000E+01 0. -1.
        -11    1    4    4    0    0  0.18566285936E+02 -0.31152691340E+02  0.15128956729E+02  0.39294814962E+02  0.00000000000E+00 0.  1.
         12    1    4    4    0    0 -0.52251554614E+02 -0.19801619799E+02  0.93996527571E+02  0.10935116050E+03  0.00000000000E+00 0. -1.
         -5    1    5    5    0  502  0.97383968183E+02 -0.62788679352E+02  0.10818418648E+03  0.15859370643E+03  0.47000000000E+01 0.  1.
         11    1    6    6    0    0  0.43888579381E+02  0.31736777179E+02  0.10989145081E+03  0.12251351512E+03  0.00000000000E+00 0. -1.
        -12    1    6    6    0    0 -0.20562549632E+02  0.15472360735E+02  0.81128009511E+02  0.85111493474E+02  0.00000000000E+00 0.  1.
</event>
<event>
12    1  0.8526130E-002  0.2066299E+03  0.7818608E-02  0.1145274E+00
         21   -1    0    0  501  502  0.00000000000E+00  0.00000000000E+00  0.23078975906E+03  0.23078975906E+03  0.00000000000E+00 0. -1.
         21   -1    0    0  502  503 -0.00000000000E+00 -0.00000000000E+00 -0.65077634431E+03  0.65077634431E+03  0.00000000000E+00 0. -1.
         -6    2    1    2    0  503 -0.77120210869E+02 -0.74108856876E+02 -0.58394112548E+03  0.61779157697E+03  0.17099574544E+03 0.  0.
        -24    2    3    3    0    0 -0.28729865679E+02  0.12556284025E+02 -0.13768549201E+03  0.16060599917E+03  0.76510958734E+02 0.  0.
          6    2    1    2  501    0  0.77120210869E+02  0.74108856876E+02  0.16395454024E+03  0.26377452640E+03  0.17679440014E+03 0.  0.
         24    2    5    5    0    0  0.63274233370E+02  0.40071987192E+02  0.18960343107E+03  0.21871706096E+03  0.79235717439E+02 0.  0.
          5    1    5    5  501    0  0.13845977499E+02  0.34036869684E+02 -0.25648890828E+02  0.45057465436E+02  0.47000000000E+01 0. -1.
        -13    1    6    6    0    0  0.10958499170E+02 -0.22405910283E+02  0.67103253829E+02  0.71588827300E+02  0.00000000000E+00 0.  1.
         14    1    6    6    0    0  0.52315734200E+02  0.62477897475E+02  0.12250017724E+03  0.14712823366E+03  0.00000000000E+00 0. -1.
         -5    1    3    3    0  503 -0.48390345191E+02 -0.86665140901E+02 -0.44625563347E+03  0.45718557781E+03  0.47000000000E+01 0.  1.
         11    1    4    4    0    0  0.16936422659E+02 -0.19232751590E+02 -0.58079321980E+02  0.63481877633E+02  0.00000000000E+00 0. -1.
        -12    1    4    4    0    0 -0.45666288338E+02  0.31789035615E+02 -0.79606170035E+02  0.97124121532E+02  0.00000000000E+00 0.  1.
</event>
<event>
12    1  0.8526130E-002  0.1905008E+03  0.7818608E-02  0.1158049E+00
         21   -1    0    0  503  502  0.00000000000E+00  0.00000000000E+00  0.93964250281E+02  0.93964250281E+02  0.00000000000E+00 0. -1.
         21   -1    0    0  501  503 -0.00000000000E+00 -0.00000000000E+00 -0.39565497441E+03  0.39565497441E+03  0.00000000000E+00 0. -1.
          6    2    1    2  501    0 -0.69169592466E+02 -0.42418768382E+02 -0.18942222217E+03  0.26864722752E+03  0.17235652054E+03 0.  0.
         24    2    3    3    0    0 -0.83180858777E+02 -0.79328123926E+02 -0.17934132009E+03  0.22763100272E+03  0.80253085896E+02 0.  0.
         -6    2    1    2    0  502  0.69169592466E+02  0.42418768382E+02 -0.11226850197E+03  0.22097199718E+03  0.17216452181E+03 0.  0.
        -24    2    5    5    0    0  0.20693318684E+02  0.50298468202E+02 -0.13524913447E+03  0.16654554902E+03  0.80541555620E+02 0.  0.
          5    1    3    3  501    0  0.14011266312E+02  0.36909355544E+02 -0.10080902081E+02  0.41016224803E+02  0.47000000000E+01 0. -1.
        -11    1    4    4    0    0 -0.93920092147E+01 -0.15352077807E+02 -0.10055225600E+03  0.10215014595E+03  0.00000000000E+00 0.  1.
         12    1    4    4    0    0 -0.73788849563E+02 -0.63976046119E+02 -0.78789064085E+02  0.12548085677E+03  0.00000000000E+00 0. -1.
         -5    1    5    5    0  502  0.48476273782E+02 -0.78796998194E+01  0.22980632500E+02  0.54426448158E+02  0.47000000000E+01 0.  1.
         13    1    6    6    0    0  0.43155594643E+02  0.19045248995E+02 -0.33771007635E+02  0.58013858818E+02  0.00000000000E+00 0. -1.
        -14    1    6    6    0    0 -0.22462275959E+02  0.31253219206E+02 -0.10147812683E+03  0.10853169020E+03  0.00000000000E+00 0.  1.
</event>
<event>
12    1  0.8526130E-002  0.2113101E+03  0.7818608E-02  0.1141162E+00
         21   -1    0    0  501  502  0.00000000000E+00  0.00000000000E+00  0.39561950228E+03  0.39561950228E+03  0.00000000000E+00 0. -1.
         21   -1    0    0  502  503 -0.00000000000E+00 -0.00000000000E+00 -0.11902902038E+03  0.11902902038E+03  0.00000000000E+00 0. -1.
         -6    2    1    2    0  503 -0.74985608548E+01  0.10992431969E+03  0.71218817894E+02  0.21998013607E+03  0.17657733651E+03 0.  0.
        -24    2    3    3    0    0 -0.35617916948E+02 -0.45848094480E+01  0.49334576996E+02  0.99963267079E+02  0.79177634419E+02 0.  0.
          6    2    1    2  501    0  0.74985608548E+01 -0.10992431969E+03  0.20537166401E+03  0.29466838660E+03  0.18031182216E+03 0.  0.
         24    2    5    5    0    0  0.30661574038E+02 -0.45488428311E+01  0.16362364030E+03  0.17888624728E+03  0.65320515198E+02 0.  0.
          5    1    5    5  501    0 -0.23163013183E+02 -0.10537547685E+03  0.41748023707E+02  0.11578213932E+03  0.47000000000E+01 0. -1.
        -13    1    6    6    0    0 -0.15607221105E+01  0.14031545769E+02  0.35631788714E+01  0.14560782048E+02  0.00000000000E+00 0.  1.
         14    1    6    6    0    0  0.32222296149E+02 -0.18580388600E+02  0.16006046143E+03  0.16432546523E+03  0.00000000000E+00 0. -1.
         -5    1    3    3    0  503  0.28119356093E+02  0.11450912913E+03  0.21884240897E+02  0.12001686899E+03  0.47000000000E+01 0.  1.
         11    1    4    4    0    0  0.16018128809E+02  0.23131407098E+02  0.19220853388E+02  0.34074677546E+02  0.00000000000E+00 0. -1.
        -12    1    4    4    0    0 -0.51636045758E+02 -0.27716216545E+02  0.30113723608E+02  0.65888589533E+02  0.00000000000E+00 0.  1.
</event>
<event>
12    1  0.8526130E-002  0.2031494E+03  0.7818608E-02  0.1147822E+00
         21   -1    0    0  501  502  0.00000000000E+00  0.00000000000E+00  0.64992491869E+03  0.64992491869E+03  0.00000000000E+00 0.  1.
         21   -1    0    0  502  503 -0.00000000000E+00 -0.00000000000E+00 -0.66951571735E+02  0.66951571735E+02  0.00000000000E+00 0.  1.
         -6    2    1    2    0  503 -0.99222389300E+02  0.44225588812E+02  0.38227450184E+03  0.43130736883E+03  0.16760449400E+03 0.  0.
        -24    2    3    3    0    0 -0.10783914837E+03  0.30054839765E+02  0.16029475613E+03  0.20865931434E+03  0.72881584108E+02 0.  0.
          6    2    1    2  501    0  0.99222389300E+02 -0.44225588812E+02  0.20069884511E+03  0.28556912159E+03  0.17166453196E+03 0.  0.
         24    2    5    5    0    0  0.81751761898E+02 -0.46586856588E+02  0.48843349736E+02  0.13262148387E+03  0.79681236126E+02 0.  0.
          5    1    5    5  501    0  0.17470627401E+02  0.23612677752E+01  0.15185549538E+03  0.15294763772E+03  0.47000000000E+01 0. -1.
        -11    1    6    6    0    0  0.14728864127E+02 -0.17597146053E+02 -0.21341487177E+02  0.31337805644E+02  0.00000000000E+00 0.  1.
         12    1    6    6    0    0  0.67022897772E+02 -0.28989710535E+02  0.70184836913E+02  0.10128367823E+03  0.00000000000E+00 0. -1.
         -5    1    3    3    0  503  0.86167590703E+01  0.14170749048E+02  0.22197974571E+03  0.22264805449E+03  0.47000000000E+01 0.  1.
         13    1    4    4    0    0 -0.24515729071E+02  0.41681273409E+02  0.46012900420E+02  0.66749805467E+02  0.00000000000E+00 0. -1.
        -14    1    4    4    0    0 -0.83323419299E+02 -0.11626433644E+02  0.11428185571E+03  0.14190950887E+03  0.00000000000E+00 0.  1.
</event>
<event>
12    1  0.8526130E-002  0.2546682E+03  0.7818608E-02  0.1110445E+00
         21   -1    0    0  503  502  0.00000000000E+00  0.00000000000E+00  0.63305326252E+03  0.63305326252E+03  0.00000000000E+00 0.  1.
         21   -1    0    0  501  503 -0.00000000000E+00 -0.00000000000E+00 -0.14749607239E+03  0.14749607239E+03  0.00000000000E+00 0. -1.
          6    2    1    2  501    0  0.15951424209E+03  0.96845256399E+02  0.26635443894E+02  0.25570166908E+03  0.17277181362E+03 0.  0.
         24    2    3    3    0    0  0.13067346323E+03  0.17686319825E+02 -0.25850690323E+02  0.15632958019E+03  0.79889420764E+02 0.  0.
         -6    2    1    2    0  502 -0.15951424209E+03 -0.96845256399E+02  0.45892174623E+03  0.52484766584E+03  0.17329773817E+03 0.  0.
        -24    2    5    5    0    0 -0.26350895037E+02 -0.43901650254E+02  0.98290908923E+02  0.13675979789E+03  0.80127492023E+02 0.  0.
          5    1    3    3  501    0  0.28840778860E+02  0.79158936574E+02  0.52486134217E+02  0.99372088887E+02  0.47000000000E+01 0. -1.
        -13    1    4    4    0    0  0.33309358015E+02 -0.31493061380E+01  0.27553653066E+02  0.43343226205E+02  0.00000000000E+00 0.  1.
         14    1    4    4    0    0  0.97364105216E+02  0.20835625963E+02 -0.53404343389E+02  0.11298635398E+03  0.00000000000E+00 0. -1.
         -5    1    5    5    0  502 -0.13316334705E+03 -0.52943606145E+02  0.36063083731E+03  0.38808786795E+03  0.47000000000E+01 0.  1.
         11    1    6    6    0    0  0.55882032895E+01  0.18820718884E+02  0.42945367208E+02  0.47220250316E+02  0.00000000000E+00 0. -1.
        -12    1    6    6    0    0 -0.31939098326E+02 -0.62722369138E+02  0.55345541715E+02  0.89539547575E+02  0.00000000000E+00 0.  1.
</event>
<event>
12    1  0.8526130E-002  0.1815416E+03  0.7818608E-02  0.1166609E+00
         21   -1    0    0  503  502  0.00000000000E+00  0.00000000000E+00  0.27721335145E+03  0.27721335145E+03  0.00000000000E+00 0.  1.
         21   -1    0    0  501  503 -0.00000000000E+00 -0.00000000000E+00 -0.11812308581E+03  0.11812308581E+03  0.00000000000E+00 0.  1.
          6    2    1    2  501    0  0.22738054526E+02  0.53812280460E+02  0.82129896955E+02  0.19815563693E+03  0.17060936616E+03 0.  0.
         24    2    3    3    0    0  0.48152867121E+02 -0.11719923049E+02  0.87199798274E+02  0.12752861451E+03  0.78763490856E+02 0.  0.
         -6    2    1    2    0  502 -0.22738054526E+02 -0.53812280460E+02  0.76960368683E+02  0.19718080033E+03  0.17188539501E+03 0.  0.
        -24    2    5    5    0    0  0.35996521358E+01  0.20918302336E+02 -0.31125134567E+02  0.63080461737E+02  0.50594839491E+02 0.  0.
          5    1    3    3  501    0 -0.25414812596E+02  0.65532203509E+02 -0.50699013194E+01  0.70627022416E+02  0.47000000000E+01 0. -1.
        -11    1    4    4    0    0 -0.88072833859E+01  0.20984557448E+02  0.68851236183E+01  0.23776560289E+02  0.00000000000E+00 0.  1.
         12    1    4    4    0    0  0.56960150507E+02 -0.32704480497E+02  0.80314674656E+02  0.10375205422E+03  0.00000000000E+00 0. -1.
         -5    1    5    5    0  502 -0.26337706661E+02 -0.74730582795E+02  0.10808550325E+03  0.13410033859E+03  0.47000000000E+01 0.  1.
         11    1    6    6    0    0 -0.99139985072E+01  0.16310609359E+02  0.85498525541E+01  0.20914667646E+02  0.00000000000E+00 0. -1.
        -12    1    6    6    0    0  0.13513650643E+02  0.46076929767E+01 -0.39674987121E+02  0.42165794091E+02  0.00000000000E+00 0.  1.
</event>
<event>
12    1  0.8526130E-002  0.1877016E+03  0.7818608E-02  0.1160614E+00
         21   -1    0    0  501  502  0.00000000000E+00  0.00000000000E+00  0.10209031576E+04  0.10209031576E+04  0.00000000000E+00 0.  1.
         21   -1    0    0  502  503 -0.00000000000E+00 -0.00000000000E+00 -0.41836957071E+02  0.41836957071E+02  0.00000000000E+00 0.  1.
         -6    2    1    2    0  503 -0.74358421715E+02  0.89031108227E+01  0.26669701759E+03  0.32612755098E+03  0.17211461312E+03 0.  0.
        -24    2    3    3    0    0 -0.64031973645E+01  0.35230400842E+02  0.59126528342E+02  0.10608519886E+03  0.80473231473E+02 0.  0.
          6    2    1    2  501    0  0.74358421715E+02 -0.89031108227E+01  0.71236918289E+03  0.73661256365E+03  0.17181320069E+03 0.  0.
         24    2    5    5    0    0  0.79375328522E+02  0.88158317883E+01  0.17450265911E+03  0.19841035473E+03  0.50371908440E+02 0.  0.
          5    1    5    5  501    0 -0.50169068066E+01 -0.17718942611E+02  0.53786652379E+03  0.53820220892E+03  0.47000000000E+01 0. -1.
        -13    1    6    6    0    0  0.71440521672E+02  0.40479561202E+01  0.17507735427E+03  0.18913543841E+03  0.00000000000E+00 0.  1.
         14    1    6    6    0    0  0.79348068498E+01  0.47678756680E+01 -0.57469516251E+00  0.92749163155E+01  0.00000000000E+00 0. -1.
         -5    1    3    3    0  503 -0.67955224351E+02 -0.26327290020E+02  0.20757048925E+03  0.22004235212E+03  0.47000000000E+01 0.  1.
         11    1    4    4    0    0  0.14607189709E+02 -0.22274739891E+02  0.14538454643E+02  0.30346345609E+02  0.00000000000E+00 0. -1.
        -12    1    4    4    0    0 -0.21010387074E+02  0.57505140733E+02  0.44588073699E+02  0.75738853252E+02  0.00000000000E+00 0.  1.
</event>
<event>
12    1  0.8526130E-002  0.2381276E+03  0.7818608E-02  0.1121089E+00
         21   -1    0    0  501  502  0.00000000000E+00  0.00000000000E+00  0.33424467746E+03  0.33424467746E+03  0.00000000000E+00 0.  1.
         21   -1    0    0  502  503 -0.00000000000E+00 -0.00000000000E+00 -0.38346480740E+03  0.38346480740E+03  0.00000000000E+00 0. -1.
         -6    2    1    2    0  503  0.19461177310E+02 -0.16430708510E+03 -0.29268055387E+03  0.37715447747E+03  0.17090359161E+03 0.  0.
        -24    2    3    3    0    0  0.16725725115E+02 -0.14868015724E+03 -0.30990913270E+03  0.35326729468E+03  0.79803332772E+02 0.  0.
          6    2    1    2  501    0 -0.19461177310E+02  0.16430708510E+03  0.24346042393E+03  0.34055500739E+03  0.17125764042E+03 0.  0.
         24    2    5    5    0    0 -0.45555370109E+02  0.12735058374E+03  0.24875488264E+03  0.29476405650E+03  0.81935306428E+02 0.  0.
          5    1    5    5  501    0  0.26094192799E+02  0.36956501362E+02 -0.52944587147E+01  0.45790950894E+02  0.47000000000E+01 0. -1.
        -13    1    6    6    0    0  0.96237428764E+01  0.81131351477E+02  0.16648509837E+03  0.18545134294E+03  0.00000000000E+00 0.  1.
         14    1    6    6    0    0 -0.55179112985E+02  0.46219232265E+02  0.82269784275E+02  0.10931271356E+03  0.00000000000E+00 0. -1.
         -5    1    3    3    0  503  0.27354521946E+01 -0.15626927861E+02  0.17228578831E+02  0.23887182789E+02  0.47000000000E+01 0.  1.
         13    1    4    4    0    0  0.49007298173E+02 -0.91975562014E+02 -0.18453365226E+03  0.21192896947E+03  0.00000000000E+00 0. -1.
        -14    1    4    4    0    0 -0.32281573058E+02 -0.56704595229E+02 -0.12537548044E+03  0.14133832521E+03  0.00000000000E+00 0.  1.
</event>
<event>
12    1  0.8526130E-002  0.1907257E+03  0.7818608E-02  0.1158543E+00
         21   -1    0    0  501  502  0.00000000000E+00  0.00000000000E+00  0.13766281145E+03  0.13766281145E+03  0.00000000000E+00 0.  1.
         21   -1    0    0  502  503 -0.00000000000E+00 -0.00000000000E+00 -0.26031305571E+03  0.26031305571E+03  0.00000000000E+00 0.  1.
         -6    2    1    2    0  503  0.65737874448E+02 -0.35534545281E+02 -0.69894533410E+02  0.20008835933E+03  0.17194747364E+03 0.  0.
        -24    2    3    3    0    0  0.14309217817E+00 -0.18889558806E+02 -0.91314589253E+02  0.12895018513E+03  0.89067166383E+02 0.  0.
          6    2    1    2  501    0 -0.65737874448E+02  0.35534545281E+02 -0.52755710857E+02  0.19788750783E+03  0.17547686082E+03 0.  0.
         24    2    5    5    0    0 -0.53973893956E+02  0.91534072206E+02 -0.36192614074E+02  0.13813163425E+03  0.80490840863E+02 0.  0.
          5    1    5    5  501    0 -0.11763980492E+02 -0.55999526924E+02 -0.16563096783E+02  0.59755873584E+02  0.47000000000E+01 0. -1.
        -11    1    6    6    0    0 -0.24851521294E+02 -0.97822694926E+01 -0.10695459744E+00  0.26707720725E+02  0.00000000000E+00 0.  1.
         12    1    6    6    0    0 -0.29122372662E+02  0.10131634170E+03 -0.36085659476E+02  0.11142391352E+03  0.00000000000E+00 0. -1.
         -5    1    3    3    0  503  0.65594782270E+02 -0.16644986475E+02  0.21420055843E+02  0.71138174197E+02  0.47000000000E+01 0.  1.
         11    1    4    4    0    0  0.29232215036E+02 -0.21117142093E+02 -0.92980086489E+02  0.99728393998E+02  0.00000000000E+00 0. -1.
        -12    1    4    4    0    0 -0.29089122857E+02  0.22275832870E+01  0.16654972357E+01  0.29221791132E+02  0.00000000000E+00 0.  1.
</event>
<event>
12    1  0.8526130E-002  0.4510599E+03  0.7818608E-02  0.1027414E+00
         21   -1    0    0  503  502  0.00000000000E+00  0.00000000000E+00  0.23526690636E+04  0.23526690636E+04  0.00000000000E+00 0.  1.
         21   -1    0    0  501  503 -0.00000000000E+00 -0.00000000000E+00 -0.16459050142E+03  0.16459050142E+03  0.00000000000E+00 0. -1.
          6    2    1    2  501    0  0.23785312368E+03 -0.34244870263E+03  0.22678405225E+03  0.50476580004E+03  0.17179139721E+03 0.  0.
         24    2    3    3    0    0  0.11561779660E+03 -0.10363142797E+03  0.13696309684E+03  0.22180810020E+03  0.79580121060E+02 0.  0.
         -6    2    1    2    0  502 -0.23785312368E+03  0.34244870263E+03  0.19612945099E+04  0.20124937649E+04  0.17207491702E+03 0.  0.
        -24    2    5    5    0    0 -0.14558810792E+03  0.20261866870E+03  0.14833243112E+04  0.15059931506E+04  0.74257224072E+02 0.  0.
          5    1    3    3  501    0  0.12223532708E+03 -0.23881727466E+03  0.89820955417E+02  0.28295769983E+03  0.47000000000E+01 0. -1.
        -13    1    4    4    0    0  0.10857610209E+03 -0.59227430722E+02  0.72971729495E+02  0.14360199093E+03  0.00000000000E+00 0.  1.
         14    1    4    4    0    0  0.70416945099E+01 -0.44403997244E+02  0.63991367342E+02  0.78206109270E+02  0.00000000000E+00 0. -1.
         -5    1    5    5    0  502 -0.92265015756E+02  0.13983003392E+03  0.47797019866E+03  0.50650061434E+03  0.47000000000E+01 0.  1.
         13    1    6    6    0    0 -0.80902513946E+02  0.13795763003E+03  0.74145390490E+03  0.75850604318E+03  0.00000000000E+00 0. -1.
        -14    1    6    6    0    0 -0.64685593977E+02  0.64661038669E+02  0.74187040632E+03  0.74748710742E+03  0.00000000000E+00 0.  1.
</event>
<event>
12    1  0.8526130E-002  0.2071592E+03  0.7818608E-02  0.1144549E+00
         21   -1    0    0  501  502  0.00000000000E+00  0.00000000000E+00  0.39477748471E+03  0.39477748471E+03  0.00000000000E+00 0.  1.
         21   -1    0    0  502  503 -0.00000000000E+00 -0.00000000000E+00 -0.23256022394E+03  0.23256022394E+03  0.00000000000E+00 0.  1.
         -6    2    1    2    0  503 -0.47742763634E+02  0.87274468183E+02 -0.14980020623E+03  0.25281154498E+03  0.17770022851E+03 0.  0.
        -24    2    3    3    0    0 -0.45028821191E+02 -0.16013339039E+02 -0.30886109763E+02  0.95209549614E+02  0.76334034325E+02 0.  0.
          6    2    1    2  501    0  0.47742763634E+02 -0.87274468183E+02  0.31201746699E+03  0.37452616368E+03  0.18171060314E+03 0.  0.
         24    2    5    5    0    0  0.48321290051E+02 -0.49492944587E+02  0.31838236542E+03  0.33592072170E+03  0.81797934093E+02 0.  0.
          5    1    5    5  501    0 -0.57852641733E+00 -0.37781523595E+02 -0.63648984293E+01  0.38605441974E+02  0.47000000000E+01 0. -1.
        -11    1    6    6    0    0  0.50062303607E+02 -0.82681195676E+01  0.85590529501E+02  0.99500426049E+02  0.00000000000E+00 0.  1.
         12    1    6    6    0    0 -0.17410135554E+01 -0.41224825020E+02  0.23279183592E+03  0.23642029565E+03  0.00000000000E+00 0. -1.
         -5    1    3    3    0  503 -0.27139424429E+01  0.10328780722E+03 -0.11891409646E+03  0.15760199536E+03  0.47000000000E+01 0.  1.
         11    1    4    4    0    0  0.14081190993E+01 -0.31059278166E+02 -0.34278415781E+02  0.46278195169E+02  0.00000000000E+00 0. -1.
        -12    1    4    4    0    0 -0.46436940290E+02  0.15045939127E+02  0.33923060181E+01  0.48931354445E+02  0.00000000000E+00 0.  1.
</event>
<event>
12    1  0.8526130E-002  0.2306480E+03  0.7818608E-02  0.1126441E+00
         21   -1    0    0  503  502  0.00000000000E+00  0.00000000000E+00  0.33958190319E+03  0.33958190319E+03  0.00000000000E+00 0. -1.
         21   -1    0    0  501  503 -0.00000000000E+00 -0.00000000000E+00 -0.20364868452E+03  0.20364868452E+03  0.00000000000E+00 0. -1.
          6    2    1    2  501    0  0.13062647555E+03  0.81759703696E+02 -0.64036216125E+02  0.23796633591E+03  0.16964496688E+03 0.  0.
         24    2    3    3    0    0  0.28809083418E+02  0.93248922685E+02 -0.27227928996E+02  0.12899054275E+03  0.79824026033E+02 0.  0.
         -6    2    1    2    0  502 -0.13062647555E+03 -0.81759703696E+02  0.19996943479E+03  0.30526425180E+03  0.17161166428E+03 0.  0.
        -24    2    5    5    0    0 -0.12998233262E+03 -0.30881871902E+01  0.13245661051E+03  0.20148711621E+03  0.78405105943E+02 0.  0.
          5    1    3    3  501    0  0.10181739213E+03 -0.11489218990E+02 -0.36808287129E+02  0.10897579316E+03  0.47000000000E+01 0. -1.
        -13    1    4    4    0    0  0.52262304293E+02  0.79780011487E+02 -0.78043202083E+01  0.95692769302E+02  0.00000000000E+00 0.  1.
         14    1    4    4    0    0 -0.23453220874E+02  0.13468911199E+02 -0.19423608788E+02  0.33297773448E+02  0.00000000000E+00 0. -1.
         -5    1    5    5    0  502 -0.64414292959E+00 -0.78671516505E+02  0.67512824278E+02  0.10377713559E+03  0.47000000000E+01 0.  1.
         11    1    6    6    0    0 -0.52189489366E+02 -0.10710088235E+02  0.10657241320E+03  0.11914750541E+03  0.00000000000E+00 0. -1.
        -12    1    6    6    0    0 -0.77792843250E+02  0.76219010449E+01  0.25884197316E+02  0.82339610803E+02  0.00000000000E+00 0.  1.
</event>
<event>
12    1  0.8526130E-002  0.1800382E+03  0.7818608E-02  0.1167795E+00
         21   -1    0    0  501  502  0.00000000000E+00  0.00000000000E+00  0.64570317643E+02  0.64570317643E+02  0.00000000000E+00 0.  1.
         21   -1    0    0  502  503 -0.00000000000E+00 -0.00000000000E+00 -0.63295667872E+03  0.63295667872E+03  0.00000000000E+00 0. -1.
         -6    2    1    2    0  503  0.50901962001E+02  0.24240655655E+01 -0.44296476228E+03  0.47810880462E+03  0.17254959464E+03 0.  0.
        -24    2    3    3    0    0  0.27808752058E+02 -0.73060242582E+01 -0.44455056096E+03  0.45256324237E+03  0.79759528673E+02 0.  0.
          6    2    1    2  501    0 -0.50901962001E+02 -0.24240655655E+01 -0.12542159879E+03  0.21941819173E+03  0.17267564852E+03 0.  0.
         24    2    5    5    0    0 -0.75370158571E+02  0.99531886903E+01 -0.23905785506E+02  0.11415927566E+03  0.81738160426E+02 0.  0.
          5    1    5    5  501    0  0.24468196569E+02 -0.12377254256E+02 -0.10151581329E+03  0.10525891608E+03  0.47000000000E+01 0. -1.
        -11    1    6    6    0    0 -0.10012311914E+02 -0.68820635168E+01  0.27009824222E+02  0.29616545926E+02  0.00000000000E+00 0.  1.
         12    1    6    6    0    0 -0.65357846657E+02  0.16835252207E+02 -0.50915609727E+02  0.84542729731E+02  0.00000000000E+00 0. -1.
         -5    1    3    3    0  503  0.23093209944E+02  0.97300898237E+01  0.15857986791E+01  0.25545562255E+02  0.47000000000E+01 0.  1.
         11    1    4    4    0    0  0.82111134708E+01 -0.25005110369E+02 -0.44928463096E+02  0.52069614221E+02  0.00000000000E+00 0. -1.
        -12    1    4    4    0    0  0.19597638587E+02  0.17699086111E+02 -0.39962209786E+03  0.40049362815E+03  0.00000000000E+00 0.  1.
</event>
<event>
12    1  0.8526130E-002  0.4643162E+03  0.7818608E-02  0.1023614E+00
         21   -1    0    0  503  502  0.00000000000E+00  0.00000000000E+00  0.48091239338E+03  0.48091239338E+03  0.00000000000E+00 0.  1.
         21   -1    0    0  501  503 -0.00000000000E+00 -0.00000000000E+00 -0.55119462845E+03  0.55119462845E+03  0.00000000000E+00 0.  1.
          6    2    1    2  501    0 -0.39676796884E+03  0.16870690292E+03 -0.25927353707E+03  0.53180100977E+03  0.17234473237E+03 0.  0.
         24    2    3    3    0    0 -0.26543464592E+03  0.17940845790E+03 -0.16191715478E+03  0.36790067371E+03  0.80565468318E+02 0.  0.
         -6    2    1    2    0  502  0.39676796884E+03 -0.16870690292E+03  0.18899130200E+03  0.50030601206E+03  0.16941532775E+03 0.  0.
        -24    2    5    5    0    0  0.34064686470E+03 -0.11285141858E+03  0.99783890221E+02  0.38093488583E+03  0.79867599103E+02 0.  0.
          5    1    3    3  501    0 -0.13133332292E+03 -0.10701554971E+02 -0.97356382289E+02  0.16390033606E+03  0.47000000000E+01 0. -1.
        -13    1    4    4    0    0 -0.98915907974E+02  0.34803870919E+02 -0.82753356480E+02  0.13358062842E+03  0.00000000000E+00 0.  1.
         14    1    4    4    0    0 -0.16651873795E+03  0.14460458698E+03 -0.79163798298E+02  0.23432004529E+03  0.00000000000E+00 0. -1.
         -5    1    5    5    0  502  0.56121104139E+02 -0.55855484348E+02  0.89207411777E+02  0.11937112623E+03  0.47000000000E+01 0. -1.
         11    1    6    6    0    0  0.62330853678E+02 -0.54778897138E+02  0.15716678616E+02  0.84456360794E+02  0.00000000000E+00 0. -1.
        -12    1    6    6    0    0  0.27831601102E+03 -0.58072521438E+02  0.84067211605E+02  0.29647852503E+03  0.00000000000E+00 0.  1.
</event>
<event>
12    1  0.8526130E-002  0.2454050E+03  0.7818608E-02  0.1116560E+00
         21   -1    0    0  503  502  0.00000000000E+00  0.00000000000E+00  0.26511826071E+03  0.26511826071E+03  0.00000000000E+00 0. -1.
         21   -1    0    0  501  503 -0.00000000000E+00 -0.00000000000E+00 -0.36785404499E+03  0.36785404499E+03  0.00000000000E+00 0.  1.
          6    2    1    2  501    0 -0.12863421190E+03 -0.11405486464E+03 -0.24822057384E+03  0.34768395801E+03  0.17238157895E+03 0.  0.
         24    2    3    3    0    0 -0.40926846696E+02 -0.16882763404E+00 -0.14235206783E+03  0.16909828697E+03  0.81578699166E+02 0.  0.
         -6    2    1    2    0  502  0.12863421190E+03  0.11405486464E+03  0.14548478956E+03  0.28528834769E+03  0.17512379825E+03 0.  0.
        -24    2    5    5    0    0  0.10747603775E+03  0.85714670906E+02  0.17649878132E+03  0.23801475465E+03  0.81247154562E+02 0.  0.
          5    1    3    3  501    0 -0.87707365206E+02 -0.11388603701E+03 -0.10586850601E+03  0.17858567104E+03  0.47000000000E+01 0. -1.
        -11    1    4    4    0    0 -0.42706624034E+02 -0.35582911825E+02 -0.81074551328E+02  0.98300977733E+02  0.00000000000E+00 0.  1.
         12    1    4    4    0    0  0.17797773380E+01  0.35414084191E+02 -0.61277516505E+02  0.70797309239E+02  0.00000000000E+00 0. -1.
         -5    1    5    5    0  502  0.21158174149E+02  0.28340193737E+02 -0.31013991757E+02  0.47273593042E+02  0.47000000000E+01 0.  1.
         13    1    6    6    0    0  0.52894930259E+02 -0.40900290427E+01  0.44172933468E+02  0.69035136241E+02  0.00000000000E+00 0. -1.
        -14    1    6    6    0    0  0.54581107494E+02  0.89804699949E+02  0.13232584785E+03  0.16897961841E+03  0.00000000000E+00 0.  1.
</event>
<event>
12    1  0.8526130E-002  0.1957643E+03  0.7818608E-02  0.1153444E+00
         21   -1    0    0  503  502  0.00000000000E+00  0.00000000000E+00  0.52812093908E+03  0.52812093908E+03  0.00000000000E+00 0. -1.
         21   -1    0    0  501  503 -0.00000000000E+00 -0.00000000000E+00 -0.11619207775E+03  0.11619207775E+03  0.00000000000E+00 0. -1.
          6    2    1    2  501    0  0.49692115870E+02  0.76937190957E+02  0.81277340273E+01  0.19556030012E+03  0.17259528728E+03 0.  0.
         24    2    3    3    0    0 -0.38212555249E+02  0.29642304599E+02  0.17204650883E+02  0.95218295457E+02  0.80197619523E+02 0.  0.
         -6    2    1    2    0  502 -0.49692115870E+02 -0.76937190957E+02  0.40380112730E+03  0.44875271670E+03  0.17301737660E+03 0.  0.
        -24    2    5    5    0    0 -0.61009850414E+02  0.45049171528E+01  0.13534518964E+03  0.16794746648E+03  0.78393462809E+02 0.  0.
          5    1    3    3  501    0  0.87904671119E+02  0.47294886359E+02 -0.90769168556E+01  0.10034200466E+03  0.47000000000E+01 0. -1.
        -13    1    4    4    0    0 -0.13147057146E+02  0.11628431940E+02 -0.32368347126E+02  0.36820856002E+02  0.00000000000E+00 0.  1.
         14    1    4    4    0    0 -0.25065498103E+02  0.18013872658E+02  0.49572998009E+02  0.58397439455E+02  0.00000000000E+00 0. -1.
         -5    1    5    5    0  502  0.11317734544E+02 -0.81442108110E+02  0.26845593766E+03  0.28080525023E+03  0.47000000000E+01 0.  1.
         11    1    6    6    0    0 -0.20247462782E+02 -0.23398691391E+02  0.89026538755E+01  0.32198070656E+02  0.00000000000E+00 0. -1.
        -12    1    6    6    0    0 -0.40762387633E+02  0.27903608544E+02  0.12644253576E+03  0.13574939582E+03  0.00000000000E+00 0.  1.
</event>
<event>
12    1  0.8526130E-002  0.1743280E+03  0.7818608E-02  0.1173546E+00
         21   -1    0    0  501  502  0.00000000000E+00  0.00000000000E+00  0.40831626899E+03  0.40831626899E+03  0.00000000000E+00 0. -1.
         21   -1    0    0  502  503 -0.00000000000E+00 -0.00000000000E+00 -0.76853464446E+02  0.76853464446E+02  0.00000000000E+00 0. -1.
         -6    2    1    2    0  503  0.39755190311E+01  0.16767820586E+02  0.12036235778E+03  0.21139306459E+03  0.17292474093E+03 0.  0.
        -24    2    3    3    0    0  0.14628762409E+02  0.74853387062E+02  0.10356774622E+03  0.14981730958E+03  0.76823941243E+02 0.  0.
          6    2    1    2  501    0 -0.39755190311E+01 -0.16767820586E+02  0.21110044676E+03  0.27377666884E+03  0.17347420910E+03 0.  0.
         24    2    5    5    0    0  0.45344405560E+02 -0.19585133035E+01  0.20148321238E+03  0.22118054978E+03  0.79154278706E+02 0.  0.
          5    1    5    5  501    0 -0.49319924591E+02 -0.14809307283E+02  0.96172343730E+01  0.52596119067E+02  0.47000000000E+01 0. -1.
        -11    1    6    6    0    0 -0.20943930609E+02 -0.98904678689E+01  0.69767123572E+02  0.73511367253E+02  0.00000000000E+00 0.  1.
         12    1    6    6    0    0  0.66288336169E+02  0.79319545655E+01  0.13171608881E+03  0.14766918252E+03  0.00000000000E+00 0. -1.
         -5    1    3    3    0  503 -0.10653243378E+02 -0.58085566476E+02  0.16794611561E+02  0.61575755008E+02  0.47000000000E+01 0.  1.
         13    1    4    4    0    0  0.19627676501E+02  0.10738840817E+02  0.77089396093E+02  0.80270438998E+02  0.00000000000E+00 0. -1.
        -14    1    4    4    0    0 -0.49989140921E+01  0.64114546245E+02  0.26478350130E+02  0.69546870583E+02  0.00000000000E+00 0.  1.
</event>
<event>
12    1  0.8526130E-002  0.3011737E+03  0.7818608E-02  0.1084876E+00
         21   -1    0    0  503  502  0.00000000000E+00  0.00000000000E+00  0.42691763196E+03  0.42691763196E+03  0.00000000000E+00 0.  1.
         21   -1    0    0  501  503 -0.00000000000E+00 -0.00000000000E+00 -0.21243055329E+03  0.21243055329E+03  0.00000000000E+00 0. -1.
          6    2    1    2  501    0 -0.11578057743E+03  0.21772218349E+03  0.83430029116E+02  0.31251591279E+03  0.17290903590E+03 0.  0.
         24    2    3    3    0    0  0.61615517352E+01  0.90743430380E+02  0.62344772069E+02  0.13514577813E+03  0.78135624812E+02 0.  0.
         -6    2    1    2    0  502  0.11578057743E+03 -0.21772218349E+03  0.13105704955E+03  0.32683227246E+03  0.16980957804E+03 0.  0.
        -24    2    5    5    0    0  0.12000797349E+03 -0.19251954662E+03  0.55309170522E+02  0.24675184439E+03  0.79760133109E+02 0.  0.
          5    1    3    3  501    0 -0.12194212916E+03  0.12697875311E+03  0.21085257048E+02  0.17737013466E+03  0.47000000000E+01 0. -1.
        -11    1    4    4    0    0  0.29277569088E+02  0.90041835709E+02  0.39352157046E+02  0.10253438688E+03  0.00000000000E+00 0.  1.
         12    1    4    4    0    0 -0.23116017353E+02  0.70159467182E+00  0.22992615023E+02  0.32611391245E+02  0.00000000000E+00 0. -1.
         -5    1    5    5    0  502 -0.42273960600E+01 -0.25202636867E+02  0.75747879032E+02  0.80080428073E+02  0.47000000000E+01 0.  1.
         11    1    6    6    0    0  0.88094539187E+02 -0.88422055940E+02  0.58456200620E+02  0.13782683049E+03  0.00000000000E+00 0. -1.
        -12    1    6    6    0    0  0.31913434300E+02 -0.10409749068E+03 -0.31470300973E+01  0.10892501390E+03  0.00000000000E+00 0.  1.
</event>
<event>
12    1  0.8526130E-002  0.2155795E+03  0.7818608E-02  0.1137424E+00
         21   -1    0    0  503  502  0.00000000000E+00  0.00000000000E+00  0.40616225974E+03  0.40616225974E+03  0.00000000000E+00 0.  1.
         21   -1    0    0  501  503 -0.00000000000E+00 -0.00000000000E+00 -0.13929673105E+03  0.13929673105E+03  0.00000000000E+00 0.  1.
          6    2    1    2  501    0  0.10761976084E+03  0.70013100909E+02  0.17170297517E+02  0.21626222987E+03  0.17317819069E+03 0.  0.
         24    2    3    3    0    0  0.82094848035E+02  0.35760158345E+02 -0.53652989978E+02  0.13342013128E+03  0.83089921759E+02 0.  0.
         -6    2    1    2    0  502 -0.10761976084E+03 -0.70013100909E+02  0.24969523117E+03  0.32919676092E+03  0.17186899578E+03 0.  0.
        -24    2    5    5    0    0 -0.83447747728E+02 -0.44694265713E+02  0.26362761781E+03  0.29122926125E+03  0.79711089226E+02 0.  0.
          5    1    3    3  501    0  0.25524912810E+02  0.34252942564E+02  0.70823287495E+02  0.82842098596E+02  0.47000000000E+01 0. -1.
        -13    1    4    4    0    0  0.42538547841E+02  0.31266446131E+02 -0.72247606859E+02  0.89480922006E+02  0.00000000000E+00 0.  1.
         14    1    4    4    0    0  0.39556300194E+02  0.44937122134E+01  0.18594616881E+02  0.43939209272E+02  0.00000000000E+00 0. -1.
         -5    1    5    5    0  502 -0.24172013117E+02 -0.25318835195E+02 -0.13932386644E+02  0.37967499672E+02  0.47000000000E+01 0.  1.
         13    1    6    6    0    0 -0.25764924738E+02 -0.58490107662E+02  0.15015659122E+03  0.16319291016E+03  0.00000000000E+00 0. -1.
        -14    1    6    6    0    0 -0.57682822990E+02  0.13795841949E+02  0.11347102660E+03  0.12803635109E+03  0.00000000000E+00 0.  1.
</event>
<event>
12    1  0.8526130E-002  0.1787517E+03  0.7818608E-02  0.1169245E+00
         21   -1    0    0  501  502  0.00000000000E+00  0.00000000000E+00  0.26856501050E+02  0.26856501050E+02  0.00000000000E+00 0.  1.
         21   -1    0    0  502  503 -0.00000000000E+00 -0.00000000000E+00 -0.15161236573E+04  0.15161236573E+04  0.00000000000E+00 0.  1.
         -6    2    1    2    0  503 -0.48459917846E+02 -0.16832128430E+02 -0.38481309725E+03  0.42430329158E+03  0.17123223775E+03 0.  0.
        -24    2    3    3    0    0 -0.94158237018E+02  0.41377827248E+01 -0.31402826681E+03  0.33735126015E+03  0.79430633424E+02 0.  0.
          6    2    1    2  501    0  0.48459917846E+02  0.16832128430E+02 -0.11044540590E+04  0.11186768668E+04  0.17025709859E+03 0.  0.
         24    2    5    5    0    0 -0.27443645433E+02  0.36826805581E+02 -0.43329734539E+03  0.44292945667E+03  0.79564733268E+02 0.  0.
          5    1    5    5  501    0  0.75903563279E+02 -0.19994677151E+02 -0.67115671363E+03  0.67574741012E+03  0.47000000000E+01 0. -1.
        -11    1    6    6    0    0 -0.44298113420E+02 -0.59127953402E+01 -0.24992638867E+03  0.25389069253E+03  0.00000000000E+00 0.  1.
         12    1    6    6    0    0  0.16854467987E+02  0.42739600921E+02 -0.18337095673E+03  0.18903876414E+03  0.00000000000E+00 0. -1.
         -5    1    3    3    0  503  0.45698319172E+02 -0.20969911154E+02 -0.70784830436E+02  0.86952031424E+02  0.47000000000E+01 0.  1.
         13    1    4    4    0    0 -0.21775603881E+02 -0.14201909407E+02 -0.19579315537E+03  0.19751159673E+03  0.00000000000E+00 0. -1.
        -14    1    4    4    0    0 -0.72382633137E+02  0.18339692132E+02 -0.11823511144E+03  0.13983966342E+03  0.00000000000E+00 0.  1.
</event>
<event>
12    1  0.8526130E-002  0.2044197E+03  0.7818608E-02  0.1146390E+00
         21   -1    0    0  501  502  0.00000000000E+00  0.00000000000E+00  0.53658793012E+02  0.53658793012E+02  0.00000000000E+00 0.  1.
         21   -1    0    0  502  503 -0.00000000000E+00 -0.00000000000E+00 -0.10315450932E+04  0.10315450932E+04  0.00000000000E+00 0.  1.
         -6    2    1    2    0  503 -0.56086637369E+01 -0.11002088630E+03 -0.76216219380E+03  0.78909987521E+03  0.17219567612E+03 0.  0.
        -24    2    3    3    0    0  0.47387348493E+02 -0.69894246865E+02 -0.62951909567E+03  0.64065794722E+03  0.83770800297E+02 0.  0.
          6    2    1    2  501    0  0.56086637369E+01  0.11002088630E+03 -0.21572410635E+03  0.29610401095E+03  0.17030749459E+03 0.  0.
         24    2    5    5    0    0 -0.82741257156E+01  0.14317404579E+03 -0.19251755071E+03  0.25306335515E+03  0.80067383157E+02 0.  0.
          5    1    5    5  501    0  0.13882789453E+02 -0.33153159491E+02 -0.23206555639E+02  0.43040655802E+02  0.47000000000E+01 0. -1.
        -11    1    6    6    0    0 -0.38516474228E+02  0.56697676704E+02 -0.55276858461E+02  0.88054962449E+02  0.00000000000E+00 0.  1.
         12    1    6    6    0    0  0.30242348513E+02  0.86476369090E+02 -0.13724069225E+03  0.16500839270E+03  0.00000000000E+00 0. -1.
         -5    1    3    3    0  503 -0.52996012230E+02 -0.40126639438E+02 -0.13264309812E+03  0.14844192799E+03  0.47000000000E+01 0.  1.
         11    1    4    4    0    0  0.22290290049E+02 -0.62991419884E+02 -0.58709581746E+03  0.59088600837E+03  0.00000000000E+00 0. -1.
        -12    1    4    4    0    0  0.25097058443E+02 -0.69028269812E+01 -0.42423278211E+02  0.49771938851E+02  0.00000000000E+00 0.  1.
</event>
<event>
12    1  0.8526130E-002  0.2772201E+03  0.7818608E-02  0.1098159E+00
         21   -1    0    0  503  502  0.00000000000E+00  0.00000000000E+00  0.14219013566E+04  0.14219013566E+04  0.00000000000E+00 0.  1.
         21   -1    0    0  501  503 -0.00000000000E+00 -0.00000000000E+00 -0.13327960095E+03  0.13327960095E+03  0.00000000000E+00 0. -1.
          6    2    1    2  501    0 -0.90514323779E+01  0.21744975766E+03  0.43009219677E+02  0.28053662033E+03  0.17171102713E+03 0.  0.
         24    2    3    3    0    0 -0.20417756509E+02  0.10347018323E+03  0.86609191599E+02  0.15788433025E+03  0.79393614795E+02 0.  0.
         -6    2    1    2    0  502  0.90514323779E+01 -0.21744975766E+03  0.12456125359E+04  0.12746443372E+04  0.16062774068E+03 0.  0.
        -24    2    5    5    0    0 -0.46450943468E+02 -0.15147469280E+03  0.68925774310E+03  0.71162926773E+03  0.78979146369E+02 0.  0.
          5    1    3    3  501    0  0.11366324131E+02  0.11397957443E+03 -0.43599971922E+02  0.12265229009E+03  0.47000000000E+01 0. -1.
        -13    1    4    4    0    0  0.21428645964E+02  0.82345454761E+02  0.53871069938E+02  0.10070776020E+03  0.00000000000E+00 0.  1.
         14    1    4    4    0    0 -0.41846402473E+02  0.21124728464E+02  0.32738121661E+02  0.57176570049E+02  0.00000000000E+00 0. -1.
         -5    1    5    5    0  502  0.55502375846E+02 -0.65975064856E+02  0.55635479285E+03  0.56301506945E+03  0.47000000000E+01 0.  1.
         11    1    6    6    0    0 -0.40614055901E+02 -0.39979429031E+02  0.14029969560E+03  0.15143269418E+03  0.00000000000E+00 0. -1.
        -12    1    6    6    0    0 -0.58368875671E+01 -0.11149526377E+03  0.54895804750E+03  0.56019657355E+03  0.00000000000E+00 0.  1.
</event>
<event>
12    1  0.8526130E-002  0.1730488E+03  0.7818608E-02  0.1175392E+00
         21   -1    0    0  503  502  0.00000000000E+00  0.00000000000E+00  0.48663545952E+02  0.48663545952E+02  0.00000000000E+00 0. -1.
         21   -1    0    0  501  503 -0.00000000000E+00 -0.00000000000E+00 -0.69691532080E+03  0.69691532080E+03  0.00000000000E+00 0. -1.
          6    2    1    2  501    0 -0.18044967354E+01  0.14322967092E+02 -0.45665118615E+03  0.48739935647E+03  0.16976284424E+03 0.  0.
         24    2    3    3    0    0  0.69008097785E+01  0.35234587966E+02 -0.45553147985E+03  0.46423857084E+03  0.81972093766E+02 0.  0.
         -6    2    1    2    0  502  0.18044967354E+01 -0.14322967092E+02 -0.19160058870E+03  0.25817951028E+03  0.17244555762E+03 0.  0.
        -24    2    5    5    0    0  0.66746615926E+02  0.12714018607E+02 -0.11288117508E+03  0.15250399977E+03  0.76802039372E+02 0.  0.
          5    1    3    3  501    0 -0.87053065138E+01 -0.20911620874E+02 -0.11197063026E+01  0.23160785636E+02  0.47000000000E+01 0. -1.
        -13    1    4    4    0    0  0.34483291575E+02 -0.95132434962E+01 -0.22205449461E+03  0.22491731320E+03  0.00000000000E+00 0.  1.
         14    1    4    4    0    0 -0.27582481796E+02  0.44747831462E+02 -0.23347698524E+03  0.23932125764E+03  0.00000000000E+00 0. -1.
         -5    1    5    5    0  502 -0.64942119191E+02 -0.27036985699E+02 -0.78719413612E+02  0.10567551050E+03  0.47000000000E+01 0.  1.
         13    1    6    6    0    0  0.42131348953E+02  0.18770959726E+02 -0.11795454701E+03  0.12665178504E+03  0.00000000000E+00 0. -1.
        -14    1    6    6    0    0  0.24615266973E+02 -0.60569411197E+01  0.50733719260E+01  0.25852214732E+02  0.00000000000E+00 0.  1.
</event>
<event>
12    1  0.8526130E-002  0.1951102E+03  0.7818608E-02  0.1154023E+00
         21   -1    0    0  501  502  0.00000000000E+00  0.00000000000E+00  0.36952308972E+02  0.36952308972E+02  0.00000000000E+00 0.  1.
         21   -1    0    0  502  503 -0.00000000000E+00 -0.00000000000E+00 -0.12081173432E+04  0.12081173432E+04  0.00000000000E+00 0.  1.
         -6    2    1    2    0  503  0.80406777325E+01 -0.91212271621E+02 -0.34465630982E+03  0.39584373560E+03  0.17181373672E+03 0.  0.
        -24    2    3    3    0    0  0.37166150369E+02 -0.18795955965E+02 -0.27965351380E+03  0.29415858713E+03  0.81170043176E+02 0.  0.
          6    2    1    2  501    0 -0.80406777325E+01  0.91212271621E+02 -0.82650872442E+03  0.84922591658E+03  0.17228945079E+03 0.  0.
         24    2    5    5    0    0 -0.36304281727E+02  0.16604424506E+02 -0.22805962779E+03  0.24546389937E+03  0.81532964393E+02 0.  0.
          5    1    5    5  501    0  0.28263603995E+02  0.74607847115E+02 -0.59844909663E+03  0.60376201721E+03  0.47000000000E+01 0. -1.
        -11    1    6    6    0    0 -0.11693778522E+02  0.47792206612E+02 -0.10116210990E+03  0.11249271953E+03  0.00000000000E+00 0.  1.
         12    1    6    6    0    0 -0.24610503205E+02 -0.31187782106E+02 -0.12689751789E+03  0.13297117984E+03  0.00000000000E+00 0. -1.
         -5    1    3    3    0  503 -0.29125472636E+02 -0.72416315656E+02 -0.65002796016E+02  0.10168514847E+03  0.47000000000E+01 0.  1.
         13    1    4    4    0    0  0.23196642222E+02  0.30371657149E+02 -0.15004147106E+03  0.15483205355E+03  0.00000000000E+00 0. -1.
        -14    1    4    4    0    0  0.13969508146E+02 -0.49167613114E+02 -0.12961204274E+03  0.13932653358E+03  0.00000000000E+00 0.  1.
</event>
<event>
12    1  0.8526130E-002  0.1977901E+03  0.7818608E-02  0.1151639E+00
         21   -1    0    0  501  502  0.00000000000E+00  0.00000000000E+00  0.43699492600E+02  0.43699492600E+02  0.00000000000E+00 0.  1.
         21   -1    0    0  502  503 -0.00000000000E+00 -0.00000000000E+00 -0.90103432378E+03  0.90103432378E+03  0.00000000000E+00 0.  1.
         -6    2    1    2    0  503  0.80109067241E+02  0.44460959650E+02 -0.38934163643E+03  0.43670107214E+03  0.17529026487E+03 0.  0.
        -24    2    3    3    0    0  0.94231109743E+02 -0.10190969571E+02 -0.16650174576E+03  0.20677505724E+03  0.77780042753E+02 0.  0.
          6    2    1    2  501    0 -0.80109067241E+02 -0.44460959650E+02 -0.46799319475E+03  0.50803274425E+03  0.17517248444E+03 0.  0.
         24    2    5    5    0    0 -0.66007496423E+01 -0.52891017803E+02 -0.12606138163E+03  0.15815563231E+03  0.79250882843E+02 0.  0.
          5    1    5    5  501    0 -0.73508317599E+02  0.84300581530E+01 -0.34193181312E+03  0.34987711194E+03  0.47000000000E+01 0. -1.
        -13    1    6    6    0    0  0.30376187964E+02 -0.26897267792E+02 -0.95031210414E+02  0.10333008644E+03  0.00000000000E+00 0.  1.
         14    1    6    6    0    0 -0.36976937606E+02 -0.25993750010E+02 -0.31030171219E+02  0.54825545872E+02  0.00000000000E+00 0. -1.
         -5    1    3    3    0  503 -0.14122042502E+02  0.54651929220E+02 -0.22283989067E+03  0.22992601490E+03  0.47000000000E+01 0.  1.
         13    1    4    4    0    0 -0.33226802680E+01 -0.22384497174E+02 -0.19194430354E+02  0.29673760707E+02  0.00000000000E+00 0. -1.
        -14    1    4    4    0    0  0.97553790011E+02  0.12193527603E+02 -0.14730731540E+03  0.17710129653E+03  0.00000000000E+00 0.  1.
</event>
<event>
12    1  0.8526130E-002  0.2054644E+03  0.7818608E-02  0.1145409E+00
         21   -1    0    0  503  502  0.00000000000E+00  0.00000000000E+00  0.39872361158E+02  0.39872361158E+02  0.00000000000E+00 0.  1.
         21   -1    0    0  501  503 -0.00000000000E+00 -0.00000000000E+00 -0.10831489375E+04  0.10831489375E+04  0.00000000000E+00 0.  1.
          6    2    1    2  501    0  0.53241539054E+02 -0.97213128357E+02 -0.61297469144E+03  0.64618239703E+03  0.17183906446E+03 0.  0.
         24    2    3    3    0    0  0.29523572796E+02 -0.87598446711E+02 -0.20947275501E+03  0.24184233380E+03  0.77870084823E+02 0.  0.
         -6    2    1    2    0  502 -0.53241539054E+02  0.97213128357E+02 -0.43030188494E+03  0.47683890167E+03  0.17300454374E+03 0.  0.
        -24    2    5    5    0    0 -0.78741059420E+02  0.81818847725E+02 -0.19433931423E+03  0.23895734671E+03  0.80239430509E+02 0.  0.
          5    1    3    3  501    0  0.23717966258E+02 -0.96146816462E+01 -0.40350193643E+03  0.40434006322E+03  0.47000000000E+01 0. -1.
        -11    1    4    4    0    0 -0.68099671711E+01 -0.41979413563E+02 -0.15939926708E+03  0.16497506830E+03  0.00000000000E+00 0.  1.
         12    1    4    4    0    0  0.36333539967E+02 -0.45619033148E+02 -0.50073487934E+02  0.76867265502E+02  0.00000000000E+00 0. -1.
         -5    1    5    5    0  502  0.25499520366E+02  0.15394280632E+02 -0.23596257071E+03  0.23788155496E+03  0.47000000000E+01 0.  1.
         13    1    6    6    0    0 -0.30093105833E+02 -0.23677203700E+01 -0.96129757076E+02  0.10075778538E+03  0.00000000000E+00 0. -1.
        -14    1    6    6    0    0 -0.48647953587E+02  0.84186568095E+02 -0.98209557159E+02  0.13819956133E+03  0.00000000000E+00 0.  1.
</event>
<event>
12    1  0.8526130E-002  0.2507632E+03  0.7818608E-02  0.1113191E+00
         21   -1    0    0  503  502  0.00000000000E+00  0.00000000000E+00  0.49261408289E+02  0.49261408289E+02  0.00000000000E+00 0. -1.
         21   -1    0    0  501  503 -0.00000000000E+00 -0.00000000000E+00 -0.12648735683E+04  0.12648735683E+04  0.00000000000E+00 0. -1.
          6    2    1    2  501    0 -0.14333032250E+03  0.10844609944E+03 -0.61814341720E+03  0.66707081946E+03  0.17486582317E+03 0.  0.
         24    2    3    3    0    0 -0.14144624479E+03  0.28728887124E+02 -0.47959072712E+03  0.50714170511E+03  0.79706049954E+02 0.  0.
         -6    2    1    2    0  502  0.14333032250E+03 -0.10844609944E+03 -0.59746874283E+03  0.64706415716E+03  0.17151964022E+03 0.  0.
        -24    2    5    5    0    0  0.11188949162E+03 -0.14551895493E+03 -0.49441016123E+03  0.53301993897E+03  0.77290511876E+02 0.  0.
          5    1    3    3  501    0 -0.18840777077E+01  0.79717212313E+02 -0.13855269008E+03  0.15992911435E+03  0.47000000000E+01 0. -1.
        -11    1    4    4    0    0 -0.16804236500E+02 -0.13878784193E+02 -0.15987827122E+03  0.16135694786E+03  0.00000000000E+00 0.  1.
         12    1    4    4    0    0 -0.12464200829E+03  0.42607671317E+02 -0.31971245590E+03  0.34578475725E+03  0.00000000000E+00 0. -1.
         -5    1    5    5    0  502  0.31440830883E+02  0.37072855491E+02 -0.10305858160E+03  0.11404421819E+03  0.47000000000E+01 0.  1.
         13    1    6    6    0    0  0.19994744294E+02 -0.80502807706E+02 -0.16087284788E+03  0.18099879843E+03  0.00000000000E+00 0. -1.
        -14    1    6    6    0    0  0.91894747325E+02 -0.65016147223E+02 -0.33353731335E+03  0.35202114053E+03  0.00000000000E+00 0.  1.
</event>
<event>
12    1  0.8526130E-002  0.1961909E+03  0.7818608E-02  0.1153666E+00
         21   -1    0    0  501  502  0.00000000000E+00  0.00000000000E+00  0.33846243767E+02  0.33846243767E+02  0.00000000000E+00 0. -1.
         21   -1    0    0  502  503 -0.00000000000E+00 -0.00000000000E+00 -0.15939459140E+04  0.15939459140E+04  0.00000000000E+00 0. -1.
         -6    2    1    2    0  503  0.66383357472E+01 -0.89054458827E+02 -0.12284585205E+04  0.12440262151E+04  0.17468864641E+03 0.  0.
        -24    2    3    3    0    0  0.35092845978E+02 -0.39304652336E+01 -0.46689649038E+03  0.47717905359E+03  0.91981302745E+02 0.  0.
          6    2    1    2  501    0 -0.66383357472E+01  0.89054458827E+02 -0.33164114972E+03  0.38376594263E+03  0.17121823033E+03 0.  0.
         24    2    5    5    0    0 -0.15024635972E+02  0.93472426773E+02 -0.34576557350E+03  0.36611834168E+03  0.74336895580E+02 0.  0.
          5    1    5    5  501    0  0.83863002253E+01 -0.44179679462E+01  0.14124423780E+02  0.17647600952E+02  0.47000000000E+01 0. -1.
        -13    1    6    6    0    0  0.76999222753E+01  0.62533333280E+02 -0.29923652888E+03  0.30579765661E+03  0.00000000000E+00 0.  1.
         14    1    6    6    0    0 -0.22724558248E+02  0.30939093493E+02 -0.46529044619E+02  0.60320685066E+02  0.00000000000E+00 0. -1.
         -5    1    3    3    0  503 -0.28454510231E+02 -0.85123993593E+02 -0.76156203012E+03  0.76684716153E+03  0.47000000000E+01 0.  1.
         11    1    4    4    0    0  0.14124725956E+02 -0.25674332625E+02 -0.42229907714E+03  0.42331452821E+03  0.00000000000E+00 0. -1.
        -12    1    4    4    0    0  0.20968120022E+02  0.21743867391E+02 -0.44597413247E+02  0.53864525382E+02  0.00000000000E+00 0.  1.
</event>
<event>
12    1  0.8526130E-002  0.2611804E+03  0.7818608E-02  0.1106462E+00
         21   -1    0    0  501  502  0.00000000000E+00  0.00000000000E+00  0.89222639900E+03  0.89222639900E+03  0.00000000000E+00 0. -1.
         21   -1    0    0  502  503 -0.00000000000E+00 -0.00000000000E+00 -0.79115546643E+02  0.79115546643E+02  0.00000000000E+00 0.  1.
         -6    2    1    2    0  503 -0.19169561403E+03 -0.42545377359E+02  0.31650910653E+03  0.41024613890E+03  0.17194930180E+03 0.  0.
        -24    2    3    3    0    0 -0.67278191094E+02  0.10641214892E+02  0.63984804145E+02  0.12371669535E+03  0.81068952718E+02 0.  0.
          6    2    1    2  501    0  0.19169561403E+03  0.42545377359E+02  0.49660174583E+03  0.56109580675E+03  0.17221467075E+03 0.  0.
         24    2    5    5    0    0  0.12839451531E+03  0.89061050412E+02  0.39702901067E+03  0.43418025795E+03  0.80395514955E+02 0.  0.
          5    1    5    5  501    0  0.63301098719E+02 -0.46515673053E+02  0.99572735159E+02  0.12691554879E+03  0.47000000000E+01 0. -1.
        -13    1    6    6    0    0 -0.94004492828E+01  0.67055985220E+01  0.57057222945E+02  0.58213917480E+02  0.00000000000E+00 0.  1.
         14    1    6    6    0    0  0.13779496459E+03  0.82355451890E+02  0.33997178772E+03  0.37596634047E+03  0.00000000000E+00 0. -1.
         -5    1    3    3    0  503 -0.12441742293E+03 -0.53186592251E+02  0.25252430239E+03  0.28652944355E+03  0.47000000000E+01 0.  1.
         13    1    4    4    0    0 -0.38177184961E+02  0.26749386600E+01  0.80634704116E+02  0.89255858386E+02  0.00000000000E+00 0. -1.
        -14    1    4    4    0    0 -0.29101006133E+02  0.79662762320E+01 -0.16649899971E+02  0.34460836960E+02  0.00000000000E+00 0.  1.
</event>
<event>
12    1  0.8526130E-002  0.4074962E+03  0.7818608E-02  0.1041276E+00
         21   -1    0    0  503  502  0.00000000000E+00  0.00000000000E+00  0.59985351219E+03  0.59985351219E+03  0.00000000000E+00 0.  1.
         21   -1    0    0  501  503 -0.00000000000E+00 -0.00000000000E+00 -0.56637223703E+03  0.56637223703E+03  0.00000000000E+00 0. -1.
          6    2    1    2  501    0  0.15773861452E+01  0.36930583841E+03 -0.40054903563E+03  0.57088094891E+03  0.17051755761E+03 0.  0.
         24    2    3    3    0    0 -0.25403748998E+02  0.90128282267E+02 -0.15673478427E+03  0.19921501198E+03  0.79701760774E+02 0.  0.
         -6    2    1    2    0  502 -0.15773861452E+01 -0.36930583841E+03  0.43403031079E+03  0.59534480030E+03  0.17223190800E+03 0.  0.
        -24    2    5    5    0    0 -0.21409798951E+02 -0.99454908381E+02  0.19730944597E+03  0.23580105210E+03  0.79507612258E+02 0.  0.
          5    1    3    3  501    0  0.26981135144E+02  0.27917755615E+03 -0.24381425136E+03  0.37166593693E+03  0.47000000000E+01 0. -1.
        -11    1    4    4    0    0 -0.11037159207E+01  0.39007938291E+01  0.95269426607E+01  0.10353599267E+02  0.00000000000E+00 0.  1.
         12    1    4    4    0    0 -0.24300033078E+02  0.86227488438E+02 -0.16626172693E+03  0.18886141271E+03  0.00000000000E+00 0. -1.
         -5    1    5    5    0  502  0.19832412805E+02 -0.26985093003E+03  0.23672086481E+03  0.35954374821E+03  0.47000000000E+01 0.  1.
         11    1    6    6    0    0  0.26032444390E+02 -0.20068498656E+02  0.79504037080E+02  0.86030952053E+02  0.00000000000E+00 0. -1.
        -12    1    6    6    0    0 -0.47442243340E+02 -0.79386409725E+02  0.11780540890E+03  0.14977010004E+03  0.00000000000E+00 0.  1.
</event>
<event>
12    1  0.8526130E-002  0.1880538E+03  0.7818608E-02  0.1160440E+00
         21   -1    0    0  503  502  0.00000000000E+00  0.00000000000E+00  0.13453087234E+03  0.13453087234E+03  0.00000000000E+00 0.  1.
         21   -1    0    0  501  503 -0.00000000000E+00 -0.00000000000E+00 -0.44752836037E+03  0.44752836037E+03  0.00000000000E+00 0.  1.
          6    2    1    2  501    0 -0.45023087472E+02  0.60345504067E+02 -0.34431978306E+03  0.39232684343E+03  0.17232405752E+03 0.  0.
         24    2    3    3    0    0  0.23956767133E+01 -0.69681475050E+00 -0.64268161322E+02  0.10176582622E+03  0.78864833788E+02 0.  0.
         -6    2    1    2    0  502  0.45023087472E+02 -0.60345504067E+02  0.31322295037E+02  0.18973238928E+03  0.17131443345E+03 0.  0.
        -24    2    5    5    0    0 -0.13106044987E+02  0.21875456462E+02 -0.10523972812E+02  0.80588069576E+02  0.75719079125E+02 0.  0.
          5    1    3    3  501    0 -0.47418764185E+02  0.61042318817E+02 -0.28005162174E+03  0.29056101721E+03  0.47000000000E+01 0. -1.
        -13    1    4    4    0    0 -0.37826220596E+02 -0.36578106119E+01 -0.25085725522E+02  0.45535658204E+02  0.00000000000E+00 0.  1.
         14    1    4    4    0    0  0.40221897310E+02  0.29609958614E+01 -0.39182435800E+02  0.56230168014E+02  0.00000000000E+00 0. -1.
         -5    1    5    5    0  502  0.58129132459E+02 -0.82220960529E+02  0.41846267849E+02  0.10914431970E+03  0.47000000000E+01 0.  1.
         13    1    6    6    0    0 -0.44871400201E+02  0.15019943972E+02 -0.80385939623E+01  0.47996460972E+02  0.00000000000E+00 0. -1.
        -14    1    6    6    0    0  0.31765355214E+02  0.68555124898E+01 -0.24853788498E+01  0.32591608604E+02  0.00000000000E+00 0.  1.
</event>
<event>
12    1  0.8526130E-002  0.2514116E+03  0.7818608E-02  0.1112606E+00
         21   -1    0    0  503  502  0.00000000000E+00  0.00000000000E+00  0.93904397368E+03  0.93904397368E+03  0.00000000000E+00 0. -1.
         21   -1    0    0  501  503 -0.00000000000E+00 -0.00000000000E+00 -0.10752827874E+03  0.10752827874E+03  0.00000000000E+00 0.  1.
          6    2    1    2  501    0  0.18071337905E+03 -0.25537989565E+02  0.95071508775E+02  0.26878690025E+03  0.17291122487E+03 0.  0.
         24    2    3    3    0    0  0.18291577309E+02 -0.81356755415E+01  0.29266193094E+02  0.92616210897E+02  0.85559812095E+02 0.  0.
         -6    2    1    2    0  502 -0.18071337905E+03  0.25537989565E+02  0.73644418616E+03  0.77778535216E+03  0.17114467690E+03 0.  0.
        -24    2    5    5    0    0 -0.17360814396E+03  0.67128005237E+02  0.65430483659E+03  0.68532359511E+03  0.83112298099E+02 0.  0.
          5    1    3    3  501    0  0.16242180174E+03 -0.17402314024E+02  0.65805315681E+02  0.17617068935E+03  0.47000000000E+01 0. -1.
        -11    1    4    4    0    0  0.22317201500E+02 -0.11266748913E+01 -0.27411269899E+02  0.35365302156E+02  0.00000000000E+00 0.  1.
         12    1    4    4    0    0 -0.40256241914E+01 -0.70090006503E+01  0.56677462993E+02  0.57250908741E+02  0.00000000000E+00 0. -1.
         -5    1    5    5    0  502 -0.71052350905E+01 -0.41590015672E+02  0.82139349575E+02  0.92461757056E+02  0.47000000000E+01 0.  1.
         13    1    6    6    0    0 -0.41259153737E+02  0.33681860622E+02  0.31698671310E+03  0.32143018182E+03  0.00000000000E+00 0. -1.
        -14    1    6    6    0    0 -0.13234899023E+03  0.33446144616E+02  0.33731812348E+03  0.36389341329E+03  0.00000000000E+00 0.  1.
</event>
<event>
12    1  0.8526130E-002  0.1998596E+03  0.7818608E-02  0.1150002E+00
         21   -1    0    0  503  502  0.00000000000E+00  0.00000000000E+00  0.18517950485E+04  0.18517950485E+04  0.00000000000E+00 0. -1.
         21   -1    0    0  501  503 -0.00000000000E+00 -0.00000000000E+00 -0.32718054739E+02  0.32718054739E+02  0.00000000000E+00 0. -1.
          6    2    1    2  501    0 -0.10126284902E+03 -0.93904457465E+00  0.35670211634E+03  0.40854421522E+03  0.17151364260E+03 0.  0.
         24    2    3    3    0    0 -0.22202194990E+02  0.19078238513E+02  0.59886348959E+02  0.10069202926E+03  0.75469154744E+02 0.  0.
         -6    2    1    2    0  502  0.10126284902E+03  0.93904457465E+00  0.14623748774E+04  0.14759688880E+04  0.17230446852E+03 0.  0.
        -24    2    5    5    0    0  0.13385187944E+02  0.45567356416E+02  0.46575389310E+03  0.47447518063E+03  0.77100329898E+02 0.  0.
          5    1    3    3  501    0 -0.79060654032E+02 -0.20017283088E+02  0.29681576738E+03  0.30785218596E+03  0.47000000000E+01 0. -1.
        -13    1    4    4    0    0 -0.10815469597E+02  0.35561717986E+02  0.69236794140E+02  0.78583355945E+02  0.00000000000E+00 0.  1.
         14    1    4    4    0    0 -0.11386725393E+02 -0.16483479473E+02 -0.93504451809E+01  0.22108673316E+02  0.00000000000E+00 0. -1.
         -5    1    5    5    0  502  0.87877661077E+02 -0.44628311841E+02  0.99662098431E+03  0.10014937074E+04  0.47000000000E+01 0.  1.
         13    1    6    6    0    0  0.36377670503E+01 -0.20954632310E+02  0.16063488267E+03  0.16203671033E+03  0.00000000000E+00 0. -1.
        -14    1    6    6    0    0  0.97474208941E+01  0.66521988726E+02  0.30511901043E+03  0.31243847030E+03  0.00000000000E+00 0.  1.
</event>
<event>
12    1  0.8526130E-002  0.1940295E+03  0.7818608E-02  0.1155372E+00
         21   -1    0    0  501  502  0.00000000000E+00  0.00000000000E+00  0.10057117571E+04  0.10057117571E+04  0.00000000000E+00 0.  1.
         21   -1    0    0  502  503 -0.00000000000E+00 -0.00000000000E+00 -0.65284389289E+02  0.65284389289E+02  0.00000000000E+00 0.  1.
         -6    2    1    2    0  503  0.46342525826E+02 -0.71246674776E+02  0.11930543867E+03  0.22777455293E+03  0.17442402615E+03 0.  0.
        -24    2    3    3    0    0 -0.37756080677E+02 -0.38418728313E+02  0.30908193727E+02  0.10133716685E+03  0.80077366547E+02 0.  0.
          6    2    1    2  501    0 -0.46342525826E+02  0.71246674776E+02  0.82112192913E+03  0.84322159345E+03  0.17192357253E+03 0.  0.
         24    2    5    5    0    0 -0.52630828168E+02  0.25117242765E+02  0.29735620173E+03  0.31736981353E+03  0.94350452436E+02 0.  0.
          5    1    5    5  501    0  0.62883023420E+01  0.46129432011E+02  0.52376572740E+03  0.52585177992E+03  0.47000000000E+01 0. -1.
        -11    1    6    6    0    0 -0.43413132556E+02  0.37378512699E+02  0.29652446811E+03  0.30200763811E+03  0.00000000000E+00 0.  1.
         12    1    6    6    0    0 -0.92176956124E+01 -0.12261269933E+02  0.83173362067E+00  0.15362175419E+02  0.00000000000E+00 0. -1.
         -5    1    3    3    0  503  0.84098606503E+02 -0.32827946464E+02  0.88397244945E+02  0.12643738608E+03  0.47000000000E+01 0.  1.
         13    1    4    4    0    0  0.85522772842E+01  0.16939956977E+02 -0.64824152794E+01  0.20053062035E+02  0.00000000000E+00 0. -1.
        -14    1    4    4    0    0 -0.46308357961E+02 -0.55358685290E+02  0.37390609007E+02  0.81284104817E+02  0.00000000000E+00 0.  1.
</event>
<event>
12    1  0.8526130E-002  0.1981481E+03  0.7818608E-02  0.1151836E+00
         21   -1    0    0  501  502  0.00000000000E+00  0.00000000000E+00  0.55113612330E+03  0.55113612330E+03  0.00000000000E+00 0.  1.
         21   -1    0    0  502  503 -0.00000000000E+00 -0.00000000000E+00 -0.12514676840E+03  0.12514676840E+03  0.00000000000E+00 0. -1.
         -6    2    1    2    0  503 -0.95540895707E+02 -0.90168998125E+01 -0.11469607158E+02  0.19604021997E+03  0.17056039611E+03 0.  0.
        -24    2    3    3    0    0 -0.11085849387E+03 -0.54035754242E+02 -0.67213585788E+01  0.14801978752E+03  0.81579485392E+02 0.  0.
          6    2    1    2  501    0  0.95540895707E+02  0.90168998125E+01  0.43745896206E+03  0.48024267174E+03  0.17335891392E+03 0.  0.
         24    2    5    5    0    0  0.81491117364E+01 -0.50020328803E+01  0.34040501936E+03  0.34880670948E+03  0.75492483206E+02 0.  0.
          5    1    5    5  501    0  0.87391783970E+02  0.14018932693E+02  0.97053942700E+02  0.13143596225E+03  0.47000000000E+01 0. -1.
        -13    1    6    6    0    0 -0.20125573197E+02 -0.57066527360E+01  0.29196923474E+03  0.29271767732E+03  0.00000000000E+00 0.  1.
         14    1    6    6    0    0  0.28274684933E+02  0.70461985568E+00  0.48435784624E+02  0.56089032166E+02  0.00000000000E+00 0. -1.
         -5    1    3    3    0  503  0.15317598164E+02  0.45018854429E+02 -0.47482485796E+01  0.48020432445E+02  0.47000000000E+01 0.  1.
         11    1    4    4    0    0  0.91780463827E+01 -0.20429836564E+02 -0.66660887891E+01  0.23367744803E+02  0.00000000000E+00 0. -1.
        -12    1    4    4    0    0 -0.12003654025E+03 -0.33605917678E+02 -0.55269789637E-01  0.12465204272E+03  0.00000000000E+00 0.  1.
</event>
<event>
12    1  0.8526130E-002  0.1860913E+03  0.7818608E-02  0.1162165E+00
         21   -1    0    0  501  502  0.00000000000E+00  0.00000000000E+00  0.13439623065E+04  0.13439623065E+04  0.00000000000E+00 0. -1.
         21   -1    0    0  502  503 -0.00000000000E+00 -0.00000000000E+00 -0.36947533348E+02  0.36947533348E+02  0.00000000000E+00 0. -1.
         -6    2    1    2    0  503 -0.61728135538E+02 -0.31218644798E+02  0.27168885118E+03  0.32899266577E+03  0.17215218784E+03 0.  0.
        -24    2    3    3    0    0 -0.78142742688E+02  0.31590584085E+02  0.13918237067E+03  0.18136307546E+03  0.80103555453E+02 0.  0.
          6    2    1    2  501    0  0.61728135538E+02  0.31218644798E+02  0.10353259220E+04  0.10519171741E+04  0.17275708350E+03 0.  0.
         24    2    5    5    0    0  0.30499827521E+01  0.58776735971E+02  0.36819269985E+03  0.38162514812E+03  0.81288882169E+02 0.  0.
          5    1    5    5  501    0  0.58678152786E+02 -0.27558091173E+02  0.66713322212E+03  0.67029202595E+03  0.47000000000E+01 0. -1.
        -13    1    6    6    0    0  0.27245467738E+02 -0.86802436645E+01  0.11282279853E+03  0.11639005976E+03  0.00000000000E+00 0.  1.
         14    1    6    6    0    0 -0.24195484986E+02  0.67456979635E+02  0.25536990132E+03  0.26523508836E+03  0.00000000000E+00 0. -1.
         -5    1    3    3    0  503  0.16414607150E+02 -0.62809228882E+02  0.13250648051E+03  0.14762959032E+03  0.47000000000E+01 0.  1.
         11    1    4    4    0    0  0.52019779327E+01 -0.17904277092E+02  0.15667692263E+02  0.24353650516E+02  0.00000000000E+00 0. -1.
        -12    1    4    4    0    0 -0.83344720621E+02  0.49494861177E+02  0.12351467841E+03  0.15700942494E+03  0.00000000000E+00 0.  1.
</event>
<event>
12    1  0.8526130E-002  0.1952550E+03  0.7818608E-02  0.1153914E+00
         21   -1    0    0  501  502  0.00000000000E+00  0.00000000000E+00  0.39121352715E+03  0.39121352715E+03  0.00000000000E+00 0. -1.
         21   -1    0    0  502  503 -0.00000000000E+00 -0.00000000000E+00 -0.16580113696E+03  0.16580113696E+03  0.00000000000E+00 0. -1.
         -6    2    1    2    0  503  0.21593402135E+02 -0.87682756447E+02 -0.66351777157E+02  0.20622090874E+03  0.17311835279E+03 0.  0.
        -24    2    3    3    0    0  0.16905790328E+02 -0.10785099232E+03  0.23398741168E+01  0.13432261670E+03  0.78226901097E+02 0.  0.
          6    2    1    2  501    0 -0.21593402135E+02  0.87682756447E+02  0.29176416735E+03  0.35079375537E+03  0.17255546547E+03 0.  0.
         24    2    5    5    0    0  0.41984754517E+02  0.50961037130E+02  0.23731372346E+03  0.25926448403E+03  0.80873496389E+02 0.  0.
          5    1    5    5  501    0 -0.63578156653E+02  0.36721719317E+02  0.54450443887E+02  0.91529271342E+02  0.47000000000E+01 0. -1.
        -11    1    6    6    0    0 -0.81905294833E+01  0.18682754054E+02  0.73426410890E+01  0.21680508537E+02  0.00000000000E+00 0.  1.
         12    1    6    6    0    0  0.50175284001E+02  0.32278283076E+02  0.22997108237E+03  0.23758397549E+03  0.00000000000E+00 0. -1.
         -5    1    3    3    0  503  0.46876118070E+01  0.20168235875E+02 -0.68691651274E+02  0.71898292035E+02  0.47000000000E+01 0.  1.
         13    1    4    4    0    0 -0.28402875186E+02 -0.18175153825E+02 -0.17680255348E+01  0.33766632193E+02  0.00000000000E+00 0. -1.
        -14    1    4    4    0    0  0.45308665515E+02 -0.89675838498E+02  0.41078996516E+01  0.10055598451E+03  0.00000000000E+00 0.  1.
</event>
<event>
12    1  0.8526130E-002  0.1991728E+03  0.7818608E-02  0.1150850E+00
         21   -1    0    0  501  502  0.00000000000E+00  0.00000000000E+00  0.49395591794E+03  0.49395591794E+03  0.00000000000E+00 0.  1.
         21   -1    0    0  502  503 -0.00000000000E+00 -0.00000000000E+00 -0.90387930382E+02  0.90387930382E+02  0.00000000000E+00 0. -1.
         -6    2    1    2    0  503  0.36175839815E+02  0.93975777481E+02  0.30389110403E+03  0.36334501226E+03  0.17184195263E+03 0.  0.
        -24    2    3    3    0    0  0.50146739573E+02  0.12332099728E+03  0.28697045651E+03  0.32640281041E+03  0.80398929563E+02 0.  0.
          6    2    1    2  501    0 -0.36175839815E+02 -0.93975777481E+02  0.99676883525E+02  0.22099883606E+03  0.16960208222E+03 0.  0.
         24    2    5    5    0    0 -0.83419301836E+02 -0.48759311932E+02  0.38066496999E+02  0.13102993483E+03  0.79897028791E+02 0.  0.
          5    1    5    5  501    0  0.47243462020E+02 -0.45216465549E+02  0.61610386527E+02  0.89968901229E+02  0.47000000000E+01 0. -1.
        -11    1    6    6    0    0 -0.33452241837E+02 -0.58403827129E+02  0.43051934242E+02  0.79896987110E+02  0.00000000000E+00 0.  1.
         12    1    6    6    0    0 -0.49967059999E+02  0.96445151966E+01 -0.49854372439E+01  0.51132947723E+02  0.00000000000E+00 0. -1.
         -5    1    3    3    0  503 -0.13970899757E+02 -0.29345219795E+02  0.16920647519E+02  0.36942201847E+02  0.47000000000E+01 0.  1.
         11    1    4    4    0    0  0.62037480687E+02  0.61630249811E+02  0.12392602259E+03  0.15167265995E+03  0.00000000000E+00 0. -1.
        -12    1    4    4    0    0 -0.11890741114E+02  0.61690747465E+02  0.16304443391E+03  0.17473015045E+03  0.00000000000E+00 0.  1.
</event>
<event>
12    1  0.8526130E-002  0.2272373E+03  0.7818608E-02  0.1129048E+00
         21   -1    0    0  503  502  0.00000000000E+00  0.00000000000E+00  0.33158748175E+03  0.33158748175E+03  0.00000000000E+00 0.  1.
         21   -1    0    0  501  503 -0.00000000000E+00 -0.00000000000E+00 -0.15404939700E+03  0.15404939700E+03  0.00000000000E+00 0.  1.
          6    2    1    2  501    0  0.98376902332E+02 -0.11074100867E+03  0.92484085599E+02  0.24533669560E+03  0.17232295902E+03 0.  0.
         24    2    3    3    0    0  0.11011726872E+03 -0.84275873619E+02  0.17085816220E+02  0.16443410849E+03  0.86708795247E+02 0.  0.
         -6    2    1    2    0  502 -0.98376902332E+02  0.11074100867E+03  0.85053999151E+02  0.24030018316E+03  0.16902191970E+03 0.  0.
        -24    2    5    5    0    0 -0.45096314519E+00  0.13797651564E+02  0.64735618416E+01  0.81603998009E+02  0.80166869289E+02 0.  0.
          5    1    3    3  501    0 -0.11740366389E+02 -0.26465135050E+02  0.75398269379E+02  0.80902587112E+02  0.47000000000E+01 0. -1.
        -11    1    4    4    0    0 -0.38183274009E+01 -0.41754186042E+02  0.38856018723E+01  0.42108070225E+02  0.00000000000E+00 0.  1.
         12    1    4    4    0    0  0.11393559612E+03 -0.42521687578E+02  0.13200214348E+02  0.12232603826E+03  0.00000000000E+00 0. -1.
         -5    1    5    5    0  502 -0.97925939187E+02  0.96943357105E+02  0.78580437310E+02  0.15869618515E+03  0.47000000000E+01 0.  1.
         11    1    6    6    0    0 -0.17747829630E+01 -0.26157957355E+02 -0.20582006848E+02  0.33331780532E+02  0.00000000000E+00 0. -1.
        -12    1    6    6    0    0  0.13238198178E+01  0.39955608919E+02  0.27055568690E+02  0.48272217477E+02  0.00000000000E+00 0.  1.
</event>
<event>
12    1  0.8526130E-002  0.1984109E+03  0.7818608E-02  0.1151361E+00
         21   -1    0    0  501  502  0.00000000000E+00  0.00000000000E+00  0.66583110322E+03  0.66583110322E+03  0.00000000000E+00 0.  1.
         21   -1    0    0  502  503 -0.00000000000E+00 -0.00000000000E+00 -0.65954854324E+02  0.65954854324E+02  0.00000000000E+00 0.  1.
         -6    2    1    2    0  503  0.80211057148E+02  0.54953981172E+02  0.17807329501E+03  0.26564799163E+03  0.17147887137E+03 0.  0.
        -24    2    3    3    0    0  0.47169587608E+01  0.81279147397E+02  0.12342726971E+03  0.16869103546E+03  0.81202370871E+02 0.  0.
          6    2    1    2  501    0 -0.80211057148E+02 -0.54953981172E+02  0.42180295389E+03  0.46613796592E+03  0.17295409109E+03 0.  0.
         24    2    5    5    0    0 -0.97263723735E+02 -0.77096640780E+02  0.40949578045E+03  0.43524059822E+03  0.79645842112E+02 0.  0.
          5    1    5    5  501    0  0.17052666588E+02  0.22142659608E+02  0.12307173444E+02  0.30897367694E+02  0.47000000000E+01 0. -1.
        -11    1    6    6    0    0 -0.39662959299E+02 -0.67926456551E+02  0.31079484749E+03  0.32059412201E+03  0.00000000000E+00 0.  1.
         12    1    6    6    0    0 -0.57600764437E+02 -0.91701842286E+01  0.98700932954E+02  0.11464647622E+03  0.00000000000E+00 0. -1.
         -5    1    3    3    0  503  0.75494098387E+02 -0.26325166225E+02  0.54646025294E+02  0.96956956163E+02  0.47000000000E+01 0.  1.
         11    1    4    4    0    0  0.65952336044E+01  0.49618616468E+02  0.12725420787E+03  0.13674479013E+03  0.00000000000E+00 0. -1.
        -12    1    4    4    0    0 -0.18782748436E+01  0.31660530929E+02 -0.38269381599E+01  0.31946245332E+02  0.00000000000E+00 0.  1.
</event>
<event>
12    1  0.8526130E-002  0.1848602E+03  0.7818608E-02  0.1163723E+00
         21   -1    0    0  503  502  0.00000000000E+00  0.00000000000E+00  0.91977533700E+03  0.91977533700E+03  0.00000000000E+00 0. -1.
         21   -1    0    0  501  503 -0.00000000000E+00 -0.00000000000E+00 -0.89869792350E+02  0.89869792350E+02  0.00000000000E+00 0. -1.
          6    2    1    2  501    0  0.50487538427E+02 -0.45741201224E+02  0.25563822165E+02  0.18433372581E+03  0.16936399984E+03 0.  0.
         24    2    3    3    0    0 -0.20815825313E+02 -0.62329368876E+01  0.28949126580E+02  0.10261088374E+03  0.96014548093E+02 0.  0.
         -6    2    1    2    0  502 -0.50487538427E+02  0.45741201224E+02  0.80434172249E+03  0.82531140354E+03  0.17184893730E+03 0.  0.
        -24    2    5    5    0    0  0.38602300258E+02  0.24243272684E+02  0.42873562276E+03  0.43865756295E+03  0.80798202055E+02 0.  0.
          5    1    3    3  501    0  0.71303363740E+02 -0.39508264337E+02 -0.33853044155E+01  0.81722842079E+02  0.47000000000E+01 0. -1.
        -13    1    4    4    0    0 -0.19780853290E+02  0.41847789010E+02 -0.36553675628E+00  0.46288802307E+02  0.00000000000E+00 0.  1.
         14    1    4    4    0    0 -0.10349720227E+01 -0.48080725897E+02  0.29314663337E+02  0.56322081428E+02  0.00000000000E+00 0. -1.
         -5    1    5    5    0  502 -0.89089838685E+02  0.21497928540E+02  0.37560609973E+03  0.38665384059E+03  0.47000000000E+01 0.  1.
         13    1    6    6    0    0  0.92135871658E+01  0.20875444906E+02  0.25031330252E+02  0.33870959282E+02  0.00000000000E+00 0. -1.
        -14    1    6    6    0    0  0.29388713092E+02  0.33678277789E+01  0.40370429251E+03  0.40478660367E+03  0.00000000000E+00 0.  1.
</event>
<event>
12    1  0.8526130E-002  0.2232958E+03  0.7818608E-02  0.1131712E+00
         21   -1    0    0  503  502  0.00000000000E+00  0.00000000000E+00  0.58333025081E+03  0.58333025081E+03  0.00000000000E+00 0.  1.
         21   -1    0    0  501  503 -0.00000000000E+00 -0.00000000000E+00 -0.10597315293E+03  0.10597315293E+03  0.00000000000E+00 0.  1.
          6    2    1    2  501    0 -0.10462720507E+03 -0.96924827396E+02  0.84479130650E+02  0.23740285717E+03  0.16994740030E+03 0.  0.
         24    2    3    3    0    0 -0.96926556071E+02 -0.12615067536E+02  0.84167278656E+02  0.15261121339E+03  0.81560740894E+02 0.  0.
         -6    2    1    2    0  502  0.10462720507E+03  0.96924827396E+02  0.39287796724E+03  0.45190054657E+03  0.17181307472E+03 0.  0.
        -24    2    5    5    0    0  0.14171773218E+02  0.86480189823E+02  0.29449484550E+03  0.31776403309E+03  0.81037672182E+02 0.  0.
          5    1    3    3  501    0 -0.77006490012E+01 -0.84309759860E+02  0.31185199421E+00  0.84791643776E+02  0.47000000000E+01 0. -1.
        -11    1    4    4    0    0 -0.81029427088E+02  0.17233074711E+02  0.28746679340E+02  0.87687618803E+02  0.00000000000E+00 0.  1.
         12    1    4    4    0    0 -0.15897128983E+02 -0.29848142247E+02  0.55420599316E+02  0.64923594587E+02  0.00000000000E+00 0. -1.
         -5    1    5    5    0  502  0.90455431854E+02  0.10444637572E+02  0.98383121735E+02  0.13413651348E+03  0.47000000000E+01 0.  1.
         13    1    6    6    0    0  0.29390041846E+01  0.16757735206E+02  0.23147139477E+01  0.17170245644E+02  0.00000000000E+00 0. -1.
        -14    1    6    6    0    0  0.11232769033E+02  0.69722454617E+02  0.29218013155E+03  0.30059378745E+03  0.00000000000E+00 0.  1.
</event>
<event>
12    1  0.8526130E-002  0.2032709E+03  0.7818608E-02  0.1147114E+00
         21   -1    0    0  503  502  0.00000000000E+00  0.00000000000E+00  0.21468841801E+03  0.21468841801E+03  0.00000000000E+00 0. -1.
         21   -1    0    0  501  503 -0.00000000000E+00 -0.00000000000E+00 -0.74030313002E+03  0.74030313002E+03  0.00000000000E+00 0. -1.
          6    2    1    2  501    0 -0.10370048181E+03  0.40216144923E+02 -0.67383751074E+03  0.70382956905E+03  0.17014095083E+03 0.  0.
         24    2    3    3    0    0 -0.68840699277E+02  0.55762216146E+02 -0.24551795888E+03  0.27378699758E+03  0.82654614428E+02 0.  0.
         -6    2    1    2    0  502  0.10370048181E+03 -0.40216144923E+02  0.14822279872E+03  0.25116197899E+03  0.16953233729E+03 0.  0.
        -24    2    5    5    0    0  0.76039847317E+01  0.24258813969E+02  0.37209849324E+02  0.90732798322E+02  0.78749966131E+02 0.  0.
          5    1    3    3  501    0 -0.34859782536E+02 -0.15546071222E+02 -0.42831955186E+03  0.43004257147E+03  0.47000000000E+01 0. -1.
        -13    1    4    4    0    0 -0.42461414682E+02  0.69885432975E+02 -0.21913231886E+03  0.23389296409E+03  0.00000000000E+00 0.  1.
         14    1    4    4    0    0 -0.26379284595E+02 -0.14123216830E+02 -0.26385640011E+02  0.39894033491E+02  0.00000000000E+00 0. -1.
         -5    1    5    5    0  502  0.96096497082E+02 -0.64474958892E+02  0.11101294940E+03  0.16042918067E+03  0.47000000000E+01 0.  1.
         11    1    6    6    0    0 -0.26820207102E+02  0.24171824648E+02  0.42650926574E+02  0.55881143093E+02  0.00000000000E+00 0. -1.
        -12    1    6    6    0    0  0.34424191833E+02  0.86989321183E-01 -0.54410772502E+01  0.34851655228E+02  0.00000000000E+00 0.  1.
</event>
<event>
12    1  0.8526130E-002  0.2075435E+03  0.7818608E-02  0.1143527E+00
         21   -1    0    0  501  502  0.00000000000E+00  0.00000000000E+00  0.76926857045E+02  0.76926857045E+02  0.00000000000E+00 0.  1.
         21   -1    0    0  502  503 -0.00000000000E+00 -0.00000000000E+00 -0.56640111430E+03  0.56640111430E+03  0.00000000000E+00 0. -1.
         -6    2    1    2    0  503 -0.86804821569E+02 -0.77251812849E+02 -0.27911211386E+03  0.34781871963E+03  0.17196328092E+03 0.  0.
        -24    2    3    3    0    0 -0.73783236779E+02 -0.55635026805E+02 -0.29383656797E+03  0.31822570258E+03  0.79927760305E+02 0.  0.
          6    2    1    2  501    0  0.86804821569E+02  0.77251812849E+02 -0.21036214340E+03  0.29550925172E+03  0.17196094569E+03 0.  0.
         24    2    5    5    0    0  0.13566621041E+02  0.11720682358E+02 -0.17095620116E+03  0.18952301977E+03  0.79821831012E+02 0.  0.
          5    1    5    5  501    0  0.73238200528E+02  0.65531130491E+02 -0.39405942239E+02  0.10598623195E+03  0.47000000000E+01 0. -1.
        -13    1    6    6    0    0  0.25374581119E+02 -0.18439104797E+02 -0.25269032147E+02  0.40278951554E+02  0.00000000000E+00 0.  1.
         14    1    6    6    0    0 -0.11807960077E+02  0.30159787155E+02 -0.14568716901E+03  0.14924406821E+03  0.00000000000E+00 0. -1.
         -5    1    3    3    0  503 -0.13021584790E+02 -0.21616786044E+02  0.14724454109E+02  0.29593017050E+02  0.47000000000E+01 0.  1.
         11    1    4    4    0    0 -0.83430512575E+02 -0.20837897756E+02 -0.21197854321E+03  0.22875701343E+03  0.00000000000E+00 0. -1.
        -12    1    4    4    0    0  0.96472757963E+01 -0.34797129049E+02 -0.81858024756E+02  0.89468689145E+02  0.00000000000E+00 0.  1.
</event>
<event>
12    1  0.8526130E-002  0.1790747E+03  0.7818608E-02  0.1168754E+00
         21   -1    0    0  503  502  0.00000000000E+00  0.00000000000E+00  0.41014399644E+02  0.41014399644E+02  0.00000000000E+00 0.  1.
         21   -1    0    0  501  503 -0.00000000000E+00 -0.00000000000E+00 -0.80330104349E+03  0.80330104349E+03  0.00000000000E+00 0.  1.
          6    2    1    2  501    0 -0.43107401488E+02 -0.20325791683E+02 -0.45181094280E+03  0.48600501586E+03  0.17261622616E+03 0.  0.
         24    2    3    3    0    0  0.79317640298E+01  0.20420949402E+02 -0.37083539566E+03  0.38186845859E+03  0.88457339628E+02 0.  0.
         -6    2    1    2    0  502  0.43107401488E+02  0.20325791683E+02 -0.31047570104E+03  0.35831042727E+03  0.17239436036E+03 0.  0.
        -24    2    5    5    0    0  0.79628217363E+02 -0.21975447375E+02 -0.25452774014E+03  0.27909282097E+03  0.79277102193E+02 0.  0.
          5    1    3    3  501    0 -0.51039165518E+02 -0.40746741085E+02 -0.80975547145E+02  0.10413655728E+03  0.47000000000E+01 0. -1.
        -13    1    4    4    0    0  0.91709251778E+01 -0.34733310561E+02 -0.14089555653E+03  0.14540311751E+03  0.00000000000E+00 0.  1.
         14    1    4    4    0    0 -0.12391611480E+01  0.55154259963E+02 -0.22993983913E+03  0.23646534108E+03  0.00000000000E+00 0. -1.
         -5    1    5    5    0  502 -0.36520815875E+02  0.42301239058E+02 -0.55947960903E+02  0.79217606296E+02  0.47000000000E+01 0.  1.
         13    1    6    6    0    0 -0.93871817949E+01 -0.15982325175E+02 -0.90432373494E+02  0.92312339780E+02  0.00000000000E+00 0. -1.
        -14    1    6    6    0    0  0.89015399158E+02 -0.59931221999E+01 -0.16409536664E+03  0.18678048119E+03  0.00000000000E+00 0.  1.
</event>
<event>
12    1  0.8526130E-002  0.1756470E+03  0.7818608E-02  0.1172107E+00
         21   -1    0    0  501  502  0.00000000000E+00  0.00000000000E+00  0.22299053399E+03  0.22299053399E+03  0.00000000000E+00 0. -1.
         21   -1    0    0  502  503 -0.00000000000E+00 -0.00000000000E+00 -0.18328136734E+03  0.18328136734E+03  0.00000000000E+00 0. -1.
         -6    2    1    2    0  503 -0.32076569806E+02 -0.35427159887E+01 -0.80805251033E+02  0.19325638449E+03  0.17256037896E+03 0.  0.
        -24    2    3    3    0    0 -0.66345097105E+02 -0.30417371300E+02 -0.79122791398E+01  0.10821489807E+03  0.79504538343E+02 0.  0.
          6    2    1    2  501    0  0.32076569806E+02  0.35427159887E+01  0.12051441768E+03  0.21301551684E+03  0.17265696735E+03 0.  0.
         24    2    5    5    0    0 -0.20659474010E+02  0.46755767179E+02  0.22558779694E+02  0.93575761626E+02  0.75064032611E+02 0.  0.
          5    1    5    5  501    0  0.52736043816E+02 -0.43213051190E+02  0.97955637989E+02  0.11943975521E+03  0.47000000000E+01 0. -1.
        -11    1    6    6    0    0  0.64254305231E+01  0.58805233697E+02  0.24135825562E+02  0.63889590257E+02  0.00000000000E+00 0.  1.
         12    1    6    6    0    0 -0.27084904533E+02 -0.12049466518E+02 -0.15770458686E+01  0.29686171370E+02  0.00000000000E+00 0. -1.
         -5    1    3    3    0  503  0.34268527299E+02  0.26874655311E+02 -0.72892971894E+02  0.85041486422E+02  0.47000000000E+01 0.  1.
         13    1    4    4    0    0 -0.52907218444E+02 -0.17157097320E+02 -0.41696561048E+02  0.69513617048E+02  0.00000000000E+00 0. -1.
        -14    1    4    4    0    0 -0.13437878661E+02 -0.13260273979E+02  0.33784281908E+02  0.38701281025E+02  0.00000000000E+00 0.  1.
</event>
<event>
12    1  0.8526130E-002  0.2290495E+03  0.7818608E-02  0.1128686E+00
         21   -1    0    0  503  502  0.00000000000E+00  0.00000000000E+00  0.51389587017E+03  0.51389587017E+03  0.00000000000E+00 0.  1.
         21   -1    0    0  501  503 -0.00000000000E+00 -0.00000000000E+00 -0.15293557731E+03  0.15293557731E+03  0.00000000000E+00 0. -1.
          6    2    1    2  501    0  0.12858137243E+03 -0.52437116690E+02 -0.19998937050E+02  0.22231644598E+03  0.17245818080E+03 0.  0.
         24    2    3    3    0    0  0.99957073782E+01  0.99751563586E+00 -0.42060539286E+02  0.90306506273E+02  0.79279675244E+02 0.  0.
         -6    2    1    2    0  502 -0.12858137243E+03  0.52437116690E+02  0.38095922991E+03  0.44451500150E+03  0.18215606265E+03 0.  0.
        -24    2    5    5    0    0  0.81936435701E+01 -0.52561734048E+01  0.13617197979E+03  0.15819558451E+03  0.79926664667E+02 0.  0.
          5    1    3    3  501    0  0.11858566505E+03 -0.53434632326E+02  0.22061602236E+02  0.13200993970E+03  0.47000000000E+01 0. -1.
        -11    1    4    4    0    0 -0.24197152576E+02 -0.16396173119E+02  0.49334415305E+01  0.29642461623E+02  0.00000000000E+00 0.  1.
         12    1    4    4    0    0  0.34192859954E+02  0.17393688754E+02 -0.46993980817E+02  0.60664044650E+02  0.00000000000E+00 0. -1.
         -5    1    5    5    0  502 -0.13677501600E+03  0.57693290094E+02  0.24478725012E+03  0.28631941699E+03  0.47000000000E+01 0.  1.
         13    1    6    6    0    0 -0.31497820160E+02  0.12016365465E+02  0.37381091127E+02  0.50337378633E+02  0.00000000000E+00 0. -1.
        -14    1    6    6    0    0  0.39691463731E+02 -0.17272538870E+02  0.98790888665E+02  0.10785820588E+03  0.00000000000E+00 0.  1.
</event>
<event>
12    1  0.8526130E-002  0.2181295E+03  0.7818608E-02  0.1135499E+00
         21   -1    0    0  501  502  0.00000000000E+00  0.00000000000E+00  0.18799479248E+03  0.18799479248E+03  0.00000000000E+00 0.  1.
         21   -1    0    0  502  503 -0.00000000000E+00 -0.00000000000E+00 -0.48079845331E+03  0.48079845331E+03  0.00000000000E+00 0. -1.
         -6    2    1    2    0  503  0.31905926542E+02 -0.13024430932E+03 -0.37698939048E+03  0.43498194478E+03  0.17060692685E+03 0.  0.
        -24    2    3    3    0    0  0.38010250322E+02 -0.15887492077E+03 -0.35221898216E+03  0.39634727370E+03  0.79667624519E+02 0.  0.
          6    2    1    2  501    0 -0.31905926542E+02  0.13024430932E+03  0.84185729651E+02  0.23381130101E+03  0.17204336415E+03 0.  0.
         24    2    5    5    0    0 -0.14482265916E+02  0.15141569606E+03  0.95191498278E+02  0.20389427394E+03  0.96824607208E+02 0.  0.
          5    1    5    5  501    0 -0.17423660626E+02 -0.21171386739E+02 -0.11005768627E+02  0.29917027077E+02  0.47000000000E+01 0. -1.
        -11    1    6    6    0    0  0.19774175732E+01  0.20106391203E+02  0.65122304362E+02  0.68184247982E+02  0.00000000000E+00 0.  1.
         12    1    6    6    0    0 -0.16459683489E+02  0.13130930485E+03  0.30069193916E+02  0.13571002595E+03  0.00000000000E+00 0. -1.
         -5    1    3    3    0  503 -0.61043237797E+01  0.28630611451E+02 -0.24770408319E+02  0.38634671076E+02  0.47000000000E+01 0.  1.
         13    1    4    4    0    0  0.83440193490E+00 -0.13651737940E+03 -0.28965124581E+03  0.32021170388E+03  0.00000000000E+00 0. -1.
        -14    1    4    4    0    0  0.37175848387E+02 -0.22357541373E+02 -0.62567736350E+02  0.76135569818E+02  0.00000000000E+00 0.  1.
</event>
<event>
12    1  0.8526130E-002  0.1737705E+03  0.7818608E-02  0.1175720E+00
         21   -1    0    0  501  502  0.00000000000E+00  0.00000000000E+00  0.38947323666E+02  0.38947323666E+02  0.00000000000E+00 0. -1.
         21   -1    0    0  502  503 -0.00000000000E+00 -0.00000000000E+00 -0.10553671341E+04  0.10553671341E+04  0.00000000000E+00 0. -1.
         -6    2    1    2    0  503 -0.10246682008E+02  0.23421355548E+02 -0.79755290446E+03  0.81485265289E+03  0.16504743596E+03 0.  0.
        -24    2    3    3    0    0 -0.10963308364E+02  0.77703897402E+02 -0.52066303611E+03  0.53265202019E+03  0.80436854937E+02 0.  0.
          6    2    1    2  501    0  0.10246682008E+02 -0.23421355548E+02 -0.21886690594E+03  0.27946180484E+03  0.17187967728E+03 0.  0.
         24    2    5    5    0    0  0.27726546533E+02 -0.48649804560E+02 -0.22672101896E+03  0.24743373286E+03  0.81764704214E+02 0.  0.
          5    1    5    5  501    0 -0.17479864525E+02  0.25228449012E+02  0.78541130200E+01  0.32028071979E+02  0.47000000000E+01 0. -1.
        -11    1    6    6    0    0 -0.29183032275E+02 -0.19744741208E+02 -0.77442422594E+02  0.85081331650E+02  0.00000000000E+00 0.  1.
         12    1    6    6    0    0  0.56909578808E+02 -0.28905063352E+02 -0.14927859636E+03  0.16235240121E+03  0.00000000000E+00 0. -1.
         -5    1    3    3    0  503  0.71662635624E+00 -0.54282541853E+02 -0.27688986835E+03  0.28220063270E+03  0.47000000000E+01 0.  1.
         13    1    4    4    0    0  0.67031087208E+01 -0.15324835293E+02 -0.10623496505E+03  0.10754371224E+03  0.00000000000E+00 0. -1.
        -14    1    4    4    0    0 -0.17666417085E+02  0.93028732695E+02 -0.41442807107E+03  0.42510830795E+03  0.00000000000E+00 0.  1.
</event>
<event>
12    1  0.8526130E-002  0.1738364E+03  0.7818608E-02  0.1174204E+00
         21   -1    0    0  501  502  0.00000000000E+00  0.00000000000E+00  0.16549600893E+04  0.16549600893E+04  0.00000000000E+00 0. -1.
         21   -1    0    0  502  503 -0.00000000000E+00 -0.00000000000E+00 -0.59076135987E+02  0.59076135987E+02  0.00000000000E+00 0. -1.
         -6    2    1    2    0  503  0.52113015131E+01  0.21265358650E+02  0.85335783165E+02  0.19365247625E+03  0.17245205864E+03 0.  0.
        -24    2    3    3    0    0 -0.62879900119E+02  0.18406798216E+02  0.29907317885E+02  0.10568095887E+03  0.77339028601E+02 0.  0.
          6    2    1    2  501    0 -0.52113015131E+01 -0.21265358650E+02  0.15105481702E+04  0.15203837491E+04  0.17126469820E+03 0.  0.
         24    2    5    5    0    0  0.35854426127E+02  0.33118363561E+02  0.11196705961E+04  0.11235823490E+04  0.79954269349E+02 0.  0.
          5    1    5    5  501    0 -0.41065727640E+02 -0.54383722212E+02  0.39087757405E+03  0.39680140010E+03  0.47000000000E+01 0. -1.
        -11    1    6    6    0    0  0.42528027694E+02  0.26889547801E+02  0.32607204906E+03  0.32993129906E+03  0.00000000000E+00 0.  1.
         12    1    6    6    0    0 -0.66736015671E+01  0.62288157602E+01  0.79359854706E+03  0.79365104990E+03  0.00000000000E+00 0. -1.
         -5    1    3    3    0  503  0.68091201632E+02  0.28585604346E+01  0.55428465279E+02  0.87971517383E+02  0.47000000000E+01 0.  1.
         11    1    4    4    0    0  0.86009776951E+00  0.18950128257E+02  0.36965849726E+02  0.41549021349E+02  0.00000000000E+00 0. -1.
        -12    1    4    4    0    0 -0.63739997889E+02 -0.54333004128E+00 -0.70585318403E+01  0.64131937520E+02  0.00000000000E+00 0.  1.
</event>
<event>
12    1  0.8526130E-002  0.1747393E+03  0.7818608E-02  0.1177224E+00
         21   -1    0    0  503  502  0.00000000000E+00  0.00000000000E+00  0.66042278990E+03  0.66042278990E+03  0.00000000000E+00 0. -1.
         21   -1    0    0  501  503 -0.00000000000E+00 -0.00000000000E+00 -0.58748137987E+02  0.58748137987E+02  0.00000000000E+00 0. -1.
          6    2    1    2  501    0  0.30586832904E+02 -0.30871429368E+01  0.99255060754E+02  0.18723176104E+03  0.15575326789E+03 0.  0.
         24    2    3    3    0    0  0.71449311099E+02 -0.27674681599E+02  0.92110319206E+02  0.13878151322E+03  0.70036458009E+02 0.  0.
         -6    2    1    2    0  502 -0.30586832904E+02  0.30871429368E+01  0.50241959115E+03  0.53193916684E+03  0.17201379842E+03 0.  0.
        -24    2    5    5    0    0  0.41601762566E+02  0.30970133204E+02  0.30106936579E+03  0.31617851771E+03  0.81463097418E+02 0.  0.
          5    1    3    3  501    0 -0.40862478195E+02  0.24587538662E+02  0.71447415484E+01  0.48450247817E+02  0.47000000000E+01 0. -1.
        -11    1    4    4    0    0  0.22735136169E+02  0.17536117185E+02  0.56510271642E+02  0.63386217931E+02  0.00000000000E+00 0.  1.
         12    1    4    4    0    0  0.48714174931E+02 -0.45210798783E+02  0.35600047563E+02  0.75395295293E+02  0.00000000000E+00 0. -1.
         -5    1    5    5    0  502 -0.72188595470E+02 -0.27882990267E+02  0.20135022536E+03  0.21576064914E+03  0.47000000000E+01 0.  1.
         11    1    6    6    0    0  0.21533433409E+02  0.57083890563E+02  0.15806735090E+03  0.16943301549E+03  0.00000000000E+00 0. -1.
        -12    1    6    6    0    0  0.20068329157E+02 -0.26113757359E+02  0.14300201489E+03  0.14674550222E+03  0.00000000000E+00 0.  1.
</event>
<event>
12    1  0.8526130E-002  0.2285839E+03  0.7818608E-02  0.1127835E+00
         21   -1    0    0  501  502  0.00000000000E+00  0.00000000000E+00  0.17837593957E+04  0.17837593957E+04  0.00000000000E+00 0. -1.
         21   -1    0    0  502  503 -0.00000000000E+00 -0.00000000000E+00 -0.53909177326E+02  0.53909177326E+02  0.00000000000E+00 0.  1.
         -6    2    1    2    0  503 -0.13752815524E+03  0.62533133421E+02  0.24114220152E+03  0.33151380666E+03  0.17008073493E+03 0.  0.
        -24    2    3    3    0    0 -0.54097743869E+02  0.76011620121E+02  0.20438790004E+03  0.23923557617E+03  0.82188289556E+02 0.  0.
          6    2    1    2  501    0  0.13752815524E+03 -0.62533133421E+02  0.14887080169E+04  0.15061547664E+04  0.17154076639E+03 0.  0.
         24    2    5    5    0    0  0.14276723213E+03 -0.99317156795E+02  0.12128917667E+04  0.12278074902E+04  0.78475569714E+02 0.  0.
          5    1    5    5  501    0 -0.52390768875E+01  0.36784023374E+02  0.27581625017E+03  0.27834727618E+03  0.47000000000E+01 0. -1.
        -11    1    6    6    0    0  0.99422555558E+02 -0.64628647183E+02  0.10264158178E+04  0.10332430197E+04  0.00000000000E+00 0.  1.
         12    1    6    6    0    0  0.43344676568E+02 -0.34688509612E+02  0.18647594889E+03  0.19456447055E+03  0.00000000000E+00 0. -1.
         -5    1    3    3    0  503 -0.83430411369E+02 -0.13478486701E+02  0.36754301484E+02  0.92278230491E+02  0.47000000000E+01 0.  1.
         11    1    4    4    0    0 -0.46846441026E+02  0.91748626170E+02  0.19214791542E+03  0.21802114769E+03  0.00000000000E+00 0. -1.
        -12    1    4    4    0    0 -0.72513028438E+01 -0.15737006049E+02  0.12239984614E+02  0.21214428478E+02  0.00000000000E+00 0.  1.
</event>
<event>
12    1  0.8526130E-002  0.1922924E+03  0.7818608E-02  0.1156758E+00
         21   -1    0    0  501  502  0.00000000000E+00  0.00000000000E+00  0.71389349969E+03  0.71389349969E+03  0.00000000000E+00 0. -1.
         21   -1    0    0  502  503 -0.00000000000E+00 -0.00000000000E+00 -0.52797987692E+02  0.52797987692E+02  0.00000000000E+00 0.  1.
         -6    2    1    2    0  503  0.64085704389E+02 -0.58219924680E+02  0.26631275415E+03  0.32756759762E+03  0.16994561145E+03 0.  0.
        -24    2    3    3    0    0  0.61284669606E+02 -0.19444561789E+02  0.64176424791E+02  0.12167306100E+03  0.80943304620E+02 0.  0.
          6    2    1    2  501    0 -0.64085704389E+02  0.58219924680E+02  0.39478275784E+03  0.43912388976E+03  0.17169690599E+03 0.  0.
         24    2    5    5    0    0 -0.98898291195E+02  0.69524265607E+02  0.36372917998E+03  0.39089403363E+03  0.76712017635E+02 0.  0.
          5    1    5    5  501    0  0.34812586806E+02 -0.11304340926E+02  0.31053577869E+02  0.48229856130E+02  0.47000000000E+01 0. -1.
        -11    1    6    6    0    0 -0.75096790270E+02  0.85907276164E+02  0.28215180805E+03  0.30435050648E+03  0.00000000000E+00 0.  1.
         12    1    6    6    0    0 -0.23801500925E+02 -0.16383010558E+02  0.81577371925E+02  0.86543527149E+02  0.00000000000E+00 0. -1.
         -5    1    3    3    0  503  0.28010347835E+01 -0.38775362892E+02  0.20213632936E+03  0.20589453662E+03  0.47000000000E+01 0.  1.
         13    1    4    4    0    0  0.45579288290E+02  0.26719346427E+02  0.44549486684E+02  0.69108984643E+02  0.00000000000E+00 0. -1.
        -14    1    4    4    0    0  0.15705381316E+02 -0.46163908216E+02  0.19626938107E+02  0.52564076359E+02  0.00000000000E+00 0.  1.
</event>
<event>
12    1  0.8526130E-002  0.2097902E+03  0.7818608E-02  0.1141735E+00
         21   -1    0    0  501  502  0.00000000000E+00  0.00000000000E+00  0.17148849979E+03  0.17148849979E+03  0.00000000000E+00 0.  1.
         21   -1    0    0  502  503 -0.00000000000E+00 -0.00000000000E+00 -0.31518917012E+03  0.31518917012E+03  0.00000000000E+00 0.  1.
         -6    2    1    2    0  503  0.95458036372E+02 -0.73046979946E+02 -0.17673850226E+03  0.27430196390E+03  0.17192141004E+03 0.  0.
        -24    2    3    3    0    0  0.51741819455E+02 -0.37782912661E+02 -0.18782566833E+03  0.21685914612E+03  0.87433650283E+02 0.  0.
          6    2    1    2  501    0 -0.95458036372E+02  0.73046979946E+02  0.33037831927E+02  0.21237570601E+03  0.17194139751E+03 0.  0.
         24    2    5    5    0    0 -0.19261805902E+02  0.69134164302E+02  0.70817909519E+02  0.12710789305E+03  0.77399549908E+02 0.  0.
          5    1    5    5  501    0 -0.76196230471E+02  0.39128156441E+01 -0.37780077592E+02  0.85267812960E+02  0.47000000000E+01 0. -1.
        -11    1    6    6    0    0 -0.36523036488E+02  0.58289782412E+02  0.18907115917E+02  0.71337998011E+02  0.00000000000E+00 0.  1.
         12    1    6    6    0    0  0.17261230587E+02  0.10844381890E+02  0.51910793602E+02  0.55769895036E+02  0.00000000000E+00 0. -1.
         -5    1    3    3    0  503  0.43716216917E+02 -0.35264067285E+02  0.11087166070E+02  0.57442817780E+02  0.47000000000E+01 0.  1.
         13    1    4    4    0    0  0.21593503396E+02  0.24648654040E+02 -0.29796192434E+02  0.44290502577E+02  0.00000000000E+00 0. -1.
        -14    1    4    4    0    0  0.30148316059E+02 -0.62431566701E+02 -0.15802947589E+03  0.17256864354E+03  0.00000000000E+00 0.  1.
</event>
<event>
12    1  0.8526130E-002  0.2009125E+03  0.7818608E-02  0.1149786E+00
         21   -1    0    0  503  502  0.00000000000E+00  0.00000000000E+00  0.28727564963E+03  0.28727564963E+03  0.00000000000E+00 0. -1.
         21   -1    0    0  501  503 -0.00000000000E+00 -0.00000000000E+00 -0.23920794322E+03  0.23920794322E+03  0.00000000000E+00 0.  1.
          6    2    1    2  501    0  0.10247753880E+03  0.24231869162E+02 -0.14746043599E+03  0.24613188378E+03  0.16657579233E+03 0.  0.
         24    2    3    3    0    0  0.10725323045E+03  0.24986914904E+02 -0.42172689537E+02  0.14062843892E+03  0.76617365730E+02 0.  0.
         -6    2    1    2    0  502 -0.10247753880E+03 -0.24231869162E+02  0.19552814240E+03  0.28035170906E+03  0.17110522161E+03 0.  0.
        -24    2    5    5    0    0 -0.12040410630E+00  0.31851425527E+01  0.13854530195E+03  0.15994485851E+03  0.79858609061E+02 0.  0.
          5    1    3    3  501    0 -0.47756916565E+01 -0.75504574212E+00 -0.10528774645E+03  0.10550344486E+03  0.47000000000E+01 0. -1.
        -13    1    4    4    0    0  0.87265280775E+02  0.50842772802E+00 -0.58496857315E+02  0.10505888845E+03  0.00000000000E+00 0.  1.
         14    1    4    4    0    0  0.19987949680E+02  0.24478487176E+02  0.16324167778E+02  0.35569550468E+02  0.00000000000E+00 0. -1.
         -5    1    5    5    0  502 -0.10235713469E+03 -0.27417011715E+02  0.56982840450E+02  0.12040685055E+03  0.47000000000E+01 0.  1.
         13    1    6    6    0    0 -0.35212736447E+02  0.35128996262E+01  0.31791726436E+02  0.47570906462E+02  0.00000000000E+00 0. -1.
        -14    1    6    6    0    0  0.35092332340E+02 -0.32775707352E+00  0.10675357552E+03  0.11237395205E+03  0.00000000000E+00 0.  1.
</event>
<event>
12    1  0.8526130E-002  0.2359095E+03  0.7818608E-02  0.1122819E+00
         21   -1    0    0  503  502  0.00000000000E+00  0.00000000000E+00  0.28204485894E+03  0.28204485894E+03  0.00000000000E+00 0.  1.
         21   -1    0    0  501  503 -0.00000000000E+00 -0.00000000000E+00 -0.23102993468E+03  0.23102993468E+03  0.00000000000E+00 0.  1.
          6    2    1    2  501    0 -0.15649542971E+03 -0.38412855413E+02  0.12547706443E+03  0.26720367078E+03  0.17229898723E+03 0.  0.
         24    2    3    3    0    0 -0.37655216756E+02 -0.64662295952E+02  0.33336094812E+02  0.11448144703E+03  0.79972361670E+02 0.  0.
         -6    2    1    2    0  502  0.15649542971E+03  0.38412855413E+02 -0.74462140179E+02  0.24587112284E+03  0.17012240225E+03 0.  0.
        -24    2    5    5    0    0  0.11702074218E+03  0.20236413473E+02  0.17363294398E+02  0.14417237933E+03  0.79880062835E+02 0.  0.
          5    1    3    3  501    0 -0.11884021295E+03  0.26249440539E+02  0.92140969622E+02  0.15272222375E+03  0.47000000000E+01 0. -1.
        -11    1    4    4    0    0  0.12645639762E+02 -0.15329519228E+01  0.31238259144E+02  0.33735604055E+02  0.00000000000E+00 0.  1.
         12    1    4    4    0    0 -0.50300856518E+02 -0.63129344029E+02  0.20978356677E+01  0.80745842980E+02  0.00000000000E+00 0. -1.
         -5    1    5    5    0  502  0.39474687533E+02  0.18176441940E+02 -0.91825434577E+02  0.10169874352E+03  0.47000000000E+01 0.  1.
         11    1    6    6    0    0  0.83978800791E+02 -0.11381134106E+02  0.39341561579E+02  0.93433011635E+02  0.00000000000E+00 0. -1.
        -12    1    6    6    0    0  0.33041941385E+02  0.31617547579E+02 -0.21978267181E+02  0.50739367691E+02  0.00000000000E+00 0.  1.
</event>
<event>
12    1  0.8526130E-002  0.2113332E+03  0.7818608E-02  0.1141106E+00
         21   -1    0    0  503  502  0.00000000000E+00  0.00000000000E+00  0.36385734481E+03  0.36385734481E+03  0.00000000000E+00 0. -1.
         21   -1    0    0  501  503 -0.00000000000E+00 -0.00000000000E+00 -0.22914644157E+03  0.22914644157E+03  0.00000000000E+00 0. -1.
          6    2    1    2  501    0 -0.11813232034E+03 -0.11266570652E+02 -0.13606787437E+03  0.25134875231E+03  0.17487008930E+03 0.  0.
         24    2    3    3    0    0 -0.98857118513E+02  0.49047273800E+02 -0.12867166643E+03  0.18742624352E+03  0.79961453650E+02 0.  0.
         -6    2    1    2    0  502  0.11813232034E+03  0.11266570652E+02  0.27077877760E+03  0.34165503406E+03  0.17124495665E+03 0.  0.
        -24    2    5    5    0    0  0.15350000064E+03 -0.41030451698E-02  0.22995368050E+03  0.28627742623E+03  0.74255096659E+02 0.  0.
          5    1    3    3  501    0 -0.19275201822E+02 -0.60313844452E+02 -0.73962079344E+01  0.63922508788E+02  0.47000000000E+01 0. -1.
        -11    1    4    4    0    0 -0.10065816244E+01  0.13679118948E+02 -0.62801700800E+02  0.64282074680E+02  0.00000000000E+00 0.  1.
         12    1    4    4    0    0 -0.97850536889E+02  0.35368154852E+02 -0.65869965633E+02  0.12314416884E+03  0.00000000000E+00 0. -1.
         -5    1    5    5    0  502 -0.35367680306E+02  0.11270673698E+02  0.40825097101E+02  0.55377607831E+02  0.47000000000E+01 0.  1.
         11    1    6    6    0    0  0.10125801280E+03  0.22848003809E+02  0.98983911902E+02  0.14343302008E+03  0.00000000000E+00 0. -1.
        -12    1    6    6    0    0  0.52241987841E+02 -0.22852106854E+02  0.13096976860E+03  0.14284440615E+03  0.00000000000E+00 0.  1.
</event>
<event>
12    1  0.8526130E-002  0.2112877E+03  0.7818608E-02  0.1140643E+00
         21   -1    0    0  501  502  0.00000000000E+00  0.00000000000E+00  0.15254682922E+03  0.15254682922E+03  0.00000000000E+00 0. -1.
         21   -1    0    0  502  503 -0.00000000000E+00 -0.00000000000E+00 -0.30122408881E+03  0.30122408881E+03  0.00000000000E+00 0.  1.
         -6    2    1    2    0  503 -0.44299441829E+02  0.11282112682E+03 -0.11397439302E+03  0.23965227998E+03  0.17248769763E+03 0.  0.
        -24    2    3    3    0    0  0.48730266395E+01  0.12640819447E+03 -0.48114498736E+02  0.15621274656E+03  0.78004097215E+02 0.  0.
          6    2    1    2  501    0  0.44299441829E+02 -0.11282112682E+03 -0.34702866561E+02  0.21411863804E+03  0.17306488669E+03 0.  0.
         24    2    5    5    0    0 -0.90630338929E+01  0.62130560086E+01 -0.39815712790E+01  0.80019501278E+02  0.79161398590E+02 0.  0.
          5    1    5    5  501    0  0.53362475721E+02 -0.11903418283E+03 -0.30721295282E+02  0.13409913677E+03  0.47000000000E+01 0. -1.
        -13    1    6    6    0    0  0.19886010602E+02 -0.12313157903E+02 -0.29183800997E+02  0.37400020265E+02  0.00000000000E+00 0.  1.
         14    1    6    6    0    0 -0.28949044495E+02  0.18526213911E+02  0.25202229718E+02  0.42619481013E+02  0.00000000000E+00 0. -1.
         -5    1    3    3    0  503 -0.49172468468E+02 -0.13587067646E+02 -0.65859894287E+02  0.83439533423E+02  0.47000000000E+01 0.  1.
         11    1    4    4    0    0 -0.30927001496E+02  0.53538979404E+02  0.16675146617E-01  0.61829620856E+02  0.00000000000E+00 0. -1.
        -12    1    4    4    0    0  0.35800028136E+02  0.72869215065E+02 -0.48131173883E+02  0.94383125706E+02  0.00000000000E+00 0.  1.
</event>
<event>
12    1  0.8526130E-002  0.2027261E+03  0.7818608E-02  0.1147593E+00
         21   -1    0    0  501  502  0.00000000000E+00  0.00000000000E+00  0.89983384705E+03  0.89983384705E+03  0.00000000000E+00 0. -1.
         21   -1    0    0  502  503 -0.00000000000E+00 -0.00000000000E+00 -0.52959951007E+02  0.52959951007E+02  0.00000000000E+00 0.  1.
         -6    2    1    2    0  503 -0.63019773035E+02 -0.86006958584E+02  0.24554758448E+03  0.31842027766E+03  0.17242148435E+03 0.  0.
        -24    2    3    3    0    0 -0.91093892188E+02 -0.27919577686E+02  0.21747216415E+03  0.24790347674E+03  0.71304919790E+02 0.  0.
          6    2    1    2  501    0  0.63019773035E+02  0.86006958584E+02  0.60132631156E+03  0.63437352039E+03  0.17166170709E+03 0.  0.
         24    2    5    5    0    0  0.30564245636E+02  0.11523907682E+03  0.33574499146E+03  0.36518324275E+03  0.80124175823E+02 0.  0.
          5    1    5    5  501    0  0.32455527399E+02 -0.29232118236E+02  0.26558132010E+03  0.26919027765E+03  0.47000000000E+01 0. -1.
        -11    1    6    6    0    0  0.34467202868E+02  0.25675019579E+02  0.51189274079E+02  0.66839632589E+02  0.00000000000E+00 0.  1.
         12    1    6    6    0    0 -0.39029572321E+01  0.89564057241E+02  0.28455571738E+03  0.29834361016E+03  0.00000000000E+00 0. -1.
         -5    1    3    3    0  503  0.28074119153E+02 -0.58087380898E+02  0.28075420328E+02  0.70516800923E+02  0.47000000000E+01 0.  1.
         11    1    4    4    0    0 -0.36643234424E+02 -0.48190504840E+02  0.12062904294E+03  0.13496820880E+03  0.00000000000E+00 0. -1.
        -12    1    4    4    0    0 -0.54450657764E+02  0.20270927154E+02  0.96843121210E+02  0.11293526794E+03  0.00000000000E+00 0.  1.
</event>
<event>
12    1  0.8526130E-002  0.2252366E+03  0.7818608E-02  0.1130205E+00
         21   -1    0    0  501  502  0.00000000000E+00  0.00000000000E+00  0.57472947662E+03  0.57472947662E+03  0.00000000000E+00 0.  1.
         21   -1    0    0  502  503 -0.00000000000E+00 -0.00000000000E+00 -0.40499491566E+03  0.40499491566E+03  0.00000000000E+00 0. -1.
         -6    2    1    2    0  503  0.30244740519E+02 -0.14077766098E+03 -0.34854317208E+03  0.41498659237E+03  0.17320056262E+03 0.  0.
        -24    2    3    3    0    0  0.85367445611E+02 -0.76577170908E+02 -0.24014775614E+03  0.27739345397E+03  0.78259310300E+02 0.  0.
          6    2    1    2  501    0 -0.30244740519E+02  0.14077766098E+03  0.51827773304E+03  0.56473779991E+03  0.17199965094E+03 0.  0.
         24    2    5    5    0    0 -0.57365352368E+02  0.20767721488E+02  0.22722676300E+03  0.24871458823E+03  0.80652728809E+02 0.  0.
          5    1    5    5  501    0  0.27120611849E+02  0.12000993949E+03  0.29105097004E+03  0.31602321168E+03  0.47000000000E+01 0. -1.
        -13    1    6    6    0    0 -0.14475863962E+02 -0.87922654541E+01  0.17187409581E+03  0.17270657017E+03  0.00000000000E+00 0.  1.
         14    1    6    6    0    0 -0.42889488406E+02  0.29559986943E+02  0.55352667193E+02  0.76008018058E+02  0.00000000000E+00 0. -1.
         -5    1    3    3    0  503 -0.55122705092E+02 -0.64200490067E+02 -0.10839541593E+03  0.13759313841E+03  0.47000000000E+01 0.  1.
         13    1    4    4    0    0  0.40681045223E+02 -0.80959301236E+02 -0.18717454021E+03  0.20795111060E+03  0.00000000000E+00 0. -1.
        -14    1    4    4    0    0  0.44686400388E+02  0.43821303286E+01 -0.52973215929E+02  0.69442343363E+02  0.00000000000E+00 0.  1.
</event>
<event>
12    1  0.8526130E-002  0.2505424E+03  0.7818608E-02  0.1113133E+00
         21   -1    0    0  503  502  0.00000000000E+00  0.00000000000E+00  0.89919270492E+02  0.89919270492E+02  0.00000000000E+00 0.  1.
         21   -1    0    0  501  503 -0.00000000000E+00 -0.00000000000E+00 -0.71960578421E+03  0.71960578421E+03  0.00000000000E+00 0. -1.
          6    2    1    2  501    0  0.15638029107E+03 -0.93043848698E+02 -0.38891177953E+03  0.46204274202E+03  0.17064340003E+03 0.  0.
         24    2    3    3    0    0  0.17409464976E+03 -0.11257874183E+03 -0.35642698412E+03  0.41993855593E+03  0.79531601013E+02 0.  0.
         -6    2    1    2    0  502 -0.15638029107E+03  0.93043848698E+02 -0.24077473419E+03  0.34748231269E+03  0.17221942919E+03 0.  0.
        -24    2    5    5    0    0 -0.13468586202E+03  0.21829408664E+02 -0.96911372150E+02  0.18543015547E+03  0.79848130816E+02 0.  0.
          5    1    3    3  501    0 -0.17714358684E+02  0.19534893132E+02 -0.32484795414E+02  0.42104186091E+02  0.47000000000E+01 0. -1.
        -11    1    4    4    0    0  0.23131395554E+02 -0.20563211155E+02 -0.12789048136E+02  0.33488309386E+02  0.00000000000E+00 0.  1.
         12    1    4    4    0    0  0.15096325420E+03 -0.92015530675E+02 -0.34363793598E+03  0.38645024654E+03  0.00000000000E+00 0. -1.
         -5    1    5    5    0  502 -0.21694429053E+02  0.71214440034E+02 -0.14386336204E+03  0.16205215722E+03  0.47000000000E+01 0.  1.
         11    1    6    6    0    0 -0.10647114170E+03  0.36573566292E+02 -0.10349528826E+03  0.15292156309E+03  0.00000000000E+00 0. -1.
        -12    1    6    6    0    0 -0.28214720319E+02 -0.14744157628E+02  0.65839161137E+01  0.32508592376E+02  0.00000000000E+00 0.  1.
</event>
<event>
12    1  0.8526130E-002  0.2034958E+03  0.7818608E-02  0.1146908E+00
         21   -1    0    0  501  502  0.00000000000E+00  0.00000000000E+00  0.23620546229E+03  0.23620546229E+03  0.00000000000E+00 0.  1.
         21   -1    0    0  502  503 -0.00000000000E+00 -0.00000000000E+00 -0.26099644002E+03  0.26099644002E+03  0.00000000000E+00 0. -1.
         -6    2    1    2    0  503 -0.92260583392E+02  0.56421252349E+02 -0.15512127534E+03  0.25554818134E+03  0.17189208812E+03 0.  0.
        -24    2    3    3    0    0 -0.11569035040E+03  0.50773539065E+01 -0.76828352475E+02  0.15891991601E+03  0.77090254003E+02 0.  0.
          6    2    1    2  501    0  0.92260583392E+02 -0.56421252349E+02  0.13033029762E+03  0.24165372097E+03  0.17238086151E+03 0.  0.
         24    2    5    5    0    0  0.12140249181E+02  0.28397036879E+02  0.76063474720E+02  0.11288886470E+03  0.77488490978E+02 0.  0.
          5    1    5    5  501    0  0.80120334212E+02 -0.84818289228E+02  0.54266822901E+02  0.12876485627E+03  0.47000000000E+01 0. -1.
        -13    1    6    6    0    0  0.22196107517E+02 -0.18131962125E+02  0.52405699976E+02  0.59731002246E+02  0.00000000000E+00 0.  1.
         14    1    6    6    0    0 -0.10055858336E+02  0.46528999004E+02  0.23657774744E+02  0.53157862457E+02  0.00000000000E+00 0. -1.
         -5    1    3    3    0  503  0.23429767009E+02  0.51343898442E+02 -0.78292922867E+02  0.96628265328E+02  0.47000000000E+01 0.  1.
         11    1    4    4    0    0 -0.11444834183E+03  0.26583708773E+02 -0.66815280006E+02  0.13516433761E+03  0.00000000000E+00 0. -1.
        -12    1    4    4    0    0 -0.12420085751E+01 -0.21506354867E+02 -0.10013072468E+02  0.23755578402E+02  0.00000000000E+00 0.  1.
</event>
<event>
12    1  0.8526130E-002  0.2090519E+03  0.7818608E-02  0.1142320E+00
         21   -1    0    0  501  502  0.00000000000E+00  0.00000000000E+00  0.93738398084E+02  0.93738398084E+02  0.00000000000E+00 0. -1.
         21   -1    0    0  502  503 -0.00000000000E+00 -0.00000000000E+00 -0.12164061142E+04  0.12164061142E+04  0.00000000000E+00 0. -1.
         -6    2    1    2    0  503 -0.21958570941E+02  0.11681560001E+03 -0.10757744854E+04  0.10958977089E+04  0.17196796660E+03 0.  0.
        -24    2    3    3    0    0 -0.15815708524E+02  0.71714906382E+02 -0.10115179342E+04  0.10170129721E+04  0.75853079597E+02 0.  0.
          6    2    1    2  501    0  0.21958570941E+02 -0.11681560001E+03 -0.46893230691E+02  0.21424680343E+03  0.17197283057E+03 0.  0.
         24    2    5    5    0    0 -0.16729412858E+02 -0.16704645495E+02  0.23780577730E+02  0.85655044363E+02  0.78818476970E+02 0.  0.
          5    1    5    5  501    0  0.38687983799E+02 -0.10011095451E+03 -0.70673808421E+02  0.12859175907E+03  0.47000000000E+01 0. -1.
        -13    1    6    6    0    0 -0.66474195073E+01 -0.27287235665E+02 -0.23215696246E+02  0.36438303590E+02  0.00000000000E+00 0.  1.
         14    1    6    6    0    0 -0.10081993351E+02  0.10582590170E+02  0.46996273976E+02  0.49216740773E+02  0.00000000000E+00 0. -1.
         -5    1    3    3    0  503 -0.61428624163E+01  0.45100693624E+02 -0.64256551209E+02  0.78884736783E+02  0.47000000000E+01 0.  1.
         13    1    4    4    0    0 -0.39477254054E+02  0.71262879796E+02 -0.74240781075E+03  0.74686425078E+03  0.00000000000E+00 0. -1.
        -14    1    4    4    0    0  0.23661545530E+02  0.45202658589E+00 -0.26911012347E+03  0.27014872130E+03  0.00000000000E+00 0.  1.
</event>
<event>
12    1  0.8526130E-002  0.4156752E+03  0.7818608E-02  0.1038583E+00
         21   -1    0    0  503  502  0.00000000000E+00  0.00000000000E+00  0.10215943169E+04  0.10215943169E+04  0.00000000000E+00 0. -1.
         21   -1    0    0  501  503 -0.00000000000E+00 -0.00000000000E+00 -0.58116344260E+03  0.58116344260E+03  0.00000000000E+00 0.  1.
          6    2    1    2  501    0 -0.37006514961E+03  0.76359293453E+02 -0.45486060787E+03  0.61618509672E+03  0.17322512571E+03 0.  0.
         24    2    3    3    0    0 -0.28127639683E+03  0.10216839374E+03 -0.27671410175E+03  0.41541702177E+03  0.80285837937E+02 0.  0.
         -6    2    1    2    0  502  0.37006514961E+03 -0.76359293453E+02  0.89529148218E+03  0.98657266279E+03  0.17029334765E+03 0.  0.
        -24    2    5    5    0    0  0.14290746663E+03 -0.89099785104E+02  0.45091927246E+03  0.48732153978E+03  0.76110295803E+02 0.  0.
          5    1    3    3  501    0 -0.88788752782E+02 -0.25809100290E+02 -0.17814650611E+03  0.20076807495E+03  0.47000000000E+01 0. -1.
        -13    1    4    4    0    0 -0.21310752306E+03  0.38667481383E+02 -0.18887866283E+03  0.28737630343E+03  0.00000000000E+00 0.  1.
         14    1    4    4    0    0 -0.68168873766E+02  0.63500912360E+02 -0.87835438923E+02  0.12804071834E+03  0.00000000000E+00 0. -1.
         -5    1    5    5    0  502  0.22715768298E+03  0.12740491651E+02  0.44437220971E+03  0.49925112301E+03  0.47000000000E+01 0.  1.
         13    1    6    6    0    0  0.19935859167E+02 -0.38816328934E+01  0.14886903664E+03  0.15024811355E+03  0.00000000000E+00 0. -1.
        -14    1    6    6    0    0  0.12297160746E+03 -0.85218152210E+02  0.30205023582E+03  0.33707342623E+03  0.00000000000E+00 0.  1.
</event>
<event>
12    1  0.8526130E-002  0.2167564E+03  0.7818608E-02  0.1136386E+00
         21   -1    0    0  503  502  0.00000000000E+00  0.00000000000E+00  0.24179135104E+03  0.24179135104E+03  0.00000000000E+00 0. -1.
         21   -1    0    0  501  503 -0.00000000000E+00 -0.00000000000E+00 -0.23414888169E+03  0.23414888169E+03  0.00000000000E+00 0.  1.
          6    2    1    2  501    0  0.53977265859E+02 -0.11590497012E+03 -0.94693204786E+02  0.23624055076E+03  0.17462899949E+03 0.  0.
         24    2    3    3    0    0  0.80077331774E+02 -0.65827024734E+02 -0.83119253757E+01  0.13293116354E+03  0.82801146659E+02 0.  0.
         -6    2    1    2    0  502 -0.53977265859E+02  0.11590497012E+03  0.10233567413E+03  0.23969968197E+03  0.17503096871E+03 0.  0.
        -24    2    5    5    0    0 -0.73546890251E+01  0.74590725753E+02 -0.35948845799E+01  0.11672039621E+03  0.89402795685E+02 0.  0.
          5    1    3    3  501    0 -0.26100065914E+02 -0.50077945388E+02 -0.86381279410E+02  0.10330938722E+03  0.47000000000E+01 0. -1.
        -13    1    4    4    0    0  0.39857732107E+02 -0.25130754069E+02 -0.44842775587E+02  0.65046661184E+02  0.00000000000E+00 0.  1.
         14    1    4    4    0    0  0.40219599666E+02 -0.40696270664E+02  0.36530850212E+02  0.67884502358E+02  0.00000000000E+00 0. -1.
         -5    1    5    5    0  502 -0.46622576834E+02  0.41314244368E+02  0.10593055871E+03  0.12297928576E+03  0.47000000000E+01 0.  1.
         13    1    6    6    0    0  0.31581523154E+02  0.34146795273E+02  0.25969656630E+02  0.53271186373E+02  0.00000000000E+00 0. -1.
        -14    1    6    6    0    0 -0.38936212179E+02  0.40443930480E+02 -0.29564541210E+02  0.63449209833E+02  0.00000000000E+00 0.  1.
</event>
<event>
12    1  0.8526130E-002  0.2028632E+03  0.7818608E-02  0.1147657E+00
         21   -1    0    0  501  502  0.00000000000E+00  0.00000000000E+00  0.37003474117E+03  0.37003474117E+03  0.00000000000E+00 0.  1.
         21   -1    0    0  502  503 -0.00000000000E+00 -0.00000000000E+00 -0.17134315433E+03  0.17134315433E+03  0.00000000000E+00 0.  1.
         -6    2    1    2    0  503  0.41630672716E+02 -0.96413888727E+02 -0.62330552819E+02  0.21079349550E+03  0.17181399559E+03 0.  0.
        -24    2    3    3    0    0  0.36328361529E+02 -0.10095390626E+03 -0.10293594280E+03  0.16932526719E+03  0.81017262033E+02 0.  0.
          6    2    1    2  501    0 -0.41630672716E+02  0.96413888727E+02  0.26102213966E+03  0.33058440001E+03  0.17356479276E+03 0.  0.
         24    2    5    5    0    0 -0.62919498717E+02  0.10494550229E+03  0.12276501407E+03  0.19035913367E+03  0.78695167090E+02 0.  0.
          5    1    5    5  501    0  0.21288826001E+02 -0.85316135613E+01  0.13825712559E+03  0.14022526633E+03  0.47000000000E+01 0. -1.
        -13    1    6    6    0    0 -0.12877683324E+02  0.12761860523E+02  0.71213257861E+02  0.73484882166E+02  0.00000000000E+00 0.  1.
         14    1    6    6    0    0 -0.50041815393E+02  0.92183641765E+02  0.51551756212E+02  0.11687425151E+03  0.00000000000E+00 0. -1.
         -5    1    3    3    0  503  0.53023111869E+01  0.45400175356E+01  0.40605389984E+02  0.41468228307E+02  0.47000000000E+01 0.  1.
         13    1    4    4    0    0 -0.26069118754E+02 -0.24683330333E+02 -0.27230263929E+02  0.45059438774E+02  0.00000000000E+00 0. -1.
        -14    1    4    4    0    0  0.62397480283E+02 -0.76270575929E+02 -0.75705678874E+02  0.12426582842E+03  0.00000000000E+00 0.  1.
</event>
<event>
12    1  0.8526130E-002  0.1839746E+03  0.7818608E-02  0.1164380E+00
         21   -1    0    0  501  502  0.00000000000E+00  0.00000000000E+00  0.25473148755E+03  0.25473148755E+03  0.00000000000E+00 0.  1.
         21   -1    0    0  502  503 -0.00000000000E+00 -0.00000000000E+00 -0.47825918981E+03  0.47825918981E+03  0.00000000000E+00 0.  1.
         -6    2    1    2    0  503  0.36196316284E+02 -0.52106997187E+02 -0.42385232279E+03  0.46205784492E+03  0.17268858691E+03 0.  0.
        -24    2    3    3    0    0  0.75572269098E+02  0.25954943508E+01 -0.31999440839E+03  0.33815714022E+03  0.78967877237E+02 0.  0.
          6    2    1    2  501    0 -0.36196316284E+02  0.52106997187E+02  0.20032462053E+03  0.27093283244E+03  0.17102436562E+03 0.  0.
         24    2    5    5    0    0 -0.13793790488E+02  0.46378877227E+02  0.30979739770E+02  0.99951947076E+02  0.81788621087E+02 0.  0.
          5    1    5    5  501    0 -0.22402525796E+02  0.57281199603E+01  0.16934488076E+03  0.17098088536E+03  0.47000000000E+01 0. -1.
        -13    1    6    6    0    0 -0.39035020022E+02  0.51853884411E+02  0.35115564751E+02  0.73794722064E+02  0.00000000000E+00 0.  1.
         14    1    6    6    0    0  0.25241229534E+02 -0.54750071848E+01 -0.41358249810E+01  0.26157225012E+02  0.00000000000E+00 0. -1.
         -5    1    3    3    0  503 -0.39375952814E+02 -0.54702491538E+02 -0.10385791440E+03  0.12390070469E+03  0.47000000000E+01 0.  1.
         11    1    4    4    0    0  0.33962054380E+02 -0.36097376694E+01 -0.31024306589E+02  0.46140643072E+02  0.00000000000E+00 0. -1.
        -12    1    4    4    0    0  0.41610214718E+02  0.62052320202E+01 -0.28897010180E+03  0.29201649715E+03  0.00000000000E+00 0.  1.
</event>
<event>
12    1  0.8526130E-002  0.2104783E+03  0.7818608E-02  0.1141303E+00
         21   -1    0    0  501  502  0.00000000000E+00  0.00000000000E+00  0.15343371007E+03  0.15343371007E+03  0.00000000000E+00 0. -1.
         21   -1    0    0  502  503 -0.00000000000E+00 -0.00000000000E+00 -0.29213440271E+03  0.29213440271E+03  0.00000000000E+00 0.  1.
         -6    2    1    2    0  503  0.97986982193E+02 -0.68070723354E+02 -0.95966967193E+02  0.23079546920E+03  0.17268994688E+03 0.  0.
        -24    2    3    3    0    0  0.96026143818E+02  0.19212991454E+01 -0.18149154957E+02  0.12600792222E+03  0.79522908326E+02 0.  0.
          6    2    1    2  501    0 -0.97986982193E+02  0.68070723354E+02 -0.42733725443E+02  0.21477264358E+03  0.17339563168E+03 0.  0.
         24    2    5    5    0    0  0.13019011436E+02  0.58428052627E+02 -0.18902434311E+02  0.10073172041E+03  0.78779727610E+02 0.  0.
          5    1    5    5  501    0 -0.11100599363E+03  0.96426707274E+01 -0.23831291132E+02  0.11404092317E+03  0.47000000000E+01 0. -1.
        -11    1    6    6    0    0  0.13874888844E+02  0.68092655412E+02 -0.38078564286E+02  0.79240768040E+02  0.00000000000E+00 0.  1.
         12    1    6    6    0    0 -0.85587740820E+00 -0.96646027848E+01  0.19176129976E+02  0.21490952375E+02  0.00000000000E+00 0. -1.
         -5    1    3    3    0  503  0.19608383750E+01 -0.69992022500E+02 -0.77817812236E+02  0.10478754698E+03  0.47000000000E+01 0.  1.
         13    1    4    4    0    0  0.59986132676E+02 -0.37922559582E+02 -0.10534848316E+02  0.71745659574E+02  0.00000000000E+00 0. -1.
        -14    1    4    4    0    0  0.36040011142E+02  0.39843858727E+02 -0.76143066410E+01  0.54262262642E+02  0.00000000000E+00 0.  1.
</event>
<event>
12    1  0.8526130E-002  0.1972446E+03  0.7818608E-02  0.1152230E+00
         21   -1    0    0  501  502  0.00000000000E+00  0.00000000000E+00  0.12428214079E+04  0.12428214079E+04  0.00000000000E+00 0. -1.
         21   -1    0    0  502  503 -0.00000000000E+00 -0.00000000000E+00 -0.58466830073E+02  0.58466830073E+02  0.00000000000E+00 0. -1.
         -6    2    1    2    0  503 -0.80680763786E+02 -0.52068338020E+02  0.14727770675E+03  0.24562074095E+03  0.17151771923E+03 0.  0.
        -24    2    3    3    0    0 -0.10491449545E+03 -0.84989337350E+02  0.12075811399E+03  0.19666724519E+03  0.76584883748E+02 0.  0.
          6    2    1    2  501    0  0.80680763786E+02  0.52068338020E+02  0.10370768711E+04  0.10556674970E+04  0.17229315213E+03 0.  0.
         24    2    5    5    0    0  0.10065147703E+03  0.25438860428E+02  0.98403804146E+03  0.99287286420E+03  0.81778982388E+02 0.  0.
          5    1    5    5  501    0 -0.19970713247E+02  0.26629477592E+02  0.53038829595E+02  0.62794632806E+02  0.47000000000E+01 0. -1.
        -11    1    6    6    0    0  0.30090591854E+02 -0.10785205234E+02  0.93567762183E+02  0.98877148472E+02  0.00000000000E+00 0.  1.
         12    1    6    6    0    0  0.70560885179E+02  0.36224065662E+02  0.89047027928E+03  0.89399571572E+03  0.00000000000E+00 0. -1.
         -5    1    3    3    0  503  0.24233731662E+02  0.32920999330E+02  0.26519592763E+02  0.48953495763E+02  0.47000000000E+01 0.  1.
         11    1    4    4    0    0 -0.70023722660E+02 -0.23106865188E+02  0.96819409185E+02  0.12170146650E+03  0.00000000000E+00 0. -1.
        -12    1    4    4    0    0 -0.34890772788E+02 -0.61882472162E+02  0.23938704802E+02  0.74965778687E+02  0.00000000000E+00 0.  1.
</event>
<event>
12    1  0.8526130E-002  0.2405982E+03  0.7818608E-02  0.1119580E+00
         21   -1    0    0  501  502  0.00000000000E+00  0.00000000000E+00  0.13141307786E+03  0.13141307786E+03  0.00000000000E+00 0. -1.
         21   -1    0    0  502  503 -0.00000000000E+00 -0.00000000000E+00 -0.48006144305E+03  0.48006144305E+03  0.00000000000E+00 0.  1.
         -6    2    1    2    0  503  0.11750444142E+03  0.12048261874E+03 -0.26394681280E+03  0.35640231529E+03  0.17038584208E+03 0.  0.
        -24    2    3    3    0    0  0.10589196691E+03  0.44120945978E+02 -0.23578014283E+03  0.27405302307E+03  0.79705816416E+02 0.  0.
          6    2    1    2  501    0 -0.11750444142E+03 -0.12048261874E+03 -0.84701552379E+02  0.25507220562E+03  0.17194220520E+03 0.  0.
         24    2    5    5    0    0 -0.52698249293E+02 -0.30412616204E+01  0.35167795636E+01  0.94458137143E+02  0.78253544221E+02 0.  0.
          5    1    5    5  501    0 -0.64806192131E+02 -0.11744135712E+03 -0.88218331942E+02  0.16061406848E+03  0.47000000000E+01 0. -1.
        -11    1    6    6    0    0  0.19182257649E+02  0.95259149855E+01  0.11840549116E+01  0.21450036151E+02  0.00000000000E+00 0.  1.
         12    1    6    6    0    0 -0.71880506942E+02 -0.12567176606E+02  0.23327246520E+01  0.73008100992E+02  0.00000000000E+00 0. -1.
         -5    1    3    3    0  503  0.11612474515E+02  0.76361672767E+02 -0.28166669971E+02  0.82349292221E+02  0.47000000000E+01 0.  1.
         13    1    4    4    0    0 -0.54777702159E+01  0.24528751810E+02 -0.29019597047E+02  0.38390137336E+02  0.00000000000E+00 0. -1.
        -14    1    4    4    0    0  0.11136973713E+03  0.19592194168E+02 -0.20676054579E+03  0.23566288574E+03  0.00000000000E+00 0.  1.
</event>
<event>
12    1  0.8526130E-002  0.3684266E+03  0.7818608E-02  0.1055385E+00
         21   -1    0    0  503  502  0.00000000000E+00  0.00000000000E+00  0.57857351984E+03  0.57857351984E+03  0.00000000000E+00 0. -1.
         21   -1    0    0  501  503 -0.00000000000E+00 -0.00000000000E+00 -0.31967643909E+03  0.31967643909E+03  0.00000000000E+00 0.  1.
          6    2    1    2  501    0  0.20510149192E+03 -0.25266876520E+03 -0.10291142131E+03  0.38252959246E+03  0.17271364039E+03 0.  0.
         24    2    3    3    0    0  0.97731769794E+02 -0.18390630824E+03 -0.12071238086E+03  0.25370608188E+03  0.80139054474E+02 0.  0.
         -6    2    1    2    0  502 -0.20510149192E+03  0.25266876520E+03  0.36180850206E+03  0.51572036647E+03  0.17074535815E+03 0.  0.
        -24    2    5    5    0    0 -0.14554537693E+03  0.22204870564E+03  0.35159442619E+03  0.44781649157E+03  0.80199034716E+02 0.  0.
          5    1    3    3  501    0  0.10736972213E+03 -0.68762456956E+02  0.17800959553E+02  0.12882351058E+03  0.47000000000E+01 0. -1.
        -13    1    4    4    0    0  0.94251783072E+02 -0.13955645231E+03 -0.60710296643E+02  0.17901156978E+03  0.00000000000E+00 0.  1.
         14    1    4    4    0    0  0.34799867221E+01 -0.44349855930E+02 -0.60002084216E+02  0.74694512107E+02  0.00000000000E+00 0. -1.
         -5    1    5    5    0  502 -0.59556114990E+02  0.30620059556E+02  0.10214075868E+02  0.67903874895E+02  0.47000000000E+01 0.  1.
         13    1    6    6    0    0 -0.15266291495E+03  0.18903747648E+03  0.31772947514E+03  0.39999144052E+03  0.00000000000E+00 0. -1.
        -14    1    6    6    0    0  0.71175380230E+01  0.33011229160E+02  0.33864951057E+02  0.47825051053E+02  0.00000000000E+00 0.  1.
</event>
<event>
12    1  0.8526130E-002  0.2244023E+03  0.7818608E-02  0.1130756E+00
         21   -1    0    0  501  502  0.00000000000E+00  0.00000000000E+00  0.19866861947E+04  0.19866861947E+04  0.00000000000E+00 0.  1.
         21   -1    0    0  502  503 -0.00000000000E+00 -0.00000000000E+00 -0.49971605690E+02  0.49971605690E+02  0.00000000000E+00 0.  1.
         -6    2    1    2    0  503 -0.75594532010E+02 -0.12123335530E+03  0.25317389904E+03  0.33830964037E+03  0.17304430042E+03 0.  0.
        -24    2    3    3    0    0  0.23909183226E+02 -0.48335430647E+02  0.95663178980E+02  0.13819264035E+03  0.83891591567E+02 0.  0.
          6    2    1    2  501    0  0.75594532010E+02  0.12123335530E+03  0.16835406899E+04  0.16983481600E+04  0.17223576327E+03 0.  0.
         24    2    5    5    0    0  0.77901337425E+02  0.10955517601E+02  0.91357060442E+03  0.92050335192E+03  0.80786941419E+02 0.  0.
          5    1    5    5  501    0 -0.23068054152E+01  0.11027783770E+03  0.76997008553E+03  0.77784480808E+03  0.47000000000E+01 0. -1.
        -13    1    6    6    0    0 -0.12637431948E+02 -0.13869544267E+02  0.13714195392E+03  0.13841959569E+03  0.00000000000E+00 0.  1.
         14    1    6    6    0    0  0.90538769373E+02  0.24825061868E+02  0.77642865049E+03  0.78208375623E+03  0.00000000000E+00 0. -1.
         -5    1    3    3    0  503 -0.99503715236E+02 -0.72897924653E+02  0.15751072006E+03  0.20011700002E+03  0.47000000000E+01 0.  1.
         13    1    4    4    0    0  0.24136392818E+02 -0.49772246837E+00  0.86083565125E+02  0.89404660788E+02  0.00000000000E+00 0. -1.
        -14    1    4    4    0    0 -0.22720959190E+00 -0.47837708179E+02  0.95796138545E+01  0.48787979561E+02  0.00000000000E+00 0.  1.
</event>
